 running on  160 total cores
 distrk:  each k-point on  160 cores,    1 groups
 distr:  one band on   20 cores,    8 groups
 using from now: INCAR     
 vasp.5.4.4.18Apr17-6-g9f103f2a35 (build May 01 2020 14:22:42) gamma-only       
  
 POSCAR found type information on POSCAR  O  La Zr Li Al
 POSCAR found :  5 types and     190 ions
 scaLAPACK will be used
 LDA part: xc-table for Pade appr. of Perdew
 POSCAR, INCAR and KPOINTS ok, starting setup
 FFT: planning ...
 WAVECAR not read
 WARNING: random wavefunctions but no delay for mixing, default for NELMDL
 entering main loop
       N       E                     dE             d eps       ncg     rms          rms(c)
DAV:   1     0.266332633556E+05    0.26633E+05   -0.39834E+05  1488   0.255E+03
DAV:   2     0.976504390810E+04   -0.16868E+05   -0.15587E+05  1400   0.741E+02
DAV:   3     0.267168384707E+04   -0.70934E+04   -0.64713E+04  1512   0.366E+02
DAV:   4    -0.455849054347E+03   -0.31275E+04   -0.29248E+04  2048   0.229E+02
DAV:   5    -0.147638819409E+04   -0.10205E+04   -0.98871E+03  2520   0.139E+02    0.117E+02
DAV:   6    -0.134237077145E+04    0.13402E+03   -0.13828E+03  2432   0.637E+01    0.497E+01
DAV:   7    -0.136483716962E+04   -0.22466E+02   -0.33628E+02  2544   0.320E+01    0.221E+01
DAV:   8    -0.137476202451E+04   -0.99249E+01   -0.19752E+02  2568   0.228E+01    0.239E+01
DAV:   9    -0.136868117297E+04    0.60809E+01   -0.60413E+01  2424   0.139E+01    0.592E+00
DAV:  10    -0.137038578039E+04   -0.17046E+01   -0.13234E+01  2576   0.836E+00    0.926E+00
DAV:  11    -0.137008766389E+04    0.29812E+00   -0.51354E+00  2608   0.439E+00    0.424E+00
DAV:  12    -0.137004811185E+04    0.39552E-01   -0.36611E+00  2584   0.335E+00    0.274E+00
DAV:  13    -0.137007723014E+04   -0.29118E-01   -0.13594E+00  2544   0.237E+00    0.208E+00
DAV:  14    -0.137007345727E+04    0.37729E-02   -0.27277E-01  2624   0.113E+00    0.154E+00
DAV:  15    -0.137006785279E+04    0.56045E-02   -0.20462E-01  2504   0.906E-01    0.918E-01
DAV:  16    -0.137006966132E+04   -0.18085E-02   -0.29191E-02  2576   0.420E-01    0.545E-01
DAV:  17    -0.137006687722E+04    0.27841E-02   -0.13612E-02  2520   0.219E-01    0.345E-01
DAV:  18    -0.137006702113E+04   -0.14392E-03   -0.30098E-03  2520   0.120E-01    0.294E-01
DAV:  19    -0.137006667221E+04    0.34892E-03   -0.14943E-03  2488   0.694E-02    0.287E-01
DAV:  20    -0.137006686461E+04   -0.19240E-03   -0.17014E-03  2320   0.792E-02    0.290E-01
DAV:  21    -0.137006661174E+04    0.25287E-03   -0.52576E-04  2456   0.473E-02    0.208E-01
DAV:  22    -0.137006647094E+04    0.14080E-03   -0.39680E-04  2560   0.348E-02    0.162E-01
DAV:  23    -0.137006647696E+04   -0.60139E-05   -0.40265E-05  2432   0.151E-02    0.149E-01
DAV:  24    -0.137006638672E+04    0.90243E-04   -0.85127E-05  1928   0.165E-02    0.107E-01
DAV:  25    -0.137006636490E+04    0.21811E-04   -0.90683E-05  2248   0.159E-02    0.853E-02
DAV:  26    -0.137006635763E+04    0.72766E-05   -0.88433E-06  1600   0.827E-03    0.743E-02
DAV:  27    -0.137006633164E+04    0.25988E-04   -0.27707E-05  1952   0.939E-03    0.503E-02
DAV:  28    -0.137006632379E+04    0.78527E-05   -0.10017E-05  1664   0.734E-03    0.391E-02
DAV:  29    -0.137006631749E+04    0.62922E-05   -0.11543E-05  1688   0.653E-03    0.235E-02
DAV:  30    -0.137006631111E+04    0.63838E-05   -0.73430E-06  1536   0.607E-03    0.134E-02
DAV:  31    -0.137006630961E+04    0.14965E-05   -0.16886E-06   944   0.472E-03    0.112E-02
DAV:  32    -0.137006630844E+04    0.11705E-05   -0.50219E-06  1176   0.476E-03    0.619E-03
DAV:  33    -0.137006630695E+04    0.14982E-05   -0.14111E-06   896   0.448E-03    0.337E-03
DAV:  34    -0.137006630670E+04    0.24166E-06   -0.11722E-06   872   0.416E-03
   1 F= -.13700663E+04 E0= -.13700663E+04  d E =-.137007E+04
 BRION: g(F)=  0.676E-01 g(S)=  0.000E+00
 bond charge predicted
       N       E                     dE             d eps       ncg     rms          rms(c)
DAV:   1    -0.137010764539E+04   -0.41338E-01   -0.45775E+00  1408   0.306E+00    0.357E-01
DAV:   2    -0.137013026620E+04   -0.22621E-01   -0.24077E-01  2296   0.119E+00    0.181E-01
DAV:   3    -0.137013155245E+04   -0.12862E-02   -0.18954E-02  2592   0.233E-01    0.151E-01
DAV:   4    -0.137013125448E+04    0.29797E-03   -0.17845E-03  2600   0.101E-01    0.108E-01
DAV:   5    -0.137013092200E+04    0.33248E-03   -0.12770E-03  2224   0.720E-02    0.426E-02
DAV:   6    -0.137013096010E+04   -0.38096E-04   -0.85234E-04  2408   0.551E-02    0.460E-02
DAV:   7    -0.137013094845E+04    0.11649E-04   -0.32672E-04  2376   0.340E-02    0.306E-02
DAV:   8    -0.137013094292E+04    0.55221E-05   -0.12980E-04  2520   0.213E-02    0.136E-02
DAV:   9    -0.137013094130E+04    0.16236E-05   -0.24211E-05  2200   0.107E-02    0.888E-03
DAV:  10    -0.137013094142E+04   -0.11626E-06   -0.69116E-06  1696   0.577E-03
   2 F= -.13701309E+04 E0= -.13701309E+04  d E =-.646347E-01
 BRION: g(F)=  0.625E-01 g(S)=  0.000E+00 retain N=  1 mean eig= 0.87
 eig:   0.874
 bond charge predicted
       N       E                     dE             d eps       ncg     rms          rms(c)
DAV:   1    -0.137016868958E+04   -0.37748E-01   -0.29001E+00  1400   0.243E+00    0.285E-01
DAV:   2    -0.137018313531E+04   -0.14446E-01   -0.15320E-01  2312   0.947E-01    0.146E-01
DAV:   3    -0.137018395909E+04   -0.82378E-03   -0.11942E-02  2584   0.182E-01    0.124E-01
DAV:   4    -0.137018378812E+04    0.17097E-03   -0.11262E-03  2592   0.795E-02    0.908E-02
DAV:   5    -0.137018353539E+04    0.25273E-03   -0.79409E-04  2272   0.640E-02    0.366E-02
DAV:   6    -0.137018356213E+04   -0.26736E-04   -0.74320E-04  2344   0.532E-02    0.401E-02
DAV:   7    -0.137018355587E+04    0.62540E-05   -0.29007E-04  2344   0.316E-02    0.296E-02
DAV:   8    -0.137018355078E+04    0.50926E-05   -0.98488E-05  2504   0.185E-02    0.136E-02
DAV:   9    -0.137018354800E+04    0.27820E-05   -0.25689E-05  2176   0.107E-02    0.778E-03
DAV:  10    -0.137018354856E+04   -0.56006E-06   -0.97494E-06  1776   0.627E-03
   3 F= -.13701835E+04 E0= -.13701835E+04  d E =-.526071E-01
 BRION: g(F)=  0.585E-01 g(S)=  0.000E+00 retain N=  2 mean eig= 1.52
 eig:   1.515  1.515
 bond charge predicted
       N       E                     dE             d eps       ncg     rms          rms(c)
DAV:   1    -0.136986653532E+04    0.31701E+00   -0.12280E+02  1376   0.155E+01    0.171E+00
DAV:   2    -0.137048011219E+04   -0.61358E+00   -0.64331E+00  2296   0.607E+00    0.884E-01
DAV:   3    -0.137051738281E+04   -0.37271E-01   -0.50170E-01  2592   0.114E+00    0.743E-01
DAV:   4    -0.137051346590E+04    0.39169E-02   -0.40444E-02  2616   0.471E-01    0.589E-01
DAV:   5    -0.137050375525E+04    0.97107E-02   -0.18385E-02  2360   0.309E-01    0.324E-01
DAV:   6    -0.137050185226E+04    0.19030E-02   -0.28790E-02  2160   0.337E-01    0.162E-01
DAV:   7    -0.137050264869E+04   -0.79643E-03   -0.16259E-02  2400   0.228E-01    0.180E-01
DAV:   8    -0.137050256616E+04    0.82530E-04   -0.27579E-03  2416   0.116E-01    0.136E-01
DAV:   9    -0.137050225777E+04    0.30839E-03   -0.16820E-03  2488   0.763E-02    0.631E-02
DAV:  10    -0.137050231029E+04   -0.52517E-04   -0.10677E-03  2480   0.564E-02    0.386E-02
DAV:  11    -0.137050230568E+04    0.46075E-05   -0.19266E-04  2376   0.284E-02    0.279E-02
DAV:  12    -0.137050230591E+04   -0.22471E-06   -0.17810E-04  2392   0.265E-02    0.289E-02
DAV:  13    -0.137050229791E+04    0.79933E-05   -0.92785E-05  2272   0.188E-02    0.187E-02
DAV:  14    -0.137050229617E+04    0.17388E-05   -0.27726E-05  2104   0.101E-02    0.830E-03
DAV:  15    -0.137050229562E+04    0.55328E-06   -0.34743E-06  1128   0.525E-03
   4 F= -.13705023E+04 E0= -.13705023E+04  d E =-.318747E+00
 BRION: g(F)=  0.419E-01 g(S)=  0.000E+00 retain N=  2 mean eig= 4.36
 eig:   1.115  7.603
 bond charge predicted
       N       E                     dE             d eps       ncg     rms          rms(c)
DAV:   1    -0.137049482401E+04    0.74722E-02   -0.28696E+01  1376   0.751E+00    0.820E-01
DAV:   2    -0.137063809906E+04   -0.14328E+00   -0.14982E+00  2304   0.292E+00    0.423E-01
DAV:   3    -0.137064669878E+04   -0.85997E-02   -0.11665E-01  2584   0.550E-01    0.346E-01
DAV:   4    -0.137064571546E+04    0.98331E-03   -0.96487E-03  2608   0.226E-01    0.272E-01
DAV:   5    -0.137064360189E+04    0.21136E-02   -0.38653E-03  2376   0.144E-01    0.153E-01
DAV:   6    -0.137064304193E+04    0.55996E-03   -0.58903E-03  2136   0.160E-01    0.726E-02
DAV:   7    -0.137064328911E+04   -0.24718E-03   -0.42595E-03  2400   0.111E-01    0.868E-02
DAV:   8    -0.137064327251E+04    0.16600E-04   -0.58829E-04  2416   0.556E-02    0.697E-02
DAV:   9    -0.137064319288E+04    0.79628E-04   -0.38744E-04  2432   0.368E-02    0.327E-02
DAV:  10    -0.137064320418E+04   -0.11302E-04   -0.26760E-04  2456   0.282E-02    0.178E-02
DAV:  11    -0.137064320381E+04    0.37802E-06   -0.37548E-05  2216   0.133E-02    0.115E-02
DAV:  12    -0.137064320312E+04    0.69005E-06   -0.36228E-05  2184   0.123E-02    0.113E-02
DAV:  13    -0.137064320237E+04    0.74774E-06   -0.21192E-05  2056   0.909E-03    0.908E-03
DAV:  14    -0.137064320146E+04    0.90830E-06   -0.22574E-06  1000   0.530E-03
   5 F= -.13706432E+04 E0= -.13706432E+04  d E =-.140906E+00
 BRION: g(F)=  0.363E-01 g(S)=  0.000E+00 retain N=  3 mean eig= 5.53
 eig:   1.024  7.788  7.788
 bond charge predicted
       N       E                     dE             d eps       ncg     rms          rms(c)
DAV:   1    -0.137066316367E+04   -0.19961E-01   -0.13429E+01  1376   0.517E+00    0.566E-01
DAV:   2    -0.137073102229E+04   -0.67859E-01   -0.71356E-01  2296   0.202E+00    0.293E-01
DAV:   3    -0.137073530578E+04   -0.42835E-02   -0.57261E-02  2576   0.385E-01    0.241E-01
DAV:   4    -0.137073479092E+04    0.51486E-03   -0.49065E-03  2600   0.164E-01    0.184E-01
DAV:   5    -0.137073393221E+04    0.85871E-03   -0.21328E-03  2384   0.997E-02    0.931E-02
DAV:   6    -0.137073381049E+04    0.12172E-03   -0.23578E-03  2216   0.960E-02    0.525E-02
DAV:   7    -0.137073386838E+04   -0.57887E-04   -0.13883E-03  2392   0.663E-02    0.544E-02
DAV:   8    -0.137073385611E+04    0.12270E-04   -0.28867E-04  2480   0.366E-02    0.385E-02
DAV:   9    -0.137073383467E+04    0.21437E-04   -0.15862E-04  2424   0.230E-02    0.174E-02
DAV:  10    -0.137073383957E+04   -0.48987E-05   -0.76945E-05  2392   0.158E-02    0.120E-02
DAV:  11    -0.137073384007E+04   -0.50002E-06   -0.17960E-05  1848   0.913E-03    0.964E-03
DAV:  12    -0.137073383901E+04    0.10590E-05   -0.16676E-05  1888   0.917E-03    0.850E-03
DAV:  13    -0.137073383843E+04    0.57767E-06   -0.99019E-06  1664   0.678E-03
   6 F= -.13707338E+04 E0= -.13707338E+04  d E =-.906370E-01
 BRION: g(F)=  0.321E-01 g(S)=  0.000E+00 retain N=  2 mean eig= 4.79
 eig:   4.795  4.795
 bond charge predicted
       N       E                     dE             d eps       ncg     rms          rms(c)
DAV:   1    -0.137068889148E+04    0.44948E-01   -0.32865E+01  1376   0.804E+00    0.878E-01
DAV:   2    -0.137085498431E+04   -0.16609E+00   -0.17383E+00  2288   0.312E+00    0.454E-01
DAV:   3    -0.137086530771E+04   -0.10323E-01   -0.13876E-01  2584   0.605E-01    0.369E-01
DAV:   4    -0.137086406668E+04    0.12410E-02   -0.11716E-02  2600   0.252E-01    0.283E-01
DAV:   5    -0.137086197575E+04    0.20909E-02   -0.44620E-03  2376   0.148E-01    0.155E-01
DAV:   6    -0.137086144939E+04    0.52636E-03   -0.57362E-03  2112   0.156E-01    0.737E-02
DAV:   7    -0.137086169988E+04   -0.25049E-03   -0.43390E-03  2416   0.111E-01    0.908E-02
DAV:   8    -0.137086168512E+04    0.14752E-04   -0.63619E-04  2464   0.578E-02    0.763E-02
DAV:   9    -0.137086159158E+04    0.93539E-04   -0.40727E-04  2336   0.379E-02    0.370E-02
DAV:  10    -0.137086160325E+04   -0.11663E-04   -0.32590E-04  2416   0.300E-02    0.186E-02
DAV:  11    -0.137086160576E+04   -0.25141E-05   -0.55174E-05  2072   0.159E-02    0.137E-02
DAV:  12    -0.137086160332E+04    0.24456E-05   -0.43712E-05  2168   0.141E-02    0.128E-02
DAV:  13    -0.137086160215E+04    0.11618E-05   -0.36187E-05  2240   0.113E-02    0.104E-02
DAV:  14    -0.137086160113E+04    0.10249E-05   -0.64502E-06  1488   0.667E-03    0.642E-03
DAV:  15    -0.137086160107E+04    0.54220E-07   -0.85853E-06  1496   0.536E-03
   7 F= -.13708616E+04 E0= -.13708616E+04  d E =-.127763E+00
 BRION: g(F)=  0.269E-01 g(S)=  0.000E+00 retain N=  2 mean eig= 4.95
 eig:   4.950  4.950
 bond charge predicted
       N       E                     dE             d eps       ncg     rms          rms(c)
DAV:   1    -0.137088587527E+04   -0.24274E-01   -0.47883E+00  1384   0.309E+00    0.337E-01
DAV:   2    -0.137090956023E+04   -0.23685E-01   -0.24805E-01  2280   0.119E+00    0.176E-01
DAV:   3    -0.137091095915E+04   -0.13989E-02   -0.19487E-02  2584   0.229E-01    0.142E-01
DAV:   4    -0.137091072246E+04    0.23669E-03   -0.17413E-03  2584   0.962E-02    0.103E-01
DAV:   5    -0.137091042179E+04    0.30067E-03   -0.75656E-04  2328   0.610E-02    0.476E-02
DAV:   6    -0.137091040150E+04    0.20290E-04   -0.75222E-04  2256   0.552E-02    0.286E-02
DAV:   7    -0.137091041933E+04   -0.17833E-04   -0.41169E-04  2368   0.361E-02    0.283E-02
DAV:   8    -0.137091041565E+04    0.36820E-05   -0.86251E-05  2544   0.192E-02    0.180E-02
DAV:   9    -0.137091041144E+04    0.42063E-05   -0.50526E-05  2432   0.131E-02    0.839E-03
DAV:  10    -0.137091041278E+04   -0.13399E-05   -0.15631E-05  1896   0.851E-03    0.759E-03
DAV:  11    -0.137091041193E+04    0.85228E-06   -0.21970E-06  1040   0.545E-03
   8 F= -.13709104E+04 E0= -.13709104E+04  d E =-.488109E-01
 BRION: g(F)=  0.244E-01 g(S)=  0.000E+00 retain N=  3 mean eig= 5.17
 eig:   7.050  7.050  1.399
 bond charge predicted
       N       E                     dE             d eps       ncg     rms          rms(c)
DAV:   1    -0.137091334137E+04   -0.29286E-02   -0.13268E+01  1384   0.512E+00    0.561E-01
DAV:   2    -0.137098016512E+04   -0.66824E-01   -0.69980E-01  2272   0.199E+00    0.288E-01
DAV:   3    -0.137098438879E+04   -0.42237E-02   -0.56519E-02  2576   0.389E-01    0.233E-01
DAV:   4    -0.137098382162E+04    0.56717E-03   -0.49334E-03  2584   0.163E-01    0.173E-01
DAV:   5    -0.137098308504E+04    0.73658E-03   -0.19844E-03  2368   0.947E-02    0.845E-02
DAV:   6    -0.137098299415E+04    0.90890E-04   -0.18678E-03  2208   0.850E-02    0.454E-02
DAV:   7    -0.137098305297E+04   -0.58813E-04   -0.12292E-03  2448   0.606E-02    0.497E-02
DAV:   8    -0.137098304260E+04    0.10364E-04   -0.23826E-04  2528   0.336E-02    0.370E-02
DAV:   9    -0.137098302375E+04    0.18854E-04   -0.14411E-04  2392   0.219E-02    0.165E-02
DAV:  10    -0.137098302795E+04   -0.42004E-05   -0.66089E-05  2352   0.147E-02    0.115E-02
DAV:  11    -0.137098302844E+04   -0.48478E-06   -0.13478E-05  1832   0.840E-03    0.853E-03
DAV:  12    -0.137098302715E+04    0.12900E-05   -0.14342E-05  1624   0.835E-03    0.634E-03
DAV:  13    -0.137098302714E+04    0.42346E-08   -0.93258E-06  1680   0.671E-03
   9 F= -.13709830E+04 E0= -.13709830E+04  d E =-.726152E-01
 BRION: g(F)=  0.214E-01 g(S)=  0.000E+00 retain N=  2 mean eig= 3.61
 eig:   3.610  3.610
 bond charge predicted
       N       E                     dE             d eps       ncg     rms          rms(c)
DAV:   1    -0.137096595043E+04    0.17077E-01   -0.18550E+01  1384   0.607E+00    0.656E-01
DAV:   2    -0.137105912451E+04   -0.93174E-01   -0.97464E-01  2288   0.236E+00    0.339E-01
DAV:   3    -0.137106483839E+04   -0.57139E-02   -0.77248E-02  2584   0.458E-01    0.274E-01
DAV:   4    -0.137106408775E+04    0.75064E-03   -0.66669E-03  2592   0.189E-01    0.207E-01
DAV:   5    -0.137106298361E+04    0.11041E-02   -0.25914E-03  2376   0.111E-01    0.107E-01
DAV:   6    -0.137106277422E+04    0.20939E-03   -0.29056E-03  2136   0.109E-01    0.534E-02
DAV:   7    -0.137106288437E+04   -0.11015E-03   -0.20339E-03  2384   0.774E-02    0.613E-02
DAV:   8    -0.137106287559E+04    0.87893E-05   -0.32694E-04  2456   0.410E-02    0.497E-02
DAV:   9    -0.137106283728E+04    0.38303E-04   -0.22267E-04  2392   0.275E-02    0.222E-02
DAV:  10    -0.137106284529E+04   -0.80114E-05   -0.13596E-04  2416   0.204E-02    0.144E-02
DAV:  11    -0.137106284576E+04   -0.46787E-06   -0.23946E-05  2016   0.109E-02    0.996E-03
DAV:  12    -0.137106284415E+04    0.16159E-05   -0.24252E-05  1976   0.102E-02    0.837E-03
DAV:  13    -0.137106284396E+04    0.18397E-06   -0.16686E-05  2016   0.807E-03    0.748E-03
DAV:  14    -0.137106284329E+04    0.67201E-06   -0.16260E-06   976   0.485E-03
  10 F= -.13710628E+04 E0= -.13710628E+04  d E =-.798161E-01
 BRION: g(F)=  0.182E-01 g(S)=  0.000E+00 retain N=  2 mean eig= 5.31
 eig:   5.315  5.315
 bond charge predicted
       N       E                     dE             d eps       ncg     rms          rms(c)
DAV:   1    -0.137107713499E+04   -0.14291E-01   -0.15292E+00  1376   0.175E+00    0.210E-01
DAV:   2    -0.137108476102E+04   -0.76260E-02   -0.80723E-02  2304   0.681E-01    0.109E-01
DAV:   3    -0.137108515750E+04   -0.39648E-03   -0.62742E-03  2600   0.132E-01    0.880E-02
DAV:   4    -0.137108502404E+04    0.13346E-03   -0.69377E-04  2576   0.604E-02    0.564E-02
DAV:   5    -0.137108493239E+04    0.91642E-04   -0.33517E-04  2312   0.420E-02    0.215E-02
DAV:   6    -0.137108494480E+04   -0.12411E-04   -0.26498E-04  2408   0.321E-02    0.210E-02
DAV:   7    -0.137108494448E+04    0.32976E-06   -0.97608E-05  2240   0.184E-02    0.164E-02
DAV:   8    -0.137108494397E+04    0.50233E-06   -0.36926E-05  2352   0.108E-02    0.848E-03
DAV:   9    -0.137108494299E+04    0.98346E-06   -0.87417E-06  1696   0.672E-03
  11 F= -.13710849E+04 E0= -.13710849E+04  d E =-.220997E-01
 BRION: g(F)=  0.176E-01 g(S)=  0.000E+00 retain N=  3 mean eig= 4.69
 eig:   6.669  6.669  0.727
 bond charge predicted
       N       E                     dE             d eps       ncg     rms          rms(c)
DAV:   1    -0.137104100082E+04    0.43943E-01   -0.22746E+01  1384   0.672E+00    0.733E-01
DAV:   2    -0.137115544972E+04   -0.11445E+00   -0.11980E+00  2288   0.262E+00    0.379E-01
DAV:   3    -0.137116244745E+04   -0.69977E-02   -0.95116E-02  2584   0.509E-01    0.304E-01
DAV:   4    -0.137116142862E+04    0.10188E-02   -0.83468E-03  2576   0.211E-01    0.223E-01
DAV:   5    -0.137116018486E+04    0.12438E-02   -0.32549E-03  2384   0.123E-01    0.110E-01
DAV:   6    -0.137116001288E+04    0.17198E-03   -0.31404E-03  2200   0.112E-01    0.558E-02
DAV:   7    -0.137116011898E+04   -0.10610E-03   -0.20330E-03  2408   0.784E-02    0.622E-02
DAV:   8    -0.137116010753E+04    0.11448E-04   -0.37448E-04  2552   0.420E-02    0.483E-02
DAV:   9    -0.137116007479E+04    0.32744E-04   -0.23626E-04  2400   0.282E-02    0.214E-02
DAV:  10    -0.137116008257E+04   -0.77806E-05   -0.11957E-04  2416   0.197E-02    0.150E-02
DAV:  11    -0.137116008320E+04   -0.62586E-06   -0.22620E-05  1984   0.106E-02    0.108E-02
DAV:  12    -0.137116008102E+04    0.21766E-05   -0.25833E-05  1968   0.105E-02    0.798E-03
DAV:  13    -0.137116008106E+04   -0.36351E-07   -0.15450E-05  1984   0.776E-03    0.729E-03
DAV:  14    -0.137116008032E+04    0.74056E-06   -0.16358E-06   976   0.492E-03
  12 F= -.13711601E+04 E0= -.13711601E+04  d E =-.751373E-01
 BRION: g(F)=  0.143E-01 g(S)=  0.000E+00 retain N=  2 mean eig= 4.13
 eig:   0.933  7.334
 bond charge predicted
       N       E                     dE             d eps       ncg     rms          rms(c)
DAV:   1    -0.137117346943E+04   -0.13388E-01   -0.25965E+00  1384   0.230E+00    0.261E-01
DAV:   2    -0.137118666013E+04   -0.13191E-01   -0.13954E-01  2312   0.905E-01    0.133E-01
DAV:   3    -0.137118747135E+04   -0.81123E-03   -0.11132E-02  2576   0.174E-01    0.106E-01
DAV:   4    -0.137118734022E+04    0.13113E-03   -0.10226E-03  2584   0.755E-02    0.767E-02
DAV:   5    -0.137118720314E+04    0.13708E-03   -0.47182E-04  2400   0.458E-02    0.346E-02
DAV:   6    -0.137118719894E+04    0.41936E-05   -0.35482E-04  2296   0.379E-02    0.228E-02
DAV:   7    -0.137118720544E+04   -0.64937E-05   -0.20044E-04  2384   0.259E-02    0.202E-02
DAV:   8    -0.137118720404E+04    0.13930E-05   -0.53021E-05  2560   0.147E-02    0.131E-02
DAV:   9    -0.137118720238E+04    0.16650E-05   -0.21466E-05  2296   0.880E-03    0.691E-03
DAV:  10    -0.137118720267E+04   -0.29076E-06   -0.61885E-06  1488   0.596E-03
  13 F= -.13711872E+04 E0= -.13711872E+04  d E =-.271224E-01
 BRION: g(F)=  0.129E-01 g(S)=  0.000E+00 retain N=  3 mean eig= 3.46
 eig:   0.830  5.520  4.044
 bond charge predicted
       N       E                     dE             d eps       ncg     rms          rms(c)
DAV:   1    -0.137119438906E+04   -0.71867E-02   -0.53315E+00  1384   0.327E+00    0.365E-01
DAV:   2    -0.137122140926E+04   -0.27020E-01   -0.28378E-01  2288   0.128E+00    0.186E-01
DAV:   3    -0.137122306118E+04   -0.16519E-02   -0.22483E-02  2584   0.245E-01    0.147E-01
DAV:   4    -0.137122279117E+04    0.27001E-03   -0.20190E-03  2576   0.105E-01    0.105E-01
DAV:   5    -0.137122252611E+04    0.26506E-03   -0.85370E-04  2392   0.617E-02    0.470E-02
DAV:   6    -0.137122251698E+04    0.91322E-05   -0.63790E-04  2288   0.494E-02    0.274E-02
DAV:   7    -0.137122253133E+04   -0.14351E-04   -0.34760E-04  2448   0.338E-02    0.259E-02
DAV:   8    -0.137122252888E+04    0.24459E-05   -0.84783E-05  2552   0.190E-02    0.173E-02
DAV:   9    -0.137122252607E+04    0.28130E-05   -0.39783E-05  2392   0.117E-02    0.890E-03
DAV:  10    -0.137122252695E+04   -0.87448E-06   -0.13445E-05  1832   0.773E-03    0.686E-03
DAV:  11    -0.137122252640E+04    0.54279E-06   -0.15208E-06  1008   0.508E-03
  14 F= -.13712225E+04 E0= -.13712225E+04  d E =-.353237E-01
 BRION: g(F)=  0.119E-01 g(S)=  0.000E+00 retain N=  2 mean eig= 3.75
 eig:   3.755  3.755
 bond charge predicted
       N       E                     dE             d eps       ncg     rms          rms(c)
DAV:   1    -0.137120440343E+04    0.18124E-01   -0.14017E+01  1376   0.532E+00    0.596E-01
DAV:   2    -0.137127572042E+04   -0.71317E-01   -0.75142E-01  2304   0.209E+00    0.301E-01
DAV:   3    -0.137128015144E+04   -0.44310E-02   -0.59628E-02  2584   0.401E-01    0.238E-01
DAV:   4    -0.137127952085E+04    0.63059E-03   -0.53407E-03  2600   0.170E-01    0.175E-01
DAV:   5    -0.137127880897E+04    0.71188E-03   -0.22209E-03  2416   0.100E-01    0.824E-02
DAV:   6    -0.137127874985E+04    0.59123E-04   -0.17823E-03  2248   0.836E-02    0.455E-02
DAV:   7    -0.137127879943E+04   -0.49585E-04   -0.10562E-03  2456   0.577E-02    0.455E-02
DAV:   8    -0.137127879264E+04    0.67950E-05   -0.23439E-04  2600   0.323E-02    0.330E-02
DAV:   9    -0.137127878013E+04    0.12509E-04   -0.12002E-04  2440   0.199E-02    0.156E-02
DAV:  10    -0.137127878393E+04   -0.38046E-05   -0.53969E-05  2416   0.138E-02    0.115E-02
DAV:  11    -0.137127878346E+04    0.46959E-06   -0.78506E-06  1456   0.728E-03
  15 F= -.13712788E+04 E0= -.13712788E+04  d E =-.562571E-01
 BRION: g(F)=  0.102E-01 g(S)=  0.000E+00 retain N=  2 mean eig= 6.72
 eig:   6.717  6.717
 bond charge predicted
       N       E                     dE             d eps       ncg     rms          rms(c)
DAV:   1    -0.137128733325E+04   -0.85493E-02   -0.38747E+00  1376   0.280E+00    0.319E-01
DAV:   2    -0.137130690908E+04   -0.19576E-01   -0.20625E-01  2304   0.110E+00    0.157E-01
DAV:   3    -0.137130810746E+04   -0.11984E-02   -0.16214E-02  2584   0.209E-01    0.124E-01
DAV:   4    -0.137130791553E+04    0.19193E-03   -0.14611E-03  2592   0.890E-02    0.896E-02
DAV:   5    -0.137130772157E+04    0.19396E-03   -0.66955E-04  2376   0.540E-02    0.383E-02
DAV:   6    -0.137130772454E+04   -0.29629E-05   -0.46773E-04  2344   0.412E-02    0.248E-02
DAV:   7    -0.137130773132E+04   -0.67865E-05   -0.22270E-04  2464   0.278E-02    0.208E-02
DAV:   8    -0.137130773030E+04    0.10257E-05   -0.68689E-05  2552   0.164E-02    0.132E-02
DAV:   9    -0.137130772893E+04    0.13696E-05   -0.20803E-05  2272   0.905E-03    0.781E-03
DAV:  10    -0.137130772916E+04   -0.22844E-06   -0.79161E-06  1600   0.601E-03
  16 F= -.13713077E+04 E0= -.13713077E+04  d E =-.289457E-01
 BRION: g(F)=  0.933E-02 g(S)=  0.000E+00 retain N=  1 mean eig= 5.81
 eig:   5.808
 bond charge predicted
       N       E                     dE             d eps       ncg     rms          rms(c)
DAV:   1    -0.137131714145E+04   -0.94125E-02   -0.28149E+00  1376   0.240E+00    0.271E-01
DAV:   2    -0.137133145872E+04   -0.14317E-01   -0.15130E-01  2312   0.941E-01    0.136E-01
DAV:   3    -0.137133231447E+04   -0.85575E-03   -0.11662E-02  2568   0.183E-01    0.108E-01
DAV:   4    -0.137133217534E+04    0.13913E-03   -0.10818E-03  2592   0.771E-02    0.774E-02
DAV:   5    -0.137133204190E+04    0.13344E-03   -0.53073E-04  2376   0.470E-02    0.316E-02
DAV:   6    -0.137133205030E+04   -0.83932E-05   -0.32217E-04  2384   0.341E-02    0.227E-02
DAV:   7    -0.137133205354E+04   -0.32382E-05   -0.15429E-04  2424   0.232E-02    0.173E-02
DAV:   8    -0.137133205292E+04    0.61851E-06   -0.52581E-05  2552   0.144E-02    0.109E-02
DAV:   9    -0.137133205208E+04    0.84260E-06   -0.11893E-05  1904   0.761E-03    0.718E-03
DAV:  10    -0.137133205219E+04   -0.11901E-06   -0.73810E-06  1520   0.571E-03
  17 F= -.13713321E+04 E0= -.13713321E+04  d E =-.243230E-01
 BRION: g(F)=  0.879E-02 g(S)=  0.000E+00 retain N=  2 mean eig= 5.03
 eig:   6.323  3.727
 bond charge predicted
       N       E                     dE             d eps       ncg     rms          rms(c)
DAV:   1    -0.137128199855E+04    0.50054E-01   -0.20592E+01  1376   0.646E+00    0.735E-01
DAV:   2    -0.137138680610E+04   -0.10481E+00   -0.11046E+00  2304   0.254E+00    0.367E-01
DAV:   3    -0.137139310011E+04   -0.62940E-02   -0.86221E-02  2584   0.485E-01    0.290E-01
DAV:   4    -0.137139205431E+04    0.10458E-02   -0.79475E-03  2592   0.207E-01    0.208E-01
DAV:   5    -0.137139103518E+04    0.10191E-02   -0.33944E-03  2384   0.122E-01    0.917E-02
DAV:   6    -0.137139101310E+04    0.22076E-04   -0.24001E-03  2288   0.948E-02    0.534E-02
DAV:   7    -0.137139106797E+04   -0.54864E-04   -0.12927E-03  2472   0.646E-02    0.505E-02
DAV:   8    -0.137139105770E+04    0.10269E-04   -0.34241E-04  2592   0.377E-02    0.337E-02
DAV:   9    -0.137139104830E+04    0.93928E-05   -0.14411E-04  2512   0.222E-02    0.178E-02
DAV:  10    -0.137139105145E+04   -0.31501E-05   -0.48957E-05  2528   0.138E-02    0.133E-02
DAV:  11    -0.137139105036E+04    0.10920E-05   -0.99548E-06  1592   0.803E-03    0.807E-03
DAV:  12    -0.137139105022E+04    0.13773E-06   -0.19350E-05  1752   0.843E-03    0.641E-03
DAV:  13    -0.137139104979E+04    0.43228E-06   -0.33946E-06  1168   0.553E-03
  18 F= -.13713910E+04 E0= -.13713910E+04  d E =-.589976E-01
 BRION: g(F)=  0.748E-02 g(S)=  0.000E+00 retain N=  2 mean eig= 5.32
 eig:   3.745  6.898
 bond charge predicted
       N       E                     dE             d eps       ncg     rms          rms(c)
DAV:   1    -0.137139837356E+04   -0.73233E-02   -0.10964E+00  1392   0.150E+00    0.171E-01
DAV:   2    -0.137140386914E+04   -0.54956E-02   -0.58063E-02  2304   0.586E-01    0.854E-02
DAV:   3    -0.137140418420E+04   -0.31506E-03   -0.44311E-03  2584   0.112E-01    0.676E-02
DAV:   4    -0.137140412060E+04    0.63595E-04   -0.42826E-04  2592   0.478E-02    0.466E-02
DAV:   5    -0.137140406792E+04    0.52688E-04   -0.20946E-04  2360   0.298E-02    0.177E-02
DAV:   6    -0.137140407402E+04   -0.61087E-05   -0.12542E-04  2408   0.211E-02    0.139E-02
DAV:   7    -0.137140407469E+04   -0.66226E-06   -0.49058E-05  2408   0.133E-02    0.102E-02
DAV:   8    -0.137140407443E+04    0.25432E-06   -0.16601E-05  2304   0.815E-03    0.556E-03
DAV:   9    -0.137140407410E+04    0.32698E-06   -0.17488E-06   992   0.449E-03
  19 F= -.13714041E+04 E0= -.13714041E+04  d E =-.130243E-01
 BRION: g(F)=  0.698E-02 g(S)=  0.000E+00 retain N=  3 mean eig= 4.46
 eig:   6.108  6.108  1.174
 bond charge predicted
       N       E                     dE             d eps       ncg     rms          rms(c)
DAV:   1    -0.137141061091E+04   -0.65365E-02   -0.22567E+00  1384   0.214E+00    0.241E-01
DAV:   2    -0.137142198256E+04   -0.11372E-01   -0.11996E-01  2296   0.836E-01    0.121E-01
DAV:   3    -0.137142263916E+04   -0.65661E-03   -0.92274E-03  2576   0.162E-01    0.945E-02
DAV:   4    -0.137142250893E+04    0.13024E-03   -0.87945E-04  2568   0.683E-02    0.650E-02
DAV:   5    -0.137142241271E+04    0.96215E-04   -0.40430E-04  2360   0.400E-02    0.261E-02
DAV:   6    -0.137142241873E+04   -0.60236E-05   -0.21450E-04  2392   0.275E-02    0.173E-02
DAV:   7    -0.137142242181E+04   -0.30742E-05   -0.99843E-05  2440   0.186E-02    0.134E-02
DAV:   8    -0.137142242183E+04   -0.25611E-07   -0.33930E-05  2552   0.118E-02    0.895E-03
DAV:   9    -0.137142242117E+04    0.66514E-06   -0.64947E-06  1568   0.628E-03
  20 F= -.13714224E+04 E0= -.13714224E+04  d E =-.183471E-01
 BRION: g(F)=  0.671E-02 g(S)=  0.000E+00 retain N=  2 mean eig= 2.83
 eig:   2.832  2.832
 bond charge predicted
       N       E                     dE             d eps       ncg     rms          rms(c)
DAV:   1    -0.137140711934E+04    0.15302E-01   -0.99634E+00  1368   0.447E+00    0.500E-01
DAV:   2    -0.137145663541E+04   -0.49516E-01   -0.52030E-01  2296   0.175E+00    0.250E-01
DAV:   3    -0.137145943366E+04   -0.27982E-02   -0.39298E-02  2576   0.333E-01    0.195E-01
DAV:   4    -0.137145884766E+04    0.58600E-03   -0.37252E-03  2576   0.139E-01    0.133E-01
DAV:   5    -0.137145840750E+04    0.44016E-03   -0.17026E-03  2368   0.833E-02    0.514E-02
DAV:   6    -0.137145844499E+04   -0.37483E-04   -0.95458E-04  2416   0.573E-02    0.346E-02
DAV:   7    -0.137145845553E+04   -0.10545E-04   -0.37543E-04  2448   0.366E-02    0.264E-02
DAV:   8    -0.137145845546E+04    0.68787E-07   -0.12534E-04  2568   0.222E-02    0.161E-02
DAV:   9    -0.137145845445E+04    0.10178E-05   -0.31901E-05  2488   0.120E-02    0.112E-02
DAV:  10    -0.137145845452E+04   -0.78886E-07   -0.14566E-05  1928   0.771E-03    0.648E-03
DAV:  11    -0.137145845400E+04    0.52154E-06   -0.16695E-06   992   0.575E-03
  21 F= -.13714585E+04 E0= -.13714585E+04  d E =-.360328E-01
 BRION: g(F)=  0.580E-02 g(S)=  0.000E+00 retain N=  2 mean eig= 5.51
 eig:   3.059  7.970
 bond charge predicted
       N       E                     dE             d eps       ncg     rms          rms(c)
DAV:   1    -0.137146280545E+04   -0.43509E-02   -0.24578E+00  1384   0.223E+00    0.250E-01
DAV:   2    -0.137147503502E+04   -0.12230E-01   -0.12938E-01  2296   0.878E-01    0.125E-01
DAV:   3    -0.137147575783E+04   -0.72281E-03   -0.10015E-02  2568   0.169E-01    0.993E-02
DAV:   4    -0.137147562628E+04    0.13156E-03   -0.93760E-04  2600   0.704E-02    0.702E-02
DAV:   5    -0.137147550174E+04    0.12454E-03   -0.49968E-04  2232   0.437E-02    0.254E-02
DAV:   6    -0.137147551891E+04   -0.17168E-04   -0.27908E-04  2440   0.294E-02    0.225E-02
DAV:   7    -0.137147551888E+04    0.27707E-07   -0.11577E-04  2432   0.196E-02    0.148E-02
DAV:   8    -0.137147551821E+04    0.66950E-06   -0.35214E-05  2552   0.121E-02    0.870E-03
DAV:   9    -0.137147551779E+04    0.42401E-06   -0.42337E-06  1288   0.601E-03
  22 F= -.13714755E+04 E0= -.13714755E+04  d E =-.170638E-01
 BRION: g(F)=  0.552E-02 g(S)=  0.000E+00 retain N=  3 mean eig= 5.07
 eig:   6.822  6.822  1.571
 bond charge predicted
       N       E                     dE             d eps       ncg     rms          rms(c)
DAV:   1    -0.137146096032E+04    0.14558E-01   -0.83753E+00  1368   0.410E+00    0.460E-01
DAV:   2    -0.137150275575E+04   -0.41795E-01   -0.43969E-01  2296   0.161E+00    0.231E-01
DAV:   3    -0.137150511371E+04   -0.23580E-02   -0.33448E-02  2568   0.307E-01    0.180E-01
DAV:   4    -0.137150460199E+04    0.51173E-03   -0.32285E-03  2552   0.128E-01    0.122E-01
DAV:   5    -0.137150423527E+04    0.36672E-03   -0.14677E-03  2360   0.765E-02    0.471E-02
DAV:   6    -0.137150426684E+04   -0.31574E-04   -0.79781E-04  2400   0.521E-02    0.318E-02
DAV:   7    -0.137150427531E+04   -0.84611E-05   -0.32163E-04  2440   0.338E-02    0.240E-02
DAV:   8    -0.137150427578E+04   -0.47521E-06   -0.10848E-04  2576   0.204E-02    0.150E-02
DAV:   9    -0.137150427487E+04    0.90874E-06   -0.26877E-05  2472   0.111E-02    0.106E-02
DAV:  10    -0.137150427477E+04    0.97745E-07   -0.12813E-05  1832   0.723E-03    0.605E-03
DAV:  11    -0.137150427435E+04    0.42416E-06   -0.15773E-06   992   0.548E-03
  23 F= -.13715043E+04 E0= -.13715043E+04  d E =-.287566E-01
 BRION: g(F)=  0.486E-02 g(S)=  0.000E+00 retain N=  2 mean eig= 5.23
 eig:   3.129  7.335
 bond charge predicted
       N       E                     dE             d eps       ncg     rms          rms(c)
DAV:   1    -0.137150890007E+04   -0.46253E-02   -0.11948E+00  1384   0.155E+00    0.171E-01
DAV:   2    -0.137151484132E+04   -0.59412E-02   -0.62478E-02  2304   0.611E-01    0.863E-02
DAV:   3    -0.137151519924E+04   -0.35792E-03   -0.48736E-03  2560   0.114E-01    0.683E-02
DAV:   4    -0.137151513711E+04    0.62130E-04   -0.43357E-04  2584   0.477E-02    0.492E-02
DAV:   5    -0.137151507047E+04    0.66640E-04   -0.23238E-04  2200   0.302E-02    0.172E-02
DAV:   6    -0.137151507939E+04   -0.89193E-05   -0.14626E-04  2400   0.206E-02    0.146E-02
DAV:   7    -0.137151507974E+04   -0.35306E-06   -0.47498E-05  2424   0.125E-02    0.102E-02
DAV:   8    -0.137151507921E+04    0.52837E-06   -0.14421E-05  2232   0.780E-03    0.553E-03
DAV:   9    -0.137151507893E+04    0.28725E-06   -0.15472E-06   992   0.424E-03
  24 F= -.13715151E+04 E0= -.13715151E+04  d E =-.108046E-01
 BRION: g(F)=  0.463E-02 g(S)=  0.000E+00 retain N=  3 mean eig= 4.58
 eig:   1.446  6.143  6.143
 bond charge predicted
       N       E                     dE             d eps       ncg     rms          rms(c)
DAV:   1    -0.137151912500E+04   -0.40458E-02   -0.14295E+00  1384   0.169E+00    0.189E-01
DAV:   2    -0.137152623533E+04   -0.71103E-02   -0.74820E-02  2296   0.665E-01    0.956E-02
DAV:   3    -0.137152665613E+04   -0.42081E-03   -0.58768E-03  2576   0.125E-01    0.747E-02
DAV:   4    -0.137152657245E+04    0.83686E-04   -0.53357E-04  2592   0.529E-02    0.520E-02
DAV:   5    -0.137152650294E+04    0.69508E-04   -0.25291E-04  2296   0.314E-02    0.200E-02
DAV:   6    -0.137152650847E+04   -0.55295E-05   -0.14812E-04  2368   0.217E-02    0.141E-02
DAV:   7    -0.137152650987E+04   -0.13960E-05   -0.63583E-05  2376   0.144E-02    0.104E-02
DAV:   8    -0.137152650990E+04   -0.39596E-07   -0.20019E-05  2392   0.901E-03    0.682E-03
DAV:   9    -0.137152650933E+04    0.57298E-06   -0.19228E-06   984   0.490E-03
  25 F= -.13715265E+04 E0= -.13715265E+04  d E =-.114304E-01
 BRION: g(F)=  0.440E-02 g(S)=  0.000E+00 retain N=  2 mean eig= 3.38
 eig:   3.381  3.381
 bond charge predicted
       N       E                     dE             d eps       ncg     rms          rms(c)
DAV:   1    -0.137151962486E+04    0.68850E-02   -0.56820E+00  1368   0.337E+00    0.371E-01
DAV:   2    -0.137154776842E+04   -0.28144E-01   -0.29559E-01  2304   0.132E+00    0.187E-01
DAV:   3    -0.137154946135E+04   -0.16929E-02   -0.23167E-02  2568   0.247E-01    0.146E-01
DAV:   4    -0.137154916881E+04    0.29255E-03   -0.20418E-03  2592   0.104E-01    0.105E-01
DAV:   5    -0.137154886887E+04    0.29994E-03   -0.98306E-04  2264   0.623E-02    0.413E-02
DAV:   6    -0.137154888695E+04   -0.18081E-04   -0.63662E-04  2312   0.448E-02    0.288E-02
DAV:   7    -0.137154889357E+04   -0.66201E-05   -0.27915E-04  2424   0.295E-02    0.220E-02
DAV:   8    -0.137154889263E+04    0.93857E-06   -0.83747E-05  2536   0.183E-02    0.143E-02
DAV:   9    -0.137154889121E+04    0.14170E-05   -0.23139E-05  2280   0.996E-03    0.932E-03
DAV:  10    -0.137154889135E+04   -0.13587E-06   -0.10364E-05  1704   0.651E-03    0.483E-03
DAV:  11    -0.137154889122E+04    0.13060E-06   -0.13013E-06   976   0.494E-03
  26 F= -.13715489E+04 E0= -.13715489E+04  d E =-.223819E-01
 BRION: g(F)=  0.410E-02 g(S)=  0.000E+00
 BRIONS problems: POTIM should be increased
 retain N=  1 mean eig= 8.97
 eig:   8.966
 bond charge predicted
       N       E                     dE             d eps       ncg     rms          rms(c)
DAV:   1    -0.137155331883E+04   -0.44275E-02   -0.71117E-01  1392   0.120E+00    0.131E-01
DAV:   2    -0.137155678763E+04   -0.34688E-02   -0.36419E-02  2272   0.462E-01    0.650E-02
DAV:   3    -0.137155700200E+04   -0.21437E-03   -0.28752E-03  2576   0.888E-02    0.519E-02
DAV:   4    -0.137155696901E+04    0.32988E-04   -0.24203E-04  2600   0.363E-02    0.386E-02
DAV:   5    -0.137155692524E+04    0.43776E-04   -0.14506E-04  2192   0.241E-02    0.134E-02
DAV:   6    -0.137155693139E+04   -0.61540E-05   -0.99064E-05  2392   0.168E-02    0.125E-02
DAV:   7    -0.137155693120E+04    0.19172E-06   -0.27189E-05  2376   0.980E-03    0.868E-03
DAV:   8    -0.137155693039E+04    0.81152E-06   -0.65504E-06  1488   0.615E-03
  27 F= -.13715569E+04 E0= -.13715569E+04  d E =-.803917E-02
 BRION: g(F)=  0.403E-02 g(S)=  0.000E+00 retain N=  1 mean eig= 1.39
 eig:   1.392
 bond charge predicted
       N       E                     dE             d eps       ncg     rms          rms(c)
DAV:   1    -0.137155902868E+04   -0.20975E-02   -0.89227E-02  1368   0.420E-01    0.479E-02
DAV:   2    -0.137155945257E+04   -0.42390E-03   -0.44549E-03  2264   0.161E-01    0.238E-02
DAV:   3    -0.137155947458E+04   -0.22003E-04   -0.32888E-04  2576   0.325E-02    0.191E-02
DAV:   4    -0.137155946853E+04    0.60508E-05   -0.33054E-05  2344   0.129E-02    0.129E-02
DAV:   5    -0.137155946398E+04    0.45476E-05   -0.20870E-05  2064   0.926E-03    0.442E-03
DAV:   6    -0.137155946481E+04   -0.83142E-06   -0.10194E-05  1864   0.635E-03    0.454E-03
DAV:   7    -0.137155946451E+04    0.30348E-06   -0.14149E-06   992   0.424E-03
  28 F= -.13715595E+04 E0= -.13715595E+04  d E =-.253412E-02
 BRION: g(F)=  0.394E-02 g(S)=  0.000E+00 retain N=  2 mean eig= 1.82
 eig:   1.818  1.818
 bond charge predicted
       N       E                     dE             d eps       ncg     rms          rms(c)
DAV:   1    -0.137155818304E+04    0.12818E-02   -0.41385E+00  1368   0.287E+00    0.312E-01
DAV:   2    -0.137157813081E+04   -0.19948E-01   -0.20878E-01  2288   0.110E+00    0.155E-01
DAV:   3    -0.137157926132E+04   -0.11305E-02   -0.15728E-02  2568   0.210E-01    0.122E-01
DAV:   4    -0.137157904668E+04    0.21464E-03   -0.13914E-03  2576   0.851E-02    0.878E-02
DAV:   5    -0.137157880873E+04    0.23795E-03   -0.78630E-04  2176   0.563E-02    0.303E-02
DAV:   6    -0.137157884167E+04   -0.32941E-04   -0.51700E-04  2408   0.383E-02    0.275E-02
DAV:   7    -0.137157884141E+04    0.25540E-06   -0.12858E-04  2472   0.215E-02    0.197E-02
DAV:   8    -0.137157883894E+04    0.24690E-05   -0.53465E-05  2544   0.140E-02    0.996E-03
DAV:   9    -0.137157883862E+04    0.31898E-06   -0.91483E-06  1768   0.713E-03
  29 F= -.13715788E+04 E0= -.13715788E+04  d E =-.193741E-01
 BRION: g(F)=  0.386E-02 g(S)=  0.000E+00 retain N=  3 mean eig= 4.24
 eig:   5.765  5.765  1.203
 bond charge predicted
       N       E                     dE             d eps       ncg     rms          rms(c)
DAV:   1    -0.137158342300E+04   -0.45841E-02   -0.10762E+00  1368   0.147E+00    0.160E-01
DAV:   2    -0.137158860184E+04   -0.51788E-02   -0.54268E-02  2280   0.560E-01    0.804E-02
DAV:   3    -0.137158890350E+04   -0.30166E-03   -0.41925E-03  2576   0.107E-01    0.628E-02
DAV:   4    -0.137158884480E+04    0.58700E-04   -0.36200E-04  2584   0.437E-02    0.451E-02
DAV:   5    -0.137158878336E+04    0.61443E-04   -0.20523E-04  2176   0.286E-02    0.158E-02
DAV:   6    -0.137158879127E+04   -0.79068E-05   -0.13151E-04  2392   0.195E-02    0.138E-02
DAV:   7    -0.137158879136E+04   -0.94442E-07   -0.34859E-05  2400   0.111E-02    0.970E-03
DAV:   8    -0.137158879069E+04    0.67501E-06   -0.12679E-05  2032   0.730E-03    0.498E-03
DAV:   9    -0.137158879052E+04    0.16810E-06   -0.15942E-06  1016   0.437E-03
  30 F= -.13715888E+04 E0= -.13715888E+04  d E =-.995189E-02
 BRION: g(F)=  0.372E-02 g(S)=  0.000E+00 retain N=  3 mean eig= 3.40
 eig:   0.958  4.622  4.622
 bond charge predicted
       N       E                     dE             d eps       ncg     rms          rms(c)
DAV:   1    -0.137159319776E+04   -0.44071E-02   -0.32176E-01  1352   0.800E-01    0.903E-02
DAV:   2    -0.137159477673E+04   -0.15790E-02   -0.16587E-02  2288   0.307E-01    0.450E-02
DAV:   3    -0.137159486690E+04   -0.90164E-04   -0.12859E-03  2576   0.594E-02    0.351E-02
DAV:   4    -0.137159484667E+04    0.20227E-04   -0.11506E-04  2568   0.247E-02    0.246E-02
DAV:   5    -0.137159482832E+04    0.18351E-04   -0.66460E-05  2192   0.163E-02    0.839E-03
DAV:   6    -0.137159483105E+04   -0.27329E-05   -0.39852E-05  2400   0.107E-02    0.794E-03
DAV:   7    -0.137159483074E+04    0.31095E-06   -0.76834E-06  1696   0.609E-03
  31 F= -.13715948E+04 E0= -.13715948E+04  d E =-.604022E-02
 BRION: g(F)=  0.376E-02 g(S)=  0.000E+00 retain N=  4 mean eig= 3.89
 eig:   7.194  7.194  0.884  0.297
 bond charge predicted
       N       E                     dE             d eps       ncg     rms          rms(c)
DAV:   1    -0.137159719997E+04   -0.23689E-02   -0.58624E-02  1360   0.341E-01    0.391E-02
DAV:   2    -0.137159749451E+04   -0.29454E-03   -0.30945E-03  2280   0.133E-01    0.188E-02
DAV:   3    -0.137159751119E+04   -0.16682E-04   -0.23485E-04  2568   0.260E-02    0.150E-02
DAV:   4    -0.137159750792E+04    0.32696E-05   -0.21917E-05  2280   0.109E-02    0.107E-02
DAV:   5    -0.137159750430E+04    0.36228E-05   -0.12557E-05  1936   0.750E-03    0.369E-03
DAV:   6    -0.137159750469E+04   -0.39056E-06   -0.66639E-06  1592   0.543E-03
  32 F= -.13715975E+04 E0= -.13715975E+04  d E =-.267395E-02
 BRION: g(F)=  0.373E-02 g(S)=  0.000E+00 retain N=  4 mean eig= 4.17
 eig:   6.296  6.296  3.879  0.211
 bond charge predicted
       N       E                     dE             d eps       ncg     rms          rms(c)
DAV:   1    -0.137160305057E+04   -0.55463E-02   -0.44036E-01  1376   0.938E-01    0.110E-01
DAV:   2    -0.137160532094E+04   -0.22704E-02   -0.23981E-02  2288   0.373E-01    0.523E-02
DAV:   3    -0.137160545793E+04   -0.13699E-03   -0.18874E-03  2568   0.720E-02    0.419E-02
DAV:   4    -0.137160543398E+04    0.23950E-04   -0.17150E-04  2600   0.306E-02    0.308E-02
DAV:   5    -0.137160540409E+04    0.29893E-04   -0.10144E-04  2184   0.207E-02    0.111E-02
DAV:   6    -0.137160540810E+04   -0.40134E-05   -0.70023E-05  2336   0.144E-02    0.111E-02
DAV:   7    -0.137160540770E+04    0.40552E-06   -0.19211E-05  2272   0.824E-03    0.768E-03
DAV:   8    -0.137160540696E+04    0.74136E-06   -0.54081E-06  1392   0.566E-03
  33 F= -.13716054E+04 E0= -.13716054E+04  d E =-.790226E-02
 BRION: g(F)=  0.376E-02 g(S)=  0.000E+00 retain N=  5 mean eig= 3.62
 eig:   6.336  6.336  4.410  0.892  0.148
 bond charge predicted
       N       E                     dE             d eps       ncg     rms          rms(c)
DAV:   1    -0.137160806643E+04   -0.26587E-02   -0.62611E-02  1352   0.351E-01    0.404E-02
DAV:   2    -0.137160838292E+04   -0.31649E-03   -0.33282E-03  2288   0.137E-01    0.199E-02
DAV:   3    -0.137160839962E+04   -0.16704E-04   -0.24675E-04  2576   0.273E-02    0.154E-02
DAV:   4    -0.137160839505E+04    0.45690E-05   -0.24710E-05  2288   0.116E-02    0.104E-02
DAV:   5    -0.137160839194E+04    0.31164E-05   -0.13366E-05  1992   0.762E-03    0.365E-03
DAV:   6    -0.137160839221E+04   -0.27451E-06   -0.47059E-06  1424   0.504E-03
  34 F= -.13716084E+04 E0= -.13716084E+04  d E =-.298526E-02
 BRION: g(F)=  0.377E-02 g(S)=  0.000E+00 retain N=  6 mean eig= 3.36
 eig:   6.922  6.922  4.197  1.848  0.257  0.022
 bond charge predicted
       N       E                     dE             d eps       ncg     rms          rms(c)
DAV:   1    -0.137160366785E+04    0.47241E-02   -0.11621E-01  1376   0.478E-01    0.548E-02
DAV:   2    -0.137160426175E+04   -0.59391E-03   -0.62522E-03  2280   0.189E-01    0.272E-02
DAV:   3    -0.137160429511E+04   -0.33356E-04   -0.48582E-04  2560   0.364E-02    0.214E-02
DAV:   4    -0.137160428684E+04    0.82715E-05   -0.42279E-05  2424   0.153E-02    0.152E-02
DAV:   5    -0.137160427871E+04    0.81290E-05   -0.27302E-05  2096   0.106E-02    0.533E-03
DAV:   6    -0.137160427964E+04   -0.93599E-06   -0.16883E-05  2136   0.709E-03    0.534E-03
DAV:   7    -0.137160427929E+04    0.34935E-06   -0.14135E-06   984   0.401E-03
  35 F= -.13716043E+04 E0= -.13716043E+04  d E =0.411292E-02
 BRION: g(F)=  0.386E-02 g(S)=  0.000E+00 retain N=  6 mean eig= 3.06
 eig:   6.402  4.555  3.413  3.413  0.585  0.007
 bond charge predicted
       N       E                     dE             d eps       ncg     rms          rms(c)
DAV:   1    -0.137161272419E+04   -0.84446E-02   -0.93371E-01  1320   0.133E+00    0.155E-01
DAV:   2    -0.137161720780E+04   -0.44836E-02   -0.47325E-02  2296   0.513E-01    0.762E-02
DAV:   3    -0.137161742576E+04   -0.21796E-03   -0.34965E-03  2568   0.102E-01    0.582E-02
DAV:   4    -0.137161734988E+04    0.75883E-04   -0.34604E-04  2488   0.424E-02    0.374E-02
DAV:   5    -0.137161730233E+04    0.47553E-04   -0.20656E-04  2160   0.285E-02    0.136E-02
DAV:   6    -0.137161730881E+04   -0.64784E-05   -0.94041E-05  2472   0.169E-02    0.137E-02
DAV:   7    -0.137161730805E+04    0.75824E-06   -0.23740E-05  2456   0.971E-03    0.864E-03
DAV:   8    -0.137161730725E+04    0.79566E-06   -0.97312E-06  1776   0.659E-03
  36 F= -.13716173E+04 E0= -.13716173E+04  d E =-.130280E-01
 BRION: g(F)=  0.388E-02 g(S)=  0.000E+00 retain N=  7 mean eig= 3.21
 eig:   6.561  6.527  3.117  3.117  1.740  1.414  0.011
 bond charge predicted
       N       E                     dE             d eps       ncg     rms          rms(c)
DAV:   1    -0.137162340664E+04   -0.60986E-02   -0.32599E-01  1336   0.787E-01    0.927E-02
DAV:   2    -0.137162498131E+04   -0.15747E-02   -0.16617E-02  2280   0.301E-01    0.456E-02
DAV:   3    -0.137162505039E+04   -0.69073E-04   -0.11847E-03  2592   0.617E-02    0.343E-02
DAV:   4    -0.137162501984E+04    0.30546E-04   -0.12939E-04  2488   0.260E-02    0.210E-02
DAV:   5    -0.137162500684E+04    0.12998E-04   -0.72652E-05  2264   0.170E-02    0.818E-03
DAV:   6    -0.137162500869E+04   -0.18448E-05   -0.28561E-05  2416   0.979E-03    0.709E-03
DAV:   7    -0.137162500823E+04    0.45600E-06   -0.36674E-06  1240   0.564E-03
  37 F= -.13716250E+04 E0= -.13716250E+04  d E =-.770098E-02
 BRION: g(F)=  0.385E-02 g(S)=  0.000E+00 retain N=  6 mean eig= 3.24
 eig:   5.313  7.524  3.002  3.002  0.084  0.491
 bond charge predicted
       N       E                     dE             d eps       ncg     rms          rms(c)
DAV:   1    -0.137163213764E+04   -0.71290E-02   -0.64878E-01  1336   0.112E+00    0.130E-01
DAV:   2    -0.137163535672E+04   -0.32191E-02   -0.33937E-02  2312   0.434E-01    0.640E-02
DAV:   3    -0.137163551409E+04   -0.15737E-03   -0.24765E-03  2584   0.875E-02    0.492E-02
DAV:   4    -0.137163546171E+04    0.52382E-04   -0.25979E-04  2544   0.365E-02    0.316E-02
DAV:   5    -0.137163543212E+04    0.29586E-04   -0.13771E-04  2240   0.232E-02    0.117E-02
DAV:   6    -0.137163543634E+04   -0.42232E-05   -0.62386E-05  2448   0.138E-02    0.103E-02
DAV:   7    -0.137163543604E+04    0.30189E-06   -0.16926E-05  2288   0.834E-03    0.646E-03
DAV:   8    -0.137163543573E+04    0.30920E-06   -0.51794E-06  1400   0.561E-03
  38 F= -.13716354E+04 E0= -.13716354E+04  d E =-.104275E-01
 BRION: g(F)=  0.390E-02 g(S)=  0.000E+00 retain N=  4 mean eig= 3.43
 eig:   4.458  4.458  0.923  3.874
 bond charge predicted
       N       E                     dE             d eps       ncg     rms          rms(c)
DAV:   1    -0.137164250983E+04   -0.70738E-02   -0.11709E+00  1344   0.151E+00    0.175E-01
DAV:   2    -0.137164836000E+04   -0.58502E-02   -0.61613E-02  2304   0.587E-01    0.857E-02
DAV:   3    -0.137164865602E+04   -0.29602E-03   -0.45191E-03  2592   0.118E-01    0.656E-02
DAV:   4    -0.137164856580E+04    0.90219E-04   -0.44172E-04  2560   0.487E-02    0.431E-02
DAV:   5    -0.137164851272E+04    0.53081E-04   -0.24323E-04  2256   0.311E-02    0.153E-02
DAV:   6    -0.137164852106E+04   -0.83392E-05   -0.12013E-04  2456   0.192E-02    0.138E-02
DAV:   7    -0.137164852094E+04    0.11569E-06   -0.31828E-05  2416   0.112E-02    0.933E-03
DAV:   8    -0.137164852050E+04    0.44024E-06   -0.13819E-05  2032   0.730E-03    0.481E-03
DAV:   9    -0.137164852037E+04    0.13308E-06   -0.11575E-06   992   0.432E-03
  39 F= -.13716485E+04 E0= -.13716485E+04  d E =-.130846E-01
 BRION: g(F)=  0.391E-02 g(S)=  0.000E+00 retain N=  5 mean eig= 3.98
 eig:   7.442  4.421  4.421  0.335  3.272
 bond charge predicted
       N       E                     dE             d eps       ncg     rms          rms(c)
DAV:   1    -0.137164906384E+04   -0.54334E-03   -0.19174E-02  1416   0.199E-01    0.227E-02
DAV:   2    -0.137164916171E+04   -0.97866E-04   -0.10316E-03  2296   0.810E-02    0.119E-02
DAV:   3    -0.137164916780E+04   -0.60935E-05   -0.83929E-05  2544   0.148E-02    0.965E-03
DAV:   4    -0.137164916647E+04    0.13270E-05   -0.47623E-06  1344   0.681E-03    0.737E-03
DAV:   5    -0.137164916542E+04    0.10538E-05   -0.14630E-05  1856   0.725E-03    0.294E-03
DAV:   6    -0.137164916546E+04   -0.36685E-07   -0.18416E-06  1008   0.495E-03
  40 F= -.13716492E+04 E0= -.13716492E+04  d E =-.645088E-03
 BRION: g(F)=  0.388E-02 g(S)=  0.000E+00 retain N=  6 mean eig= 4.18
 eig:   7.731  6.042  6.042  3.817  0.993  0.483
 bond charge predicted
       N       E                     dE             d eps       ncg     rms          rms(c)
DAV:   1    -0.137164658195E+04    0.25835E-02   -0.53115E-02  1392   0.328E-01    0.371E-02
DAV:   2    -0.137164685845E+04   -0.27650E-03   -0.29078E-03  2296   0.133E-01    0.186E-02
DAV:   3    -0.137164687485E+04   -0.16402E-04   -0.22296E-04  2576   0.248E-02    0.148E-02
DAV:   4    -0.137164687180E+04    0.30443E-05   -0.17168E-05  2104   0.103E-02    0.108E-02
DAV:   5    -0.137164686833E+04    0.34760E-05   -0.12816E-05  1992   0.763E-03    0.373E-03
DAV:   6    -0.137164686876E+04   -0.43289E-06   -0.70778E-06  1680   0.527E-03
  41 F= -.13716469E+04 E0= -.13716469E+04  d E =0.229670E-02
 BRION: g(F)=  0.397E-02 g(S)=  0.000E+00 retain N=  6 mean eig= 3.75
 eig:   6.461  4.430  4.430  5.184  0.477  1.536
 bond charge predicted
       N       E                     dE             d eps       ncg     rms          rms(c)
DAV:   1    -0.137163283497E+04    0.14033E-01   -0.69298E-01  1320   0.115E+00    0.134E-01
DAV:   2    -0.137163602802E+04   -0.31931E-02   -0.33750E-02  2272   0.438E-01    0.671E-02
DAV:   3    -0.137163615424E+04   -0.12622E-03   -0.23523E-03  2560   0.874E-02    0.503E-02
DAV:   4    -0.137163608933E+04    0.64910E-04   -0.29291E-04  2448   0.373E-02    0.297E-02
DAV:   5    -0.137163606449E+04    0.24839E-04   -0.14501E-04  2288   0.237E-02    0.128E-02
DAV:   6    -0.137163606680E+04   -0.23060E-05   -0.49926E-05  2480   0.133E-02    0.916E-03
DAV:   7    -0.137163606652E+04    0.27745E-06   -0.12870E-05  2136   0.767E-03    0.555E-03
DAV:   8    -0.137163606665E+04   -0.12727E-06   -0.65990E-06  1512   0.530E-03
  42 F= -.13716361E+04 E0= -.13716361E+04  d E =0.108021E-01
 BRION: g(F)=  0.392E-02 g(S)=  0.000E+00 retain N=  7 mean eig= 4.10
 eig:   7.980  5.469  5.469  5.375  2.670  0.365  1.370
 bond charge predicted
       N       E                     dE             d eps       ncg     rms          rms(c)
DAV:   1    -0.137163358049E+04    0.24860E-02   -0.33443E-02  1360   0.256E-01    0.293E-02
DAV:   2    -0.137163374943E+04   -0.16894E-03   -0.17812E-03  2296   0.998E-02    0.146E-02
DAV:   3    -0.137163375839E+04   -0.89677E-05   -0.13342E-04  2560   0.202E-02    0.110E-02
DAV:   4    -0.137163375569E+04    0.27031E-05   -0.11510E-05  1880   0.862E-03    0.725E-03
DAV:   5    -0.137163375422E+04    0.14749E-05   -0.98182E-06  1896   0.652E-03    0.235E-03
DAV:   6    -0.137163375432E+04   -0.10125E-06   -0.14361E-06   992   0.408E-03
  43 F= -.13716338E+04 E0= -.13716338E+04  d E =0.231233E-02
 BRION: g(F)=  0.392E-02 g(S)=  0.000E+00 retain N=  8 mean eig= 3.81
 eig:   7.905  5.764  5.764  5.449  2.584  1.007  1.007  1.002
 bond charge predicted
       N       E                     dE             d eps       ncg     rms          rms(c)
DAV:   1    -0.137161322113E+04    0.20533E-01   -0.12626E+00  1352   0.157E+00    0.182E-01
DAV:   2    -0.137161968930E+04   -0.64682E-02   -0.68251E-02  2304   0.618E-01    0.869E-02
DAV:   3    -0.137162006533E+04   -0.37603E-03   -0.52619E-03  2568   0.125E-01    0.689E-02
DAV:   4    -0.137161999271E+04    0.72619E-04   -0.47569E-04  2568   0.511E-02    0.495E-02
DAV:   5    -0.137161991547E+04    0.77244E-04   -0.28959E-04  2216   0.351E-02    0.177E-02
DAV:   6    -0.137161992699E+04   -0.11523E-04   -0.18606E-04  2416   0.234E-02    0.190E-02
DAV:   7    -0.137161992586E+04    0.11317E-05   -0.49793E-05  2464   0.137E-02    0.131E-02
DAV:   8    -0.137161992419E+04    0.16741E-05   -0.22561E-05  2384   0.904E-03    0.585E-03
DAV:   9    -0.137161992401E+04    0.17862E-06   -0.21450E-06  1104   0.470E-03
  44 F= -.13716199E+04 E0= -.13716199E+04  d E =0.138303E-01
 BRION: g(F)=  0.388E-02 g(S)=  0.000E+00 retain N=  9 mean eig= 4.35
 eig:   7.641  7.641  5.924  5.924  6.406  2.856  1.126  1.126  0.475
 bond charge predicted
       N       E                     dE             d eps       ncg     rms          rms(c)
DAV:   1    -0.137159739499E+04    0.22529E-01   -0.15518E+00  1336   0.174E+00    0.198E-01
DAV:   2    -0.137160522937E+04   -0.78344E-02   -0.82397E-02  2288   0.675E-01    0.963E-02
DAV:   3    -0.137160568034E+04   -0.45097E-03   -0.63201E-03  2576   0.137E-01    0.757E-02
DAV:   4    -0.137160558924E+04    0.91100E-04   -0.55337E-04  2592   0.552E-02    0.542E-02
DAV:   5    -0.137160549618E+04    0.93057E-04   -0.33808E-04  2208   0.383E-02    0.191E-02
DAV:   6    -0.137160551006E+04   -0.13880E-04   -0.22181E-04  2400   0.257E-02    0.200E-02
DAV:   7    -0.137160550949E+04    0.57255E-06   -0.55834E-05  2488   0.143E-02    0.141E-02
DAV:   8    -0.137160550759E+04    0.19018E-05   -0.24764E-05  2432   0.950E-03    0.657E-03
DAV:   9    -0.137160550732E+04    0.26802E-06   -0.29290E-06  1200   0.499E-03
  45 F= -.13716055E+04 E0= -.13716055E+04  d E =0.144167E-01
 BRION: g(F)=  0.384E-02 g(S)=  0.000E+00 retain N=  7 mean eig= 3.28
 eig:   7.320  7.320  2.547  2.565  2.565  0.434  0.232
 bond charge predicted
       N       E                     dE             d eps       ncg     rms          rms(c)
DAV:   1    -0.137156442468E+04    0.41083E-01   -0.36335E+00  1336   0.266E+00    0.303E-01
DAV:   2    -0.137158262705E+04   -0.18202E-01   -0.19178E-01  2304   0.103E+00    0.148E-01
DAV:   3    -0.137158360720E+04   -0.98015E-03   -0.14235E-02  2592   0.209E-01    0.116E-01
DAV:   4    -0.137158337761E+04    0.22960E-03   -0.12700E-03  2584   0.839E-02    0.814E-02
DAV:   5    -0.137158316966E+04    0.20795E-03   -0.83308E-04  2200   0.582E-02    0.283E-02
DAV:   6    -0.137158320258E+04   -0.32916E-04   -0.47169E-04  2464   0.378E-02    0.307E-02
DAV:   7    -0.137158319977E+04    0.28039E-05   -0.12377E-04  2520   0.214E-02    0.201E-02
DAV:   8    -0.137158319574E+04    0.40342E-05   -0.53077E-05  2560   0.141E-02    0.938E-03
DAV:   9    -0.137158319596E+04   -0.21663E-06   -0.78449E-06  1616   0.715E-03
  46 F= -.13715832E+04 E0= -.13715832E+04  d E =0.223114E-01
 BRION: g(F)=  0.378E-02 g(S)=  0.000E+00 retain N=  7 mean eig= 3.49
 eig:   6.613  6.613  3.682  3.682  2.733  0.943  0.155
 bond charge predicted
       N       E                     dE             d eps       ncg     rms          rms(c)
DAV:   1    -0.137158040945E+04    0.27863E-02   -0.13753E-01  1392   0.535E-01    0.614E-02
DAV:   2    -0.137158110247E+04   -0.69302E-03   -0.73049E-03  2296   0.212E-01    0.308E-02
DAV:   3    -0.137158114474E+04   -0.42268E-04   -0.56673E-04  2568   0.394E-02    0.244E-02
DAV:   4    -0.137158113790E+04    0.68422E-05   -0.51269E-05  2504   0.170E-02    0.179E-02
DAV:   5    -0.137158113039E+04    0.75108E-05   -0.31101E-05  2176   0.117E-02    0.668E-03
DAV:   6    -0.137158113162E+04   -0.12277E-05   -0.19594E-05  2208   0.837E-03    0.607E-03
DAV:   7    -0.137158113116E+04    0.45259E-06   -0.34044E-06  1136   0.501E-03
  47 F= -.13715811E+04 E0= -.13715811E+04  d E =0.206479E-02
 BRION: g(F)=  0.367E-02 g(S)=  0.000E+00 retain N=  4 mean eig= 3.42
 eig:   5.356  5.356  1.407  1.553
 bond charge predicted
       N       E                     dE             d eps       ncg     rms          rms(c)
DAV:   1    -0.137158275102E+04   -0.16194E-02   -0.23357E-01  1384   0.704E-01    0.813E-02
DAV:   2    -0.137158399700E+04   -0.12460E-02   -0.13180E-02  2304   0.284E-01    0.398E-02
DAV:   3    -0.137158408045E+04   -0.83447E-04   -0.10411E-03  2576   0.542E-02    0.328E-02
DAV:   4    -0.137158407305E+04    0.73963E-05   -0.92128E-05  2616   0.232E-02    0.258E-02
DAV:   5    -0.137158405961E+04    0.13441E-04   -0.52610E-05  2344   0.145E-02    0.983E-03
DAV:   6    -0.137158406134E+04   -0.17290E-05   -0.36111E-05  2288   0.109E-02    0.789E-03
DAV:   7    -0.137158406127E+04    0.70970E-07   -0.15622E-05  2088   0.755E-03    0.503E-03
DAV:   8    -0.137158406098E+04    0.28337E-06   -0.17028E-06  1008   0.480E-03
  48 F= -.13715841E+04 E0= -.13715841E+04  d E =-.292982E-02
 BRION: g(F)=  0.353E-02 g(S)=  0.000E+00 retain N=  5 mean eig= 3.90
 eig:   7.666  7.666  1.377  0.610  2.195
 bond charge predicted
       N       E                     dE             d eps       ncg     rms          rms(c)
DAV:   1    -0.137153818041E+04    0.45881E-01   -0.44240E+00  1336   0.293E+00    0.334E-01
DAV:   2    -0.137156000155E+04   -0.21821E-01   -0.22976E-01  2288   0.113E+00    0.163E-01
DAV:   3    -0.137156118911E+04   -0.11876E-02   -0.17218E-02  2568   0.227E-01    0.127E-01
DAV:   4    -0.137156091288E+04    0.27624E-03   -0.15719E-03  2576   0.918E-02    0.885E-02
DAV:   5    -0.137156066189E+04    0.25099E-03   -0.96951E-04  2176   0.644E-02    0.307E-02
DAV:   6    -0.137156070137E+04   -0.39484E-04   -0.57907E-04  2440   0.417E-02    0.334E-02
DAV:   7    -0.137156069889E+04    0.24845E-05   -0.14093E-04  2544   0.229E-02    0.227E-02
DAV:   8    -0.137156069335E+04    0.55431E-05   -0.63385E-05  2544   0.152E-02    0.104E-02
DAV:   9    -0.137156069370E+04   -0.34881E-06   -0.11162E-05  1912   0.805E-03    0.682E-03
DAV:  10    -0.137156069363E+04    0.70650E-07   -0.20301E-06  1056   0.484E-03
  49 F= -.13715607E+04 E0= -.13715607E+04  d E =0.233674E-01
 BRION: g(F)=  0.372E-02 g(S)=  0.000E+00 retain N=  6 mean eig= 3.85
 eig:   7.766  7.766  0.903  2.704  2.704  1.259
 bond charge predicted
       N       E                     dE             d eps       ncg     rms          rms(c)
DAV:   1    -0.137156045699E+04    0.23671E-03   -0.63029E-04  1640   0.358E-02    0.367E-03
DAV:   2    -0.137156046002E+04   -0.30275E-05   -0.32375E-05  2200   0.142E-02    0.268E-03
DAV:   3    -0.137156046000E+04    0.18495E-07   -0.10411E-06   968   0.315E-03
  50 F= -.13715605E+04 E0= -.13715605E+04  d E =0.233629E-03
 BRION: g(F)=  0.371E-02 g(S)=  0.000E+00 retain N=  6 mean eig= 3.27
 eig:   6.485  6.485  2.361  2.361  0.690  1.263
 bond charge predicted
       N       E                     dE             d eps       ncg     rms          rms(c)
DAV:   1    -0.137156259703E+04   -0.21370E-02   -0.39601E-02  1352   0.277E-01    0.316E-02
DAV:   2    -0.137156278895E+04   -0.19192E-03   -0.20313E-03  2280   0.105E-01    0.154E-02
DAV:   3    -0.137156279917E+04   -0.10216E-04   -0.15058E-04  2528   0.212E-02    0.119E-02
DAV:   4    -0.137156279651E+04    0.26529E-05   -0.11823E-05  1864   0.847E-03    0.816E-03
DAV:   5    -0.137156279433E+04    0.21880E-05   -0.11264E-05  1928   0.709E-03    0.268E-03
DAV:   6    -0.137156279447E+04   -0.13995E-06   -0.21871E-06  1088   0.436E-03
  51 F= -.13715628E+04 E0= -.13715628E+04  d E =-.233447E-02
 BRION: g(F)=  0.366E-02 g(S)=  0.000E+00 retain N=  7 mean eig= 3.77
 eig:   6.972  6.972  3.608  3.262  3.262  0.984  1.329
 bond charge predicted
       N       E                     dE             d eps       ncg     rms          rms(c)
DAV:   1    -0.137155878003E+04    0.40143E-02   -0.24148E-01  1400   0.715E-01    0.839E-02
DAV:   2    -0.137156015394E+04   -0.13739E-02   -0.14520E-02  2288   0.314E-01    0.429E-02
DAV:   3    -0.137156023914E+04   -0.85209E-04   -0.11139E-03  2608   0.564E-02    0.367E-02
DAV:   4    -0.137156022802E+04    0.11121E-04   -0.91601E-05  2616   0.240E-02    0.294E-02
DAV:   5    -0.137156020689E+04    0.21130E-04   -0.73868E-05  2240   0.171E-02    0.114E-02
DAV:   6    -0.137156021021E+04   -0.33211E-05   -0.58481E-05  2216   0.135E-02    0.108E-02
DAV:   7    -0.137156020940E+04    0.81121E-06   -0.22685E-05  2280   0.860E-03    0.703E-03
DAV:   8    -0.137156020874E+04    0.66562E-06   -0.26534E-06  1128   0.555E-03
  52 F= -.13715602E+04 E0= -.13715602E+04  d E =0.258573E-02
 BRION: g(F)=  0.385E-02 g(S)=  0.000E+00 retain N=  2 mean eig= 2.46
 eig:   3.555  1.369
 bond charge predicted
       N       E                     dE             d eps       ncg     rms          rms(c)
DAV:   1    -0.137156472244E+04   -0.45130E-02   -0.17951E+00  1368   0.189E+00    0.219E-01
DAV:   2    -0.137157402102E+04   -0.92986E-02   -0.97954E-02  2296   0.759E-01    0.107E-01
DAV:   3    -0.137157455588E+04   -0.53486E-03   -0.75292E-03  2544   0.145E-01    0.861E-02
DAV:   4    -0.137157444712E+04    0.10876E-03   -0.66869E-04  2560   0.607E-02    0.637E-02
DAV:   5    -0.137157431410E+04    0.13303E-03   -0.48401E-04  2144   0.448E-02    0.213E-02
DAV:   6    -0.137157433588E+04   -0.21786E-04   -0.31287E-04  2416   0.307E-02    0.243E-02
DAV:   7    -0.137157433439E+04    0.14887E-05   -0.73751E-05  2520   0.163E-02    0.169E-02
DAV:   8    -0.137157433091E+04    0.34837E-05   -0.27209E-05  2456   0.103E-02    0.847E-03
DAV:   9    -0.137157433017E+04    0.73841E-06   -0.58782E-06  1472   0.607E-03
  53 F= -.13715743E+04 E0= -.13715743E+04  d E =-.141214E-01
 BRION: g(F)=  0.357E-02 g(S)=  0.000E+00 retain N=  3 mean eig= 2.23
 eig:   3.310  1.686  1.686
 bond charge predicted
       N       E                     dE             d eps       ncg     rms          rms(c)
DAV:   1    -0.137158042772E+04   -0.60968E-02   -0.60856E-01  1328   0.108E+00    0.125E-01
DAV:   2    -0.137158342611E+04   -0.29984E-02   -0.31622E-02  2272   0.417E-01    0.617E-02
DAV:   3    -0.137158357786E+04   -0.15175E-03   -0.23231E-03  2584   0.856E-02    0.482E-02
DAV:   4    -0.137158353286E+04    0.44997E-04   -0.22111E-04  2560   0.345E-02    0.325E-02
DAV:   5    -0.137158350007E+04    0.32792E-04   -0.14895E-04  2176   0.242E-02    0.113E-02
DAV:   6    -0.137158350586E+04   -0.57939E-05   -0.72755E-05  2456   0.149E-02    0.121E-02
DAV:   7    -0.137158350536E+04    0.49859E-06   -0.18708E-05  2400   0.852E-03    0.759E-03
DAV:   8    -0.137158350433E+04    0.10332E-05   -0.30036E-06  1144   0.559E-03    0.404E-03
DAV:   9    -0.137158350511E+04   -0.78035E-06   -0.10411E-05  1632   0.620E-03    0.422E-03
DAV:  10    -0.137158350527E+04   -0.15421E-06   -0.96091E-07   904   0.364E-03
  54 F= -.13715835E+04 E0= -.13715835E+04  d E =-.917510E-02
 BRION: g(F)=  0.350E-02 g(S)=  0.000E+00 retain N=  4 mean eig= 2.18
 eig:   1.545  3.301  1.933  1.933
 bond charge predicted
       N       E                     dE             d eps       ncg     rms          rms(c)
DAV:   1    -0.137158996621E+04   -0.64611E-02   -0.62411E-01  1320   0.109E+00    0.126E-01
DAV:   2    -0.137159298337E+04   -0.30172E-02   -0.31754E-02  2280   0.418E-01    0.615E-02
DAV:   3    -0.137159313702E+04   -0.15365E-03   -0.23670E-03  2592   0.841E-02    0.472E-02
DAV:   4    -0.137159308825E+04    0.48764E-04   -0.21718E-04  2544   0.345E-02    0.315E-02
DAV:   5    -0.137159305496E+04    0.33292E-04   -0.14376E-04  2184   0.240E-02    0.107E-02
DAV:   6    -0.137159306037E+04   -0.54040E-05   -0.71856E-05  2456   0.148E-02    0.114E-02
DAV:   7    -0.137159306008E+04    0.28899E-06   -0.16382E-05  2360   0.809E-03    0.741E-03
DAV:   8    -0.137159305911E+04    0.96383E-06   -0.32979E-06  1168   0.550E-03
  55 F= -.13715931E+04 E0= -.13715931E+04  d E =-.955385E-02
 BRION: g(F)=  0.346E-02 g(S)=  0.000E+00 retain N=  5 mean eig= 2.30
 eig:   5.490  1.309  0.774  1.956  1.956
 bond charge predicted
       N       E                     dE             d eps       ncg     rms          rms(c)
DAV:   1    -0.137159821512E+04   -0.51550E-02   -0.27796E-01  1328   0.732E-01    0.841E-02
DAV:   2    -0.137159958014E+04   -0.13650E-02   -0.14388E-02  2280   0.281E-01    0.414E-02
DAV:   3    -0.137159965119E+04   -0.71056E-04   -0.10837E-03  2592   0.570E-02    0.321E-02
DAV:   4    -0.137159963029E+04    0.20907E-04   -0.10275E-04  2568   0.235E-02    0.215E-02
DAV:   5    -0.137159961535E+04    0.14938E-04   -0.60750E-05  2224   0.157E-02    0.771E-03
DAV:   6    -0.137159961743E+04   -0.20805E-05   -0.32063E-05  2400   0.982E-03    0.751E-03
DAV:   7    -0.137159961697E+04    0.45683E-06   -0.49021E-06  1416   0.568E-03
  56 F= -.13715996E+04 E0= -.13715996E+04  d E =-.655786E-02
 BRION: g(F)=  0.349E-02 g(S)=  0.000E+00 retain N=  5 mean eig= 2.64
 eig:   6.829  2.016  1.723  1.723  0.893
 bond charge predicted
       N       E                     dE             d eps       ncg     rms          rms(c)
DAV:   1    -0.137157497959E+04    0.24638E-01   -0.16858E+00  1320   0.179E+00    0.209E-01
DAV:   2    -0.137158319123E+04   -0.82116E-02   -0.86557E-02  2304   0.688E-01    0.102E-01
DAV:   3    -0.137158356780E+04   -0.37656E-03   -0.61509E-03  2592   0.140E-01    0.774E-02
DAV:   4    -0.137158342616E+04    0.14163E-03   -0.60767E-04  2528   0.570E-02    0.493E-02
DAV:   5    -0.137158334705E+04    0.79106E-04   -0.38932E-04  2184   0.388E-02    0.179E-02
DAV:   6    -0.137158335907E+04   -0.12019E-04   -0.16195E-04  2496   0.227E-02    0.181E-02
DAV:   7    -0.137158335817E+04    0.89892E-06   -0.45345E-05  2560   0.130E-02    0.111E-02
DAV:   8    -0.137158335674E+04    0.14343E-05   -0.15483E-05  2144   0.830E-03    0.539E-03
DAV:   9    -0.137158335683E+04   -0.88665E-07   -0.29062E-06  1152   0.524E-03
  57 F= -.13715834E+04 E0= -.13715834E+04  d E =0.162601E-01
 BRION: g(F)=  0.342E-02 g(S)=  0.000E+00 retain N=  1 mean eig= 5.45
 eig:   5.454
 bond charge predicted
       N       E                     dE             d eps       ncg     rms          rms(c)
DAV:   1    -0.137157880627E+04    0.45505E-02   -0.13562E-01  1312   0.509E-01    0.585E-02
DAV:   2    -0.137157942647E+04   -0.62020E-03   -0.65639E-03  2296   0.193E-01    0.295E-02
DAV:   3    -0.137157945237E+04   -0.25896E-04   -0.45811E-04  2584   0.400E-02    0.224E-02
DAV:   4    -0.137157944143E+04    0.10939E-04   -0.47918E-05  2360   0.159E-02    0.140E-02
DAV:   5    -0.137157943597E+04    0.54633E-05   -0.31860E-05  2128   0.112E-02    0.563E-03
DAV:   6    -0.137157943661E+04   -0.64568E-06   -0.10483E-05  1888   0.668E-03    0.491E-03
DAV:   7    -0.137157943632E+04    0.29449E-06   -0.15689E-06   992   0.451E-03
  58 F= -.13715794E+04 E0= -.13715794E+04  d E =0.392051E-02
 BRION: g(F)=  0.345E-02 g(S)=  0.000E+00 retain N=  2 mean eig= 3.57
 eig:   5.874  1.269
 bond charge predicted
       N       E                     dE             d eps       ncg     rms          rms(c)
DAV:   1    -0.137156645020E+04    0.12986E-01   -0.65584E-01  1312   0.112E+00    0.130E-01
DAV:   2    -0.137156959486E+04   -0.31447E-02   -0.33169E-02  2280   0.426E-01    0.634E-02
DAV:   3    -0.137156973626E+04   -0.14141E-03   -0.23542E-03  2584   0.882E-02    0.486E-02
DAV:   4    -0.137156967929E+04    0.56969E-04   -0.25244E-04  2528   0.360E-02    0.304E-02
DAV:   5    -0.137156965104E+04    0.28250E-04   -0.15165E-04  2200   0.243E-02    0.115E-02
DAV:   6    -0.137156965534E+04   -0.42980E-05   -0.59971E-05  2472   0.141E-02    0.107E-02
DAV:   7    -0.137156965515E+04    0.19693E-06   -0.16481E-05  2368   0.808E-03    0.642E-03
DAV:   8    -0.137156965451E+04    0.63816E-06   -0.25160E-06  1112   0.518E-03
  59 F= -.13715697E+04 E0= -.13715697E+04  d E =0.978181E-02
 BRION: g(F)=  0.345E-02 g(S)=  0.000E+00 retain N=  3 mean eig= 3.51
 eig:   7.777  1.478  1.268
 bond charge predicted
       N       E                     dE             d eps       ncg     rms          rms(c)
DAV:   1    -0.137157365361E+04   -0.39985E-02   -0.15903E-01  1320   0.550E-01    0.644E-02
DAV:   2    -0.137157441326E+04   -0.75965E-03   -0.80320E-03  2288   0.211E-01    0.303E-02
DAV:   3    -0.137157444915E+04   -0.35895E-04   -0.56519E-04  2576   0.426E-02    0.232E-02
DAV:   4    -0.137157443727E+04    0.11884E-04   -0.53909E-05  2400   0.169E-02    0.151E-02
DAV:   5    -0.137157442967E+04    0.75980E-05   -0.39605E-05  2136   0.123E-02    0.541E-03
DAV:   6    -0.137157443083E+04   -0.11621E-05   -0.14666E-05  2144   0.714E-03    0.577E-03
DAV:   7    -0.137157443043E+04    0.39984E-06   -0.15124E-06  1016   0.405E-03
  60 F= -.13715744E+04 E0= -.13715744E+04  d E =-.477592E-02
 BRION: g(F)=  0.342E-02 g(S)=  0.000E+00 retain N=  3 mean eig= 2.64
 eig:   3.851  1.271  2.802
 bond charge predicted
       N       E                     dE             d eps       ncg     rms          rms(c)
DAV:   1    -0.137157439281E+04    0.38024E-04   -0.68375E+00  1312   0.359E+00    0.415E-01
DAV:   2    -0.137160619438E+04   -0.31802E-01   -0.33542E-01  2280   0.136E+00    0.203E-01
DAV:   3    -0.137160763290E+04   -0.14385E-02   -0.23985E-02  2576   0.274E-01    0.154E-01
DAV:   4    -0.137160704765E+04    0.58525E-03   -0.25522E-03  2480   0.113E-01    0.952E-02
DAV:   5    -0.137160676585E+04    0.28180E-03   -0.14839E-03  2192   0.755E-02    0.358E-02
DAV:   6    -0.137160680715E+04   -0.41305E-04   -0.57701E-04  2504   0.428E-02    0.325E-02
DAV:   7    -0.137160680564E+04    0.15152E-05   -0.14962E-04  2544   0.244E-02    0.200E-02
DAV:   8    -0.137160680302E+04    0.26187E-05   -0.56400E-05  2568   0.152E-02    0.103E-02
DAV:   9    -0.137160680314E+04   -0.12221E-06   -0.13549E-05  2056   0.898E-03    0.646E-03
DAV:  10    -0.137160680353E+04   -0.38481E-06   -0.11232E-05  1624   0.617E-03    0.415E-03
DAV:  11    -0.137160680306E+04    0.46752E-06   -0.13858E-06  1000   0.456E-03
  61 F= -.13716068E+04 E0= -.13716068E+04  d E =-.323726E-01
 BRION: g(F)=  0.367E-02 g(S)=  0.000E+00 retain N=  1 mean eig= 6.35
 eig:   6.346
 bond charge predicted
       N       E                     dE             d eps       ncg     rms          rms(c)
DAV:   1    -0.137152480541E+04    0.81998E-01   -0.93133E+00  1312   0.420E+00    0.489E-01
DAV:   2    -0.137156879722E+04   -0.43992E-01   -0.46491E-01  2288   0.160E+00    0.238E-01
DAV:   3    -0.137157076963E+04   -0.19724E-02   -0.33065E-02  2584   0.328E-01    0.182E-01
DAV:   4    -0.137156999832E+04    0.77131E-03   -0.34112E-03  2496   0.133E-01    0.115E-01
DAV:   5    -0.137156957634E+04    0.42198E-03   -0.21140E-03  2160   0.899E-02    0.432E-02
DAV:   6    -0.137156963654E+04   -0.60203E-04   -0.84515E-04  2504   0.520E-02    0.423E-02
DAV:   7    -0.137156963119E+04    0.53501E-05   -0.25446E-04  2584   0.305E-02    0.253E-02
DAV:   8    -0.137156962540E+04    0.57923E-05   -0.86138E-05  2512   0.189E-02    0.131E-02
DAV:   9    -0.137156962602E+04   -0.62646E-06   -0.23386E-05  2312   0.112E-02    0.799E-03
DAV:  10    -0.137156962648E+04   -0.45827E-06   -0.14196E-05  1832   0.703E-03    0.461E-03
DAV:  11    -0.137156962589E+04    0.59490E-06   -0.20901E-06  1056   0.500E-03
  62 F= -.13715696E+04 E0= -.13715696E+04  d E =0.371772E-01
 BRION: g(F)=  0.338E-02 g(S)=  0.000E+00
 BRIONS problems: POTIM should be increased
 retain N=  1 mean eig=15.04
 eig:  15.042
 bond charge predicted
       N       E                     dE             d eps       ncg     rms          rms(c)
DAV:   1    -0.137152729335E+04    0.42333E-01   -0.41268E+00  1312   0.280E+00    0.323E-01
DAV:   2    -0.137154678755E+04   -0.19494E-01   -0.20534E-01  2288   0.106E+00    0.158E-01
DAV:   3    -0.137154762618E+04   -0.83864E-03   -0.14249E-02  2576   0.217E-01    0.121E-01
DAV:   4    -0.137154725850E+04    0.36768E-03   -0.15477E-03  2496   0.886E-02    0.748E-02
DAV:   5    -0.137154708586E+04    0.17264E-03   -0.95551E-04  2192   0.610E-02    0.281E-02
DAV:   6    -0.137154711363E+04   -0.27768E-04   -0.37087E-04  2520   0.348E-02    0.264E-02
DAV:   7    -0.137154711283E+04    0.79849E-06   -0.10082E-04  2576   0.197E-02    0.160E-02
DAV:   8    -0.137154711050E+04    0.23279E-05   -0.31102E-05  2464   0.118E-02    0.851E-03
DAV:   9    -0.137154711092E+04   -0.41601E-06   -0.10267E-05  1944   0.738E-03    0.455E-03
DAV:  10    -0.137154711092E+04    0.12369E-08   -0.34114E-06  1216   0.487E-03
  63 F= -.13715471E+04 E0= -.13715471E+04  d E =0.225150E-01
 BRION: g(F)=  0.366E-02 g(S)=  0.000E+00 retain N=  1 mean eig= 0.28
 eig:   0.283
 bond charge predicted
       N       E                     dE             d eps       ncg     rms          rms(c)
DAV:   1    -0.137155302585E+04   -0.59149E-02   -0.28298E+00  1312   0.231E+00    0.269E-01
DAV:   2    -0.137156645489E+04   -0.13429E-01   -0.14151E-01  2296   0.881E-01    0.131E-01
DAV:   3    -0.137156703217E+04   -0.57728E-03   -0.98156E-03  2584   0.179E-01    0.996E-02
DAV:   4    -0.137156677270E+04    0.25947E-03   -0.10325E-03  2464   0.732E-02    0.609E-02
DAV:   5    -0.137156665772E+04    0.11498E-03   -0.64629E-04  2176   0.496E-02    0.225E-02
DAV:   6    -0.137156667630E+04   -0.18576E-04   -0.24428E-04  2496   0.277E-02    0.209E-02
DAV:   7    -0.137156667602E+04    0.27521E-06   -0.63120E-05  2568   0.157E-02    0.129E-02
DAV:   8    -0.137156667445E+04    0.15665E-05   -0.20409E-05  2280   0.952E-03    0.672E-03
DAV:   9    -0.137156667472E+04   -0.26746E-06   -0.69092E-06  1704   0.613E-03
  64 F= -.13715667E+04 E0= -.13715667E+04  d E =-.195638E-01
 BRION: g(F)=  0.332E-02 g(S)=  0.000E+00 retain N=  1 mean eig= 0.01
 eig:   0.012
 bond charge predicted
       N       E                     dE             d eps       ncg     rms          rms(c)
DAV:   1    -0.137157164404E+04   -0.49696E-02   -0.28071E-01  1312   0.727E-01    0.845E-02
DAV:   2    -0.137157294685E+04   -0.13028E-02   -0.13727E-02  2280   0.277E-01    0.414E-02
DAV:   3    -0.137157300049E+04   -0.53635E-04   -0.94259E-04  2584   0.549E-02    0.313E-02
DAV:   4    -0.137157297482E+04    0.25666E-04   -0.10027E-04  2464   0.229E-02    0.196E-02
DAV:   5    -0.137157296216E+04    0.12657E-04   -0.70232E-05  2168   0.165E-02    0.720E-03
DAV:   6    -0.137157296429E+04   -0.21256E-05   -0.26809E-05  2392   0.934E-03    0.723E-03
DAV:   7    -0.137157296383E+04    0.45818E-06   -0.31508E-06  1216   0.511E-03
  65 F= -.13715730E+04 E0= -.13715730E+04  d E =-.628911E-02
 BRION: g(F)=  0.329E-02 g(S)=  0.000E+00 retain N=  2 mean eig= 0.58
 eig:   0.577  0.577
 bond charge predicted
       N       E                     dE             d eps       ncg     rms          rms(c)
DAV:   1    -0.137157720006E+04   -0.42358E-02   -0.19022E-01  1320   0.606E-01    0.698E-02
DAV:   2    -0.137157811405E+04   -0.91399E-03   -0.96387E-03  2288   0.230E-01    0.342E-02
DAV:   3    -0.137157815878E+04   -0.44727E-04   -0.70368E-04  2584   0.463E-02    0.269E-02
DAV:   4    -0.137157814462E+04    0.14154E-04   -0.70721E-05  2536   0.191E-02    0.181E-02
DAV:   5    -0.137157813357E+04    0.11053E-04   -0.45926E-05  2176   0.136E-02    0.636E-03
DAV:   6    -0.137157813529E+04   -0.17181E-05   -0.22928E-05  2368   0.843E-03    0.691E-03
DAV:   7    -0.137157813470E+04    0.58625E-06   -0.20923E-06  1080   0.472E-03
  66 F= -.13715781E+04 E0= -.13715781E+04  d E =-.517087E-02
 BRION: g(F)=  0.327E-02 g(S)=  0.000E+00 retain N=  3 mean eig= 1.19
 eig:   0.145  1.715  1.715
 bond charge predicted
       N       E                     dE             d eps       ncg     rms          rms(c)
DAV:   1    -0.137158541313E+04   -0.72778E-02   -0.12228E+00  1320   0.153E+00    0.177E-01
DAV:   2    -0.137159129007E+04   -0.58769E-02   -0.61888E-02  2288   0.584E-01    0.858E-02
DAV:   3    -0.137159158334E+04   -0.29327E-03   -0.45359E-03  2584   0.117E-01    0.665E-02
DAV:   4    -0.137159149180E+04    0.91546E-04   -0.44311E-04  2568   0.479E-02    0.445E-02
DAV:   5    -0.137159142329E+04    0.68507E-04   -0.27760E-04  2160   0.336E-02    0.152E-02
DAV:   6    -0.137159143421E+04   -0.10921E-04   -0.14263E-04  2480   0.208E-02    0.164E-02
DAV:   7    -0.137159143329E+04    0.92447E-06   -0.30797E-05  2512   0.109E-02    0.106E-02
DAV:   8    -0.137159143204E+04    0.12451E-05   -0.12678E-05  1952   0.731E-03    0.473E-03
DAV:   9    -0.137159143212E+04   -0.80414E-07   -0.18847E-06  1072   0.461E-03
  67 F= -.13715914E+04 E0= -.13715914E+04  d E =-.132974E-01
 BRION: g(F)=  0.334E-02 g(S)=  0.000E+00 retain N=  4 mean eig= 2.98
 eig:   6.236  0.769  3.123  1.779
 bond charge predicted
       N       E                     dE             d eps       ncg     rms          rms(c)
DAV:   1    -0.137157460856E+04    0.16823E-01   -0.10185E+00  1328   0.140E+00    0.161E-01
DAV:   2    -0.137157953599E+04   -0.49274E-02   -0.51867E-02  2280   0.535E-01    0.774E-02
DAV:   3    -0.137157978506E+04   -0.24906E-03   -0.38042E-03  2576   0.107E-01    0.601E-02
DAV:   4    -0.137157971235E+04    0.72710E-04   -0.35936E-04  2568   0.433E-02    0.408E-02
DAV:   5    -0.137157965288E+04    0.59463E-04   -0.23302E-04  2144   0.304E-02    0.139E-02
DAV:   6    -0.137157966183E+04   -0.89477E-05   -0.12058E-04  2480   0.189E-02    0.154E-02
DAV:   7    -0.137157966086E+04    0.97606E-06   -0.27577E-05  2456   0.102E-02    0.986E-03
DAV:   8    -0.137157965964E+04    0.12149E-05   -0.10504E-05  1856   0.685E-03    0.441E-03
DAV:   9    -0.137157965971E+04   -0.73589E-07   -0.16407E-06  1024   0.455E-03
  68 F= -.13715797E+04 E0= -.13715797E+04  d E =0.117724E-01
 BRION: g(F)=  0.334E-02 g(S)=  0.000E+00 retain N=  5 mean eig= 3.62
 eig:   5.987  1.418  2.283  2.283  6.127
 bond charge predicted
       N       E                     dE             d eps       ncg     rms          rms(c)
DAV:   1    -0.137157501446E+04    0.46452E-02   -0.13586E-01  1312   0.509E-01    0.571E-02
DAV:   2    -0.137157562824E+04   -0.61378E-03   -0.64392E-03  2232   0.191E-01    0.285E-02
DAV:   3    -0.137157565696E+04   -0.28722E-04   -0.46634E-04  2592   0.378E-02    0.219E-02
DAV:   4    -0.137157564599E+04    0.10972E-04   -0.46211E-05  2400   0.154E-02    0.141E-02
DAV:   5    -0.137157563938E+04    0.66148E-05   -0.30431E-05  2128   0.110E-02    0.486E-03
DAV:   6    -0.137157564030E+04   -0.92461E-06   -0.11644E-05  1912   0.632E-03    0.464E-03
DAV:   7    -0.137157564008E+04    0.21995E-06   -0.11526E-06   984   0.401E-03
  69 F= -.13715756E+04 E0= -.13715756E+04  d E =0.401963E-02
 BRION: g(F)=  0.336E-02 g(S)=  0.000E+00 retain N=  3 mean eig= 3.73
 eig:   5.063  4.244  1.883
 bond charge predicted
       N       E                     dE             d eps       ncg     rms          rms(c)
DAV:   1    -0.137158030987E+04   -0.46696E-02   -0.52831E-01  1336   0.102E+00    0.114E-01
DAV:   2    -0.137158280688E+04   -0.24970E-02   -0.26192E-02  2296   0.384E-01    0.553E-02
DAV:   3    -0.137158293862E+04   -0.13174E-03   -0.19376E-03  2576   0.738E-02    0.430E-02
[...]
DAV:   4    -0.137161041155E+04    0.13671E-05   -0.39375E-06  1320   0.603E-03    0.541E-03
DAV:   5    -0.137161041081E+04    0.73991E-06   -0.11147E-05  1808   0.645E-03    0.234E-03
DAV:   6    -0.137161041080E+04    0.99972E-08   -0.13752E-06  1000   0.441E-03
 281 F= -.13716104E+04 E0= -.13716104E+04  d E =-.149262E-02
 BRION: g(F)=  0.294E-02 g(S)=  0.000E+00 retain N=  5 mean eig= 3.49
 eig:   5.417  5.417  3.014  1.799  1.799
 bond charge predicted
       N       E                     dE             d eps       ncg     rms          rms(c)
DAV:   1    -0.137161815396E+04   -0.77432E-02   -0.14039E+00  1344   0.165E+00    0.192E-01
DAV:   2    -0.137162547318E+04   -0.73192E-02   -0.77558E-02  2312   0.658E-01    0.933E-02
DAV:   3    -0.137162587035E+04   -0.39718E-03   -0.58227E-03  2544   0.135E-01    0.725E-02
DAV:   4    -0.137162577910E+04    0.91250E-04   -0.58850E-04  2560   0.554E-02    0.495E-02
DAV:   5    -0.137162570936E+04    0.69740E-04   -0.31189E-04  2280   0.354E-02    0.187E-02
DAV:   6    -0.137162571782E+04   -0.84537E-05   -0.15865E-04  2424   0.225E-02    0.169E-02
DAV:   7    -0.137162571759E+04    0.22241E-06   -0.56317E-05  2464   0.144E-02    0.113E-02
DAV:   8    -0.137162571704E+04    0.55600E-06   -0.23953E-05  2408   0.946E-03    0.653E-03
DAV:   9    -0.137162571672E+04    0.32235E-06   -0.21986E-06  1112   0.497E-03
 282 F= -.13716257E+04 E0= -.13716257E+04  d E =-.153059E-01
 BRION: g(F)=  0.305E-02 g(S)=  0.000E+00 retain N=  1 mean eig= 1.84
 eig:   1.839
 bond charge predicted
       N       E                     dE             d eps       ncg     rms          rms(c)
DAV:   1    -0.137159623808E+04    0.29479E-01   -0.20683E+00  1344   0.200E+00    0.232E-01
DAV:   2    -0.137160696702E+04   -0.10729E-01   -0.11356E-01  2304   0.794E-01    0.112E-01
DAV:   3    -0.137160754623E+04   -0.57921E-03   -0.85042E-03  2560   0.163E-01    0.877E-02
DAV:   4    -0.137160740886E+04    0.13736E-03   -0.81903E-04  2568   0.658E-02    0.600E-02
DAV:   5    -0.137160729794E+04    0.11092E-03   -0.45524E-04  2216   0.427E-02    0.221E-02
DAV:   6    -0.137160731178E+04   -0.13839E-04   -0.24320E-04  2416   0.274E-02    0.214E-02
DAV:   7    -0.137160731072E+04    0.10582E-05   -0.79596E-05  2448   0.169E-02    0.141E-02
DAV:   8    -0.137160730958E+04    0.11494E-05   -0.34793E-05  2496   0.112E-02    0.761E-03
DAV:   9    -0.137160730928E+04    0.29427E-06   -0.34936E-06  1232   0.571E-03
 283 F= -.13716073E+04 E0= -.13716073E+04  d E =0.184074E-01
 BRION: g(F)=  0.300E-02 g(S)=  0.000E+00 retain N=  2 mean eig= 2.67
 eig:   0.119  5.215
 bond charge predicted
       N       E                     dE             d eps       ncg     rms          rms(c)
DAV:   1    -0.137160579691E+04    0.15127E-02   -0.13643E-02  1352   0.162E-01    0.188E-02
DAV:   2    -0.137160586498E+04   -0.68062E-04   -0.72562E-04  2288   0.638E-02    0.106E-02
DAV:   3    -0.137160586815E+04   -0.31748E-05   -0.57522E-05  2448   0.128E-02    0.755E-03
DAV:   4    -0.137160586654E+04    0.16078E-05   -0.42636E-06  1376   0.604E-03    0.476E-03
DAV:   5    -0.137160586598E+04    0.56798E-06   -0.73039E-06  1640   0.559E-03
 284 F= -.13716059E+04 E0= -.13716059E+04  d E =0.144331E-02
 BRION: g(F)=  0.299E-02 g(S)=  0.000E+00 retain N=  2 mean eig= 2.02
 eig:   0.435  3.607
 bond charge predicted
       N       E                     dE             d eps       ncg     rms          rms(c)
DAV:   1    -0.137159922351E+04    0.66430E-02   -0.18601E-01  1360   0.602E-01    0.716E-02
DAV:   2    -0.137160021566E+04   -0.99215E-03   -0.10568E-02  2304   0.246E-01    0.348E-02
DAV:   3    -0.137160027282E+04   -0.57158E-04   -0.81972E-04  2536   0.494E-02    0.279E-02
DAV:   4    -0.137160026145E+04    0.11366E-04   -0.83573E-05  2568   0.211E-02    0.196E-02
DAV:   5    -0.137160025067E+04    0.10779E-04   -0.46684E-05  2216   0.138E-02    0.745E-03
DAV:   6    -0.137160025207E+04   -0.13979E-05   -0.25877E-05  2304   0.906E-03    0.751E-03
DAV:   7    -0.137160025164E+04    0.42623E-06   -0.78413E-06  1704   0.604E-03
 285 F= -.13716003E+04 E0= -.13716003E+04  d E =0.561433E-02
 BRION: g(F)=  0.296E-02 g(S)=  0.000E+00 retain N=  3 mean eig= 1.75
 eig:   0.647  2.299  2.299
 bond charge predicted
       N       E                     dE             d eps       ncg     rms          rms(c)
DAV:   1    -0.137160135921E+04   -0.11071E-02   -0.86588E-03  1400   0.135E-01    0.182E-02
DAV:   2    -0.137160141035E+04   -0.51143E-04   -0.56901E-04  2320   0.611E-02    0.912E-03
DAV:   3    -0.137160141377E+04   -0.34196E-05   -0.48883E-05  2392   0.126E-02    0.772E-03
DAV:   4    -0.137160141294E+04    0.82813E-06   -0.27966E-06  1168   0.572E-03
 286 F= -.13716014E+04 E0= -.13716014E+04  d E =-.116130E-02
 BRION: g(F)=  0.296E-02 g(S)=  0.000E+00 retain N=  1 mean eig= 0.38
 eig:   0.382
 bond charge predicted
       N       E                     dE             d eps       ncg     rms          rms(c)
DAV:   1    -0.137160348176E+04   -0.20680E-02   -0.33071E-02  1344   0.251E-01    0.291E-02
DAV:   2    -0.137160364600E+04   -0.16424E-03   -0.17495E-03  2304   0.999E-02    0.145E-02
DAV:   3    -0.137160365526E+04   -0.92603E-05   -0.13859E-04  2576   0.201E-02    0.107E-02
DAV:   4    -0.137160365292E+04    0.23426E-05   -0.10940E-05  1832   0.867E-03    0.727E-03
DAV:   5    -0.137160365134E+04    0.15815E-05   -0.10923E-05  1920   0.686E-03    0.260E-03
DAV:   6    -0.137160365145E+04   -0.11259E-06   -0.17421E-06  1040   0.427E-03
 287 F= -.13716037E+04 E0= -.13716037E+04  d E =-.223851E-02
 BRION: g(F)=  0.293E-02 g(S)=  0.000E+00 retain N=  2 mean eig= 2.46
 eig:   0.276  4.652
 bond charge predicted
       N       E                     dE             d eps       ncg     rms          rms(c)
DAV:   1    -0.137161114023E+04   -0.74889E-02   -0.10685E+00  1344   0.143E+00    0.167E-01
DAV:   2    -0.137161662220E+04   -0.54820E-02   -0.58125E-02  2304   0.568E-01    0.806E-02
DAV:   3    -0.137161692375E+04   -0.30155E-03   -0.44034E-03  2560   0.117E-01    0.630E-02
DAV:   4    -0.137161685665E+04    0.67094E-04   -0.42643E-04  2576   0.476E-02    0.436E-02
DAV:   5    -0.137161680059E+04    0.56067E-04   -0.24519E-04  2240   0.313E-02    0.164E-02
DAV:   6    -0.137161680804E+04   -0.74513E-05   -0.12904E-04  2424   0.201E-02    0.162E-02
DAV:   7    -0.137161680737E+04    0.66531E-06   -0.43726E-05  2480   0.127E-02    0.104E-02
DAV:   8    -0.137161680664E+04    0.73816E-06   -0.18285E-05  2240   0.835E-03    0.549E-03
DAV:   9    -0.137161680645E+04    0.18568E-06   -0.14843E-06  1040   0.452E-03
 288 F= -.13716168E+04 E0= -.13716168E+04  d E =-.131550E-01
 BRION: g(F)=  0.304E-02 g(S)=  0.000E+00 retain N=  3 mean eig= 1.97
 eig:   3.775  0.341  1.790
 bond charge predicted
       N       E                     dE             d eps       ncg     rms          rms(c)
DAV:   1    -0.137162150738E+04   -0.47007E-02   -0.37495E+00  1336   0.268E+00    0.309E-01
DAV:   2    -0.137164054662E+04   -0.19039E-01   -0.20105E-01  2304   0.105E+00    0.152E-01
DAV:   3    -0.137164152382E+04   -0.97720E-03   -0.14906E-02  2560   0.215E-01    0.116E-01
DAV:   4    -0.137164124391E+04    0.27991E-03   -0.14639E-03  2536   0.881E-02    0.772E-02
DAV:   5    -0.137164106249E+04    0.18142E-03   -0.81181E-04  2272   0.574E-02    0.287E-02
DAV:   6    -0.137164108602E+04   -0.23528E-04   -0.40686E-04  2456   0.360E-02    0.261E-02
DAV:   7    -0.137164108578E+04    0.23824E-06   -0.12077E-04  2480   0.215E-02    0.178E-02
DAV:   8    -0.137164108416E+04    0.16239E-05   -0.56273E-05  2544   0.142E-02    0.955E-03
DAV:   9    -0.137164108382E+04    0.33309E-06   -0.76574E-06  1688   0.728E-03
 289 F= -.13716411E+04 E0= -.13716411E+04  d E =-.242774E-01
 BRION: g(F)=  0.318E-02 g(S)=  0.000E+00 retain N=  2 mean eig= 1.65
 eig:   0.479  2.821
 bond charge predicted
       N       E                     dE             d eps       ncg     rms          rms(c)
DAV:   1    -0.137152008254E+04    0.12100E+00   -0.14095E+01  1336   0.520E+00    0.603E-01
DAV:   2    -0.137159212208E+04   -0.72040E-01   -0.76249E-01  2304   0.205E+00    0.293E-01
DAV:   3    -0.137159593216E+04   -0.38101E-02   -0.56983E-02  2568   0.420E-01    0.231E-01
DAV:   4    -0.137159498896E+04    0.94320E-03   -0.54425E-03  2568   0.170E-01    0.159E-01
DAV:   5    -0.137159415572E+04    0.83324E-03   -0.32204E-03  2208   0.115E-01    0.591E-02
DAV:   6    -0.137159426127E+04   -0.10554E-03   -0.18528E-03  2416   0.755E-02    0.613E-02
DAV:   7    -0.137159424573E+04    0.15540E-04   -0.55850E-04  2512   0.452E-02    0.407E-02
DAV:   8    -0.137159423318E+04    0.12541E-04   -0.26247E-04  2488   0.300E-02    0.194E-02
DAV:   9    -0.137159423362E+04   -0.43582E-06   -0.41696E-05  2480   0.147E-02    0.137E-02
DAV:  10    -0.137159423328E+04    0.33747E-06   -0.16537E-05  2168   0.872E-03    0.580E-03
DAV:  11    -0.137159423324E+04    0.45649E-07   -0.29420E-06  1136   0.568E-03
 290 F= -.13715942E+04 E0= -.13715942E+04  d E =0.468506E-01
 BRION: g(F)=  0.294E-02 g(S)=  0.000E+00 retain N=  2 mean eig= 6.98
 eig:   6.978  6.978
 bond charge predicted
       N       E                     dE             d eps       ncg     rms          rms(c)
DAV:   1    -0.137158255724E+04    0.11676E-01   -0.57671E-01  1320   0.104E+00    0.120E-01
DAV:   2    -0.137158536235E+04   -0.28051E-02   -0.29518E-02  2304   0.403E-01    0.586E-02
DAV:   3    -0.137158549763E+04   -0.13528E-03   -0.21076E-03  2576   0.801E-02    0.450E-02
DAV:   4    -0.137158545244E+04    0.45198E-04   -0.20424E-04  2568   0.327E-02    0.296E-02
DAV:   5    -0.137158542338E+04    0.29059E-04   -0.13564E-04  2192   0.230E-02    0.990E-03
DAV:   6    -0.137158542850E+04   -0.51195E-05   -0.61228E-05  2456   0.137E-02    0.107E-02
DAV:   7    -0.137158542824E+04    0.25157E-06   -0.13059E-05  2216   0.743E-03    0.675E-03
DAV:   8    -0.137158542744E+04    0.80241E-06   -0.33786E-06  1192   0.532E-03
 291 F= -.13715854E+04 E0= -.13715854E+04  d E =0.880580E-02
 BRION: g(F)=  0.302E-02 g(S)=  0.000E+00 retain N=  2 mean eig= 5.83
 eig:   5.789  5.868
 bond charge predicted
       N       E                     dE             d eps       ncg     rms          rms(c)
DAV:   1    -0.137159237557E+04   -0.69473E-02   -0.16195E+00  1328   0.176E+00    0.202E-01
DAV:   2    -0.137160034298E+04   -0.79674E-02   -0.84131E-02  2296   0.681E-01    0.978E-02
DAV:   3    -0.137160076691E+04   -0.42393E-03   -0.63084E-03  2584   0.136E-01    0.757E-02
DAV:   4    -0.137160065288E+04    0.11403E-03   -0.55532E-04  2568   0.550E-02    0.515E-02
DAV:   5    -0.137160056324E+04    0.89640E-04   -0.36348E-04  2168   0.378E-02    0.176E-02
DAV:   6    -0.137160057706E+04   -0.13820E-04   -0.18800E-04  2488   0.235E-02    0.191E-02
DAV:   7    -0.137160057606E+04    0.99392E-06   -0.45613E-05  2544   0.131E-02    0.125E-02
DAV:   8    -0.137160057420E+04    0.18626E-05   -0.18888E-05  2248   0.861E-03    0.572E-03
DAV:   9    -0.137160057428E+04   -0.74215E-07   -0.25748E-06  1160   0.506E-03
 292 F= -.13716006E+04 E0= -.13716006E+04  d E =-.151468E-01
 BRION: g(F)=  0.298E-02 g(S)=  0.000E+00 retain N=  2 mean eig= 2.93
 eig:   2.931  2.931
 bond charge predicted
       N       E                     dE             d eps       ncg     rms          rms(c)
DAV:   1    -0.137160459267E+04   -0.40185E-02   -0.39225E+00  1320   0.272E+00    0.312E-01
DAV:   2    -0.137162367310E+04   -0.19080E-01   -0.20092E-01  2288   0.105E+00    0.154E-01
DAV:   3    -0.137162459709E+04   -0.92400E-03   -0.14576E-02  2576   0.212E-01    0.117E-01
DAV:   4    -0.137162427728E+04    0.31982E-03   -0.14479E-03  2520   0.867E-02    0.749E-02
DAV:   5    -0.137162410312E+04    0.17416E-03   -0.84137E-04  2216   0.569E-02    0.265E-02
DAV:   6    -0.137162413056E+04   -0.27436E-04   -0.37087E-04  2496   0.337E-02    0.248E-02
DAV:   7    -0.137162413029E+04    0.26065E-06   -0.92288E-05  2544   0.191E-02    0.162E-02
DAV:   8    -0.137162412838E+04    0.19106E-05   -0.38780E-05  2552   0.124E-02    0.814E-03
DAV:   9    -0.137162412837E+04    0.13184E-07   -0.57185E-06  1464   0.695E-03
 293 F= -.13716241E+04 E0= -.13716241E+04  d E =-.235541E-01
 BRION: g(F)=  0.307E-02 g(S)=  0.000E+00 retain N=  1 mean eig= 6.92
 eig:   6.921
 bond charge predicted
       N       E                     dE             d eps       ncg     rms          rms(c)
DAV:   1    -0.137155820843E+04    0.65920E-01   -0.69380E+00  1320   0.363E+00    0.417E-01
DAV:   2    -0.137159219872E+04   -0.33990E-01   -0.35866E-01  2296   0.140E+00    0.204E-01
DAV:   3    -0.137159388402E+04   -0.16853E-02   -0.26099E-02  2584   0.283E-01    0.158E-01
DAV:   4    -0.137159337728E+04    0.50673E-03   -0.24908E-03  2560   0.114E-01    0.106E-01
DAV:   5    -0.137159300185E+04    0.37543E-03   -0.15347E-03  2184   0.778E-02    0.377E-02
DAV:   6    -0.137159305450E+04   -0.52647E-04   -0.77081E-04  2464   0.484E-02    0.393E-02
DAV:   7    -0.137159304874E+04    0.57630E-05   -0.21140E-04  2544   0.277E-02    0.250E-02
DAV:   8    -0.137159304312E+04    0.56186E-05   -0.88209E-05  2544   0.181E-02    0.122E-02
DAV:   9    -0.137159304365E+04   -0.53081E-06   -0.15569E-05  2080   0.950E-03    0.832E-03
DAV:  10    -0.137159304370E+04   -0.45940E-07   -0.83173E-06  1592   0.612E-03
 294 F= -.13715930E+04 E0= -.13715930E+04  d E =0.310847E-01
 BRION: g(F)=  0.299E-02 g(S)=  0.000E+00 retain N=  2 mean eig= 7.53
 eig:   7.526  7.526
 bond charge predicted
       N       E                     dE             d eps       ncg     rms          rms(c)
DAV:   1    -0.137153972077E+04    0.53323E-01   -0.54123E+00  1320   0.320E+00    0.366E-01
DAV:   2    -0.137156593174E+04   -0.26211E-01   -0.27602E-01  2304   0.123E+00    0.180E-01
DAV:   3    -0.137156716424E+04   -0.12325E-02   -0.19650E-02  2576   0.245E-01    0.139E-01
DAV:   4    -0.137156673294E+04    0.43130E-03   -0.19220E-03  2536   0.998E-02    0.909E-02
DAV:   5    -0.137156645349E+04    0.27945E-03   -0.12552E-03  2184   0.693E-02    0.313E-02
DAV:   6    -0.137156649866E+04   -0.45170E-04   -0.56877E-04  2488   0.413E-02    0.333E-02
DAV:   7    -0.137156649573E+04    0.29248E-05   -0.14339E-04  2576   0.231E-02    0.208E-02
DAV:   8    -0.137156649071E+04    0.50271E-05   -0.54698E-05  2504   0.150E-02    0.101E-02
DAV:   9    -0.137156649160E+04   -0.88960E-06   -0.14352E-05  2088   0.882E-03    0.645E-03
DAV:  10    -0.137156649168E+04   -0.85915E-07   -0.58696E-06  1472   0.524E-03
 295 F= -.13715665E+04 E0= -.13715665E+04  d E =0.265520E-01
 BRION: g(F)=  0.311E-02 g(S)=  0.000E+00 retain N=  2 mean eig= 3.15
 eig:   3.971  2.339
 bond charge predicted
       N       E                     dE             d eps       ncg     rms          rms(c)
DAV:   1    -0.137156182824E+04    0.46634E-02   -0.70204E+00  1320   0.365E+00    0.419E-01
DAV:   2    -0.137159624753E+04   -0.34419E-01   -0.36266E-01  2288   0.141E+00    0.205E-01
DAV:   3    -0.137159800524E+04   -0.17577E-02   -0.26749E-02  2576   0.283E-01    0.159E-01
DAV:   4    -0.137159747955E+04    0.52569E-03   -0.24727E-03  2552   0.114E-01    0.106E-01
DAV:   5    -0.137159710352E+04    0.37602E-03   -0.15689E-03  2176   0.779E-02    0.360E-02
DAV:   6    -0.137159716194E+04   -0.58413E-04   -0.78007E-04  2496   0.477E-02    0.376E-02
DAV:   7    -0.137159715919E+04    0.27440E-05   -0.18571E-04  2552   0.266E-02    0.246E-02
DAV:   8    -0.137159715256E+04    0.66358E-05   -0.77715E-05  2576   0.174E-02    0.117E-02
DAV:   9    -0.137159715349E+04   -0.92911E-06   -0.16548E-05  2192   0.963E-03    0.790E-03
DAV:  10    -0.137159715356E+04   -0.75932E-07   -0.69769E-06  1544   0.568E-03
 296 F= -.13715972E+04 E0= -.13715972E+04  d E =-.306619E-01
 BRION: g(F)=  0.302E-02 g(S)=  0.000E+00 retain N=  2 mean eig= 1.04
 eig:   1.468  0.616
 bond charge predicted
       N       E                     dE             d eps       ncg     rms          rms(c)
DAV:   1    -0.137160078361E+04   -0.36301E-02   -0.15132E-01  1312   0.533E-01    0.613E-02
DAV:   2    -0.137160150705E+04   -0.72344E-03   -0.76144E-03  2296   0.205E-01    0.304E-02
DAV:   3    -0.137160153838E+04   -0.31328E-04   -0.52855E-04  2584   0.407E-02    0.231E-02
DAV:   4    -0.137160152494E+04    0.13438E-04   -0.56671E-05  2496   0.170E-02    0.145E-02
DAV:   5    -0.137160151835E+04    0.65920E-05   -0.35668E-05  2168   0.117E-02    0.522E-03
DAV:   6    -0.137160151949E+04   -0.11377E-05   -0.14008E-05  2120   0.679E-03    0.490E-03
DAV:   7    -0.137160151927E+04    0.21436E-06   -0.13539E-06  1040   0.394E-03
 297 F= -.13716015E+04 E0= -.13716015E+04  d E =-.436571E-02
 BRION: g(F)=  0.292E-02 g(S)=  0.000E+00 retain N=  2 mean eig= 1.69
 eig:   3.038  0.335
 bond charge predicted
       N       E                     dE             d eps       ncg     rms          rms(c)
DAV:   1    -0.137160776084E+04   -0.62414E-02   -0.23542E+00  1320   0.211E+00    0.241E-01
DAV:   2    -0.137161924741E+04   -0.11487E-01   -0.12097E-01  2296   0.814E-01    0.119E-01
DAV:   3    -0.137161981256E+04   -0.56515E-03   -0.87925E-03  2584   0.164E-01    0.913E-02
DAV:   4    -0.137161962986E+04    0.18270E-03   -0.84971E-04  2552   0.668E-02    0.597E-02
DAV:   5    -0.137161951693E+04    0.11293E-03   -0.50646E-04  2208   0.440E-02    0.211E-02
DAV:   6    -0.137161953392E+04   -0.16987E-04   -0.23336E-04  2496   0.266E-02    0.204E-02
DAV:   7    -0.137161953323E+04    0.68634E-06   -0.62196E-05  2520   0.154E-02    0.131E-02
DAV:   8    -0.137161953188E+04    0.13498E-05   -0.25580E-05  2448   0.100E-02    0.672E-03
DAV:   9    -0.137161953181E+04    0.73982E-07   -0.31863E-06  1240   0.558E-03
 298 F= -.13716195E+04 E0= -.13716195E+04  d E =-.180125E-01
 BRION: g(F)=  0.304E-02 g(S)=  0.000E+00 retain N=  1 mean eig= 6.82
 eig:   6.817
 bond charge predicted
       N       E                     dE             d eps       ncg     rms          rms(c)
DAV:   1    -0.137155329529E+04    0.66237E-01   -0.71160E+00  1320   0.367E+00    0.421E-01
DAV:   2    -0.137158805139E+04   -0.34756E-01   -0.36616E-01  2296   0.142E+00    0.206E-01
DAV:   3    -0.137158974567E+04   -0.16943E-02   -0.26420E-02  2592   0.285E-01    0.160E-01
DAV:   4    -0.137158920957E+04    0.53611E-03   -0.24986E-03  2560   0.115E-01    0.106E-01
DAV:   5    -0.137158882073E+04    0.38884E-03   -0.16038E-03  2184   0.790E-02    0.372E-02
DAV:   6    -0.137158887866E+04   -0.57930E-04   -0.78901E-04  2480   0.488E-02    0.396E-02
DAV:   7    -0.137158887283E+04    0.58288E-05   -0.20408E-04  2576   0.274E-02    0.251E-02
DAV:   8    -0.137158886638E+04    0.64514E-05   -0.83057E-05  2544   0.178E-02    0.120E-02
DAV:   9    -0.137158886720E+04   -0.82448E-06   -0.16568E-05  2144   0.968E-03    0.800E-03
DAV:  10    -0.137158886734E+04   -0.14246E-06   -0.74703E-06  1608   0.577E-03
 299 F= -.13715889E+04 E0= -.13715889E+04  d E =0.306645E-01
 BRION: g(F)=  0.296E-02 g(S)=  0.000E+00 retain N=  1 mean eig= 7.41
 eig:   7.413
 bond charge predicted
       N       E                     dE             d eps       ncg     rms          rms(c)
DAV:   1    -0.137159381563E+04   -0.49484E-02   -0.34159E-01  1344   0.815E-01    0.973E-02
DAV:   2    -0.137159554344E+04   -0.17278E-02   -0.18282E-02  2280   0.320E-01    0.477E-02
DAV:   3    -0.137159563252E+04   -0.89081E-04   -0.13810E-03  2568   0.636E-02    0.373E-02
DAV:   4    -0.137159560188E+04    0.30643E-04   -0.13527E-04  2520   0.270E-02    0.241E-02
DAV:   5    -0.137159558288E+04    0.19002E-04   -0.84328E-05  2152   0.189E-02    0.830E-03
DAV:   6    -0.137159558628E+04   -0.34043E-05   -0.46295E-05  2432   0.118E-02    0.894E-03
DAV:   7    -0.137159558584E+04    0.44152E-06   -0.76645E-06  1720   0.642E-03
 300 F= -.13715956E+04 E0= -.13715956E+04  d E =-.671850E-02
 BRION: g(F)=  0.303E-02 g(S)=  0.000E+00 retain N=  1 mean eig= 0.35
 eig:   0.346
