unknown system                          
           1
    12.965200    0.000000    0.000000
     0.000000   12.965000    0.000000
     0.000000    0.000000   12.965000
   O    La   Zr   Li   Al
  96  24  16  53   1
Direct configuration=     1
   0.09688510  0.19992335  0.27897522
   0.89714453  0.80505966  0.71124274
   0.39588257  0.80702044  0.76993095
   0.60375752  0.18914543  0.21856338
   0.89924854  0.69082735  0.22591180
   0.09947833  0.30884501  0.78765747
   0.59503891  0.29614164  0.72098502
   0.39799591  0.68816980  0.27729938
   0.27461668  0.09381392  0.19391141
   0.72559016  0.89985997  0.81109212
   0.78738559  0.40323257  0.80103072
   0.21383394  0.59702106  0.19178132
   0.20927253  0.90852072  0.70198957
   0.79095051  0.10102494  0.30134713
   0.72235176  0.59683650  0.30460928
   0.28220669  0.39580908  0.68569629
   0.19516824  0.28652578  0.09500061
   0.80733070  0.71525906  0.89600303
   0.79954655  0.78084501  0.40531038
   0.18508661  0.22402711  0.59789563
   0.70472981  0.21898405  0.90204834
   0.30665949  0.78496692  0.10656238
   0.28946787  0.72088906  0.59793656
   0.69451245  0.28526973  0.39534297
   0.95159043  0.35231783  0.97190872
   0.05536933  0.65794076  0.03116681
   0.56197258  0.64744904  0.46541481
   0.45151566  0.34465803  0.52853889
   0.44154985  0.14504630  0.03666091
   0.54141145  0.84706744  0.96869628
   0.06460051  0.85540384  0.52586064
   0.94475723  0.15211498  0.47384179
   0.84771550  0.53120956  0.05411286
   0.15168274  0.46856320  0.95556822
   0.14897649  0.03692407  0.43592424
   0.84933351  0.96898399  0.55394225
   0.64803717  0.46093216  0.56043220
   0.35225784  0.51912593  0.44148548
   0.34898717  0.96553613  0.93506067
   0.65172251  0.02300598  0.04989777
   0.03333559  0.45403418  0.15333958
   0.96706298  0.55500504  0.85181614
   0.53440823  0.06049579  0.84934036
   0.46869126  0.94784280  0.15322876
   0.96465015  0.94188425  0.35512865
   0.03384591  0.05507532  0.65074677
   0.46803055  0.55927843  0.64710155
   0.53731753  0.45165887  0.34535109
   0.60165591  0.68609516  0.76675719
   0.40261765  0.30315841  0.22546011
   0.90331769  0.30601528  0.28176067
   0.09286908  0.69666767  0.71774857
   0.39657407  0.19322619  0.71223272
   0.59896986  0.80133230  0.28722762
   0.09708175  0.79569728  0.21250609
   0.90159390  0.20200002  0.78411588
   0.79155883  0.60056528  0.69563391
   0.21284708  0.39623121  0.29833999
   0.27872528  0.89774960  0.30495124
   0.71751306  0.09910426  0.70136196
   0.72097813  0.40141062  0.19706444
   0.27457494  0.60083849  0.79726691
   0.20669819  0.09739357  0.79709465
   0.77996451  0.90103759  0.19334854
   0.69789695  0.78357367  0.59796247
   0.29561896  0.21423997  0.39897197
   0.30502661  0.26974138  0.89561021
   0.69282639  0.72099680  0.10441741
   0.18884204  0.71875712  0.40060418
   0.80151893  0.28289533  0.59755600
   0.80928263  0.21683154  0.09783441
   0.19893871  0.78354148  0.90359000
   0.44734836  0.85225402  0.46347643
   0.55675823  0.15185175  0.52781043
   0.06101024  0.15144204  0.97593748
   0.94603536  0.85394372  0.01566382
   0.94832602  0.65412986  0.53007699
   0.05080106  0.35260863  0.46558301
   0.55879914  0.35376146  0.03381569
   0.44023891  0.64959217  0.95655194
   0.35247924  0.03327245  0.54954891
   0.65642297  0.96980984  0.44384738
   0.65749221  0.53460900  0.95179093
   0.35431277  0.47899673  0.06141999
   0.15072172  0.95827768  0.04452919
   0.85212538  0.03628626  0.94473788
   0.84807096  0.46314737  0.45874189
   0.15214728  0.53246253  0.55905757
   0.53591152  0.94858598  0.64433626
   0.46536718  0.05216274  0.34548937
   0.02249883  0.55670381  0.35204125
   0.97001843  0.44271410  0.65164237
   0.47826666  0.44666418  0.85118568
   0.53491859  0.55940609  0.15197843
   0.96979256  0.05292383  0.14851023
   0.04234848  0.95628713  0.83958690
   0.11987778  0.99460737  0.24717194
   0.86914470  0.99920279  0.74792232
   0.38002907  0.00145844  0.74628927
   0.63039298  0.00006991  0.24678615
   0.87791759  0.50445271  0.24669939
   0.12590838  0.49697321  0.75435397
   0.62278868  0.50035522  0.74811358
   0.37345218  0.50022920  0.24910296
   0.25245838  0.12737329  0.00289878
   0.75098846  0.87157157  0.99979584
   0.74699477  0.38057493  0.00375894
   0.25433621  0.62314907  0.99867400
   0.25081619  0.87084635  0.49459972
   0.75411737  0.13016539  0.49489890
   0.74948034  0.62172249  0.49955660
   0.24962043  0.37561510  0.49596298
   0.00194586  0.25312413  0.12199932
   0.99506751  0.74436928  0.87659066
   0.99950389  0.74939563  0.37513856
   0.00266443  0.25331770  0.62107388
   0.49455600  0.25428407  0.88531972
   0.50080484  0.75010203  0.12745489
   0.49724467  0.74773833  0.62383363
   0.50235788  0.25081618  0.36843756
   0.99966798  0.00363116  0.99946797
   0.50253960  0.00025012  0.49580506
   0.00492348  0.50571510  0.50085698
   0.50311861  0.50343913  0.99928020
   0.75121759  0.24923129  0.24720337
   0.24685528  0.74930186  0.74989105
   0.74580417  0.74991315  0.75056582
   0.25300216  0.25044063  0.24436346
   0.24943033  0.25400959  0.74516510
   0.75294007  0.75205153  0.25094391
   0.24922916  0.74220845  0.25464254
   0.74840894  0.25264852  0.74914934
   0.49869618  0.50008822  0.49885704
   0.99833349  0.50513095  0.00446941
   0.50054078  0.99856212  0.99849596
   0.00298742  0.99959512  0.49607784
   0.93267772  0.65912083  0.66970058
   0.85815716  0.18264526  0.93159561
   0.12915029  0.67656349  0.57421797
   0.56910433  0.14079329  0.67707923
   0.82747833  0.42725413  0.61709795
   0.59150900  0.30590662  0.57438341
   0.82818780  0.07368836  0.11632955
   0.41484231  0.58006361  0.81718717
   0.11623189  0.81144547  0.06838024
   0.17555338  0.43329094  0.12562554
   0.68174699  0.44149960  0.34502282
   0.32640876  0.93060293  0.16701690
   0.32823029  0.53640171  0.66541567
   0.68469337  0.07598398  0.87236987
   0.67610455  0.57485918  0.13908668
   0.93474940  0.34782114  0.82996013
   0.64624391  0.82064934  0.43179685
   0.06366158  0.34923941  0.32052150
   0.68850949  0.92812163  0.58937627
   0.80995391  0.92345672  0.41217292
   0.17941557  0.92505321  0.89426496
   0.13334570  0.18641119  0.41923942
   0.07147465  0.63494532  0.17286197
   0.39865597  0.18195368  0.56388911
   0.81492747  0.56822075  0.87681304
   0.40051873  0.82011818  0.91282306
   0.57933616  0.60310981  0.31356838
   0.31570944  0.06848365  0.36896538
   0.90468932  0.32792557  0.42404305
   0.11708926  0.32630477  0.93544560
   0.42606015  0.90592383  0.31599899
   0.84412361  0.82074633  0.56457356
   0.03757600  0.18702162  0.84226934
   0.88498448  0.50220359  0.74817385
   0.14149290  0.51893401  0.29017590
   0.95295568  0.17106293  0.33067426
   0.69106823  0.15809556  0.03503528
   0.57906417  0.42419758  0.19855618
   0.50010409  0.25290242  0.12368866
   0.75591477  0.64004027  0.00708030
   0.42269378  0.08953744  0.19291733
   0.60962099  0.96537122  0.76333505
   0.26693745  0.62475895  0.48188839
   0.22751257  0.10261718  0.54050716
   0.53943174  0.72992759  0.88321214
   0.88180542  0.98643246  0.25131964
   0.02868428  0.81072090  0.65228231
   0.48190300  0.73878997  0.38162179
   0.44268992  0.33589532  0.67551646
   0.26598352  0.87301971  0.00943466
   0.96071292  0.76561704  0.12565202
   0.74055057  0.37085243  0.49648752
   0.28379834  0.37763177  0.98942408
   0.12294453  0.00706909  0.73898940
Direct configuration=     2
   0.09695796  0.19960985  0.27884944
   0.89714420  0.80513202  0.71122154
   0.39575274  0.80732098  0.76972252
   0.60388688  0.18922466  0.21812663
   0.89925865  0.69084933  0.22598297
   0.09947183  0.30881063  0.78756551
   0.59515001  0.29629374  0.72116484
   0.39807995  0.68803481  0.27728646
   0.27478090  0.09383746  0.19393061
   0.72550795  0.89982274  0.81109453
   0.78748702  0.40315006  0.80101665
   0.21381561  0.59704672  0.19185345
   0.20927735  0.90832138  0.70175056
   0.79102490  0.10107941  0.30142867
   0.72217568  0.59671571  0.30443273
   0.28251379  0.39585932  0.68574801
   0.19512548  0.28651138  0.09499461
   0.80719849  0.71533095  0.89613686
   0.79957958  0.78088913  0.40528772
   0.18518508  0.22403328  0.59794935
   0.70443732  0.21904491  0.90216200
   0.30670764  0.78493487  0.10658730
   0.28953162  0.72088560  0.59793556
   0.69443000  0.28512659  0.39517129
   0.95154561  0.35240948  0.97186560
   0.05542131  0.65793480  0.03121785
   0.56188788  0.64730207  0.46530044
   0.45136731  0.34463867  0.52856399
   0.44179098  0.14503423  0.03668127
   0.54172413  0.84703944  0.96880158
   0.06434330  0.85534229  0.52589908
   0.94495466  0.15222573  0.47371084
   0.84770852  0.53127280  0.05413754
   0.15162135  0.46852531  0.95546601
   0.14911505  0.03678968  0.43609101
   0.84932260  0.96914313  0.55387140
   0.64810571  0.46099158  0.56034342
   0.35213990  0.51904945  0.44149994
   0.34913231  0.96557408  0.93515892
   0.65196623  0.02321501  0.04971134
   0.03329089  0.45394486  0.15333595
   0.96711254  0.55515906  0.85183372
   0.53437382  0.06049703  0.84932190
   0.46883215  0.94787375  0.15323937
   0.96470991  0.94214422  0.35495671
   0.03369994  0.05509090  0.65071619
   0.46803292  0.55903361  0.64712173
   0.53707823  0.45138160  0.34525709
   0.60163206  0.68614211  0.76680927
   0.40267599  0.30311092  0.22530831
   0.90337148  0.30592940  0.28165626
   0.09290759  0.69682049  0.71777494
   0.39671116  0.19338053  0.71250358
   0.59898400  0.80147671  0.28722469
   0.09712950  0.79573375  0.21255617
   0.90152150  0.20172678  0.78413632
   0.79162283  0.60061257  0.69569054
   0.21279117  0.39622077  0.29820301
   0.27885416  0.89785745  0.30481924
   0.71742237  0.09913992  0.70142074
   0.72095575  0.40145377  0.19708083
   0.27463438  0.60088296  0.79720777
   0.20663013  0.09729057  0.79701997
   0.77993287  0.90100474  0.19330471
   0.69776926  0.78348739  0.59792538
   0.29562958  0.21434905  0.39888726
   0.30506587  0.26962735  0.89570666
   0.69272899  0.72079396  0.10454101
   0.18894267  0.71896510  0.40066347
   0.80150009  0.28283560  0.59756365
   0.80910365  0.21693397  0.09767331
   0.19903033  0.78352774  0.90360000
   0.44736032  0.85238238  0.46342532
   0.55668113  0.15203592  0.52811293
   0.06089444  0.15148438  0.97583406
   0.94621481  0.85387253  0.01576083
   0.94830526  0.65406078  0.53005810
   0.05110240  0.35259193  0.46553810
   0.55894274  0.35385043  0.03419617
   0.44028004  0.64951664  0.95660060
   0.35259956  0.03343839  0.54971569
   0.65638478  0.96993060  0.44388306
   0.65744668  0.53452947  0.95139140
   0.35427353  0.47890109  0.06138932
   0.15081788  0.95839405  0.04471280
   0.85216428  0.03609060  0.94463874
   0.84828275  0.46300126  0.45864043
   0.15219500  0.53252626  0.55919630
   0.53592308  0.94858417  0.64437021
   0.46556650  0.05245312  0.34556672
   0.02261325  0.55684649  0.35205557
   0.97008891  0.44267143  0.65162128
   0.47825485  0.44644775  0.85129919
   0.53491503  0.55914982  0.15198845
   0.96957781  0.05307014  0.14839289
   0.04242890  0.95622876  0.83958844
   0.11991844  0.99474571  0.24716090
   0.86909342  0.99932758  0.74796397
   0.38004434  0.00149676  0.74631329
   0.63039941  0.00013825  0.24680049
   0.87804818  0.50439343  0.24687075
   0.12591122  0.49693889  0.75438022
   0.62290067  0.50032344  0.74815477
   0.37349681  0.50014492  0.24906212
   0.25253552  0.12737685  0.00283806
   0.75101609  0.87147702  0.99977610
   0.74715980  0.38063703  0.00366364
   0.25437152  0.62308146  0.99867481
   0.25086898  0.87096732  0.49459612
   0.75406107  0.13024471  0.49504538
   0.74945124  0.62164842  0.49956726
   0.24957102  0.37545034  0.49596024
   0.00191638  0.25304892  0.12192382
   0.99507397  0.74441756  0.87662742
   0.99951724  0.74944735  0.37514556
   0.00264876  0.25330697  0.62113216
   0.49457651  0.25441177  0.88505122
   0.50082881  0.75007533  0.12750867
   0.49725274  0.74764326  0.62383273
   0.50237537  0.25075546  0.36840237
   0.99987937  0.00375560  0.99941938
   0.50252417  0.00036129  0.49594309
   0.00487588  0.50561329  0.50088264
   0.50312940  0.50334213  0.99921428
   0.75132292  0.24925795  0.24716228
   0.24691090  0.74931430  0.74990239
   0.74562300  0.74984475  0.75038609
   0.25297214  0.25036414  0.24425275
   0.24943712  0.25386362  0.74529473
   0.75289496  0.75203909  0.25104340
   0.24936615  0.74235275  0.25460593
   0.74843398  0.25266264  0.74918348
   0.49883927  0.50006693  0.49896834
   0.99835172  0.50510929  0.00446168
   0.50062941  0.99854458  0.99844642
   0.00294622  0.99973947  0.49616645
   0.93276897  0.65929019  0.66969559
   0.85790771  0.18236821  0.93177023
   0.12902006  0.67673885  0.57417582
   0.56909063  0.14094518  0.67737878
   0.82743468  0.42720490  0.61699363
   0.59106522  0.30598910  0.57475437
   0.82781592  0.07372967  0.11547939
   0.41496359  0.57990122  0.81715658
   0.11630238  0.81146797  0.06838978
   0.17552161  0.43326772  0.12587297
   0.68142372  0.44140381  0.34435635
   0.32637149  0.93104219  0.16691216
   0.32816152  0.53662856  0.66525503
   0.68456877  0.07602271  0.87284221
   0.67625322  0.57443148  0.14003827
   0.93488993  0.34745496  0.83005244
   0.64624161  0.82071109  0.43183097
   0.06383927  0.34888237  0.32049455
   0.68828849  0.92800013  0.58945639
   0.80984412  0.92358459  0.41213766
   0.17940411  0.92501794  0.89426103
   0.13286802  0.18610454  0.41923389
   0.07148905  0.63503335  0.17295792
   0.39915350  0.18243541  0.56445542
   0.81499955  0.56841024  0.87685333
   0.40064578  0.82010872  0.91254621
   0.57911400  0.60262043  0.31351481
   0.31587268  0.06884362  0.36881153
   0.90473041  0.32747296  0.42398137
   0.11681810  0.32616365  0.93540412
   0.42614160  0.90600462  0.31600870
   0.84447950  0.82085684  0.56453060
   0.03776081  0.18672494  0.84205958
   0.88502874  0.50210818  0.74823394
   0.14151097  0.51891663  0.29024268
   0.95244377  0.17072436  0.33056671
   0.68989922  0.15879964  0.03572788
   0.57901386  0.42346875  0.19773505
   0.49996156  0.25283917  0.12354667
   0.75549982  0.63982024  0.00713851
   0.42259279  0.08943648  0.19263736
   0.60955368  0.96536426  0.76344098
   0.26681779  0.62466178  0.48189755
   0.22785134  0.10287185  0.54030567
   0.54000228  0.72957003  0.88373868
   0.88174106  0.98654794  0.25108653
   0.02891813  0.81106940  0.65259001
   0.48211088  0.73884428  0.38150210
   0.44185925  0.33687683  0.67552227
   0.26611797  0.87305725  0.00944016
   0.96079049  0.76566444  0.12577015
   0.74045045  0.37083568  0.49628288
   0.28363624  0.37745116  0.98951723
   0.12295643  0.00723865  0.73907343
Direct configuration=     3
   0.09698026  0.19935003  0.27874605
   0.89711273  0.80519027  0.71120489
   0.39571932  0.80758247  0.76956284
   0.60402276  0.18928406  0.21777977
   0.89924381  0.69084795  0.22606626
   0.09945643  0.30872923  0.78752279
   0.59521094  0.29644829  0.72128794
   0.39816302  0.68796045  0.27727184
   0.27491444  0.09383337  0.19390088
   0.72544690  0.89976770  0.81105044
   0.78758318  0.40309034  0.80099075
   0.21381682  0.59709096  0.19189799
   0.20911318  0.90841927  0.70164162
   0.79107782  0.10115113  0.30152650
   0.72204573  0.59661433  0.30432809
   0.28272879  0.39575421  0.68585832
   0.19507690  0.28646567  0.09493895
   0.80706156  0.71538541  0.89616702
   0.79957814  0.78091289  0.40532041
   0.18524874  0.22401731  0.59806832
   0.70422394  0.21911580  0.90220728
   0.30675805  0.78494223  0.10657109
   0.28961915  0.72087118  0.59793464
   0.69438006  0.28504057  0.39507697
   0.95152280  0.35243344  0.97183453
   0.05547906  0.65790241  0.03125200
   0.56184977  0.64720288  0.46523532
   0.45127682  0.34461237  0.52862412
   0.44193522  0.14500894  0.03666809
   0.54194138  0.84701470  0.96886473
   0.06412115  0.85534889  0.52591111
   0.94510657  0.15237196  0.47363017
   0.84770809  0.53129321  0.05414951
   0.15157774  0.46845841  0.95536568
   0.14921877  0.03671002  0.43622755
   0.84930191  0.96928221  0.55381666
   0.64818494  0.46103069  0.56030400
   0.35216122  0.51896690  0.44156120
   0.34921254  0.96560031  0.93522700
   0.65210762  0.02336580  0.04954932
   0.03324158  0.45385615  0.15332813
   0.96714573  0.55526166  0.85183247
   0.53432847  0.06049628  0.84928735
   0.46891853  0.94791240  0.15323619
   0.96478029  0.94238569  0.35488746
   0.03366630  0.05512046  0.65082100
   0.46808349  0.55884591  0.64718987
   0.53692369  0.45116342  0.34522034
   0.60153269  0.68613078  0.76682780
   0.40266830  0.30303098  0.22520264
   0.90344209  0.30585101  0.28158661
   0.09293257  0.69692523  0.71780398
   0.39680116  0.19352973  0.71275022
   0.59898022  0.80160707  0.28725619
   0.09718276  0.79577451  0.21258879
   0.90150602  0.20152919  0.78416594
   0.79164252  0.60061015  0.69571604
   0.21274176  0.39613999  0.29805874
   0.27895876  0.89797324  0.30471176
   0.71735876  0.09919403  0.70145260
   0.72098594  0.40150081  0.19709273
   0.27471115  0.60087710  0.79718022
   0.20667062  0.09734682  0.79705928
   0.77987703  0.90095710  0.19328157
   0.69766055  0.78340011  0.59784718
   0.29561870  0.21441355  0.39880945
   0.30505337  0.26951863  0.89576751
   0.69263669  0.72063231  0.10467616
   0.18902785  0.71915747  0.40069411
   0.80150002  0.28281933  0.59755639
   0.80898919  0.21703002  0.09752317
   0.19911660  0.78355697  0.90363895
   0.44738992  0.85247928  0.46339529
   0.55663787  0.15216367  0.52835412
   0.06087217  0.15155699  0.97571218
   0.94641364  0.85391328  0.01581163
   0.94824752  0.65396777  0.53003940
   0.05129311  0.35254234  0.46552177
   0.55905846  0.35392192  0.03445785
   0.44033316  0.64947384  0.95660657
   0.35271200  0.03359389  0.54988075
   0.65635970  0.97002714  0.44393431
   0.65740489  0.53445567  0.95100649
   0.35424670  0.47881496  0.06132026
   0.15092897  0.95850912  0.04481767
   0.85227012  0.03593218  0.94456149
   0.84839812  0.46286525  0.45857462
   0.15217442  0.53255879  0.55930873
   0.53594197  0.94855921  0.64440833
   0.46571199  0.05267705  0.34561538
   0.02267870  0.55694178  0.35210724
   0.97010878  0.44260189  0.65161812
   0.47824220  0.44626732  0.85130825
   0.53492800  0.55894233  0.15197092
   0.96944234  0.05320569  0.14823222
   0.04253035  0.95622501  0.83958173
   0.11988742  0.99480995  0.24719768
   0.86898095  0.99935543  0.74803424
   0.38008200  0.00146347  0.74628393
   0.63044681  0.00019675  0.24679343
   0.87818313  0.50437878  0.24697592
   0.12595306  0.49698133  0.75437724
   0.62300377  0.50027471  0.74825178
   0.37351534  0.50007104  0.24906489
   0.25264733  0.12738734  0.00285123
   0.75107052  0.87136733  0.99976637
   0.74727577  0.38070271  0.00360216
   0.25437546  0.62302704  0.99870656
   0.25086615  0.87102193  0.49460400
   0.75396968  0.13026821  0.49514016
   0.74948470  0.62161174  0.49951970
   0.24956473  0.37540362  0.49591722
   0.00185521  0.25300873  0.12190311
   0.99503769  0.74444383  0.87668281
   0.99956824  0.74951146  0.37514981
   0.00266932  0.25332494  0.62113471
   0.49464185  0.25449313  0.88491232
   0.50087560  0.75001678  0.12757433
   0.49717781  0.74762518  0.62382028
   0.50236751  0.25074105  0.36833610
   0.99984668  0.00367952  0.99945018
   0.50251262  0.00048202  0.49603106
   0.00496892  0.50561772  0.50086038
   0.50315308  0.50328192  0.99931409
   0.75134960  0.24921699  0.24708247
   0.24688890  0.74931540  0.74984210
   0.74568617  0.74992150  0.75041997
   0.25303947  0.25041023  0.24424453
   0.24948050  0.25393749  0.74527875
   0.75287100  0.75204455  0.25100247
   0.24943386  0.74238755  0.25461913
   0.74841501  0.25260399  0.74928576
   0.49870579  0.49998692  0.49885732
   0.99835804  0.50519406  0.00449613
   0.50079632  0.99854425  0.99844344
   0.00294623  0.99968277  0.49609863
   0.93285810  0.65944658  0.66969459
   0.85766016  0.18213777  0.93191903
   0.12890825  0.67687713  0.57414274
   0.56908970  0.14105862  0.67762412
   0.82741804  0.42715640  0.61691154
   0.59069984  0.30602873  0.57504507
   0.82750836  0.07373323  0.11472716
   0.41502619  0.57976551  0.81712686
   0.11634620  0.81147526  0.06840894
   0.17549934  0.43325638  0.12609226
   0.68115050  0.44132598  0.34380392
   0.32635279  0.93137087  0.16684512
   0.32806077  0.53682634  0.66509512
   0.68448283  0.07604956  0.87328028
   0.67638732  0.57410666  0.14086067
   0.93499480  0.34715749  0.83011561
   0.64624278  0.82078339  0.43185152
   0.06398532  0.34859988  0.32047517
   0.68811857  0.92792102  0.58952613
   0.80976826  0.92370113  0.41209490
   0.17940268  0.92495370  0.89426474
   0.13247186  0.18587641  0.41921743
   0.07151552  0.63511137  0.17303780
   0.39959937  0.18281800  0.56488779
   0.81507469  0.56859255  0.87689495
   0.40079068  0.82008374  0.91233025
   0.57891559  0.60221173  0.31345380
   0.31601893  0.06911779  0.36868421
   0.90480323  0.32712418  0.42394471
   0.11658991  0.32607756  0.93537941
   0.42621232  0.90608591  0.31601426
   0.84477155  0.82094144  0.56450770
   0.03788380  0.18647898  0.84188417
   0.88508317  0.50203922  0.74828690
   0.14154235  0.51891452  0.29030198
   0.95202621  0.17039854  0.33042434
   0.68887535  0.15943167  0.03633288
   0.57889968  0.42283066  0.19703475
   0.49983664  0.25278838  0.12344523
   0.75514929  0.63964317  0.00718902
   0.42257062  0.08939358  0.19241980
   0.60951820  0.96536509  0.76353343
   0.26671287  0.62459034  0.48190174
   0.22815144  0.10309527  0.54010742
   0.54049729  0.72925877  0.88421248
   0.88168201  0.98664835  0.25088050
   0.02911967  0.81137652  0.65286020
   0.48226334  0.73889612  0.38139381
   0.44113714  0.33773396  0.67556516
   0.26623318  0.87305717  0.00945271
   0.96085082  0.76570472  0.12586958
   0.74036150  0.37081105  0.49609202
   0.28349954  0.37732843  0.98961414
   0.12293251  0.00703706  0.73887468
Direct configuration=     4
   0.09713053  0.19758896  0.27808535
   0.89704831  0.80556941  0.71114415
   0.39519820  0.80928189  0.76840630
   0.60483520  0.18965312  0.21535326
   0.89922655  0.69090276  0.22657101
   0.09930699  0.30840944  0.78719925
   0.59562060  0.29743759  0.72215861
   0.39866906  0.68738544  0.27717167
   0.27582534  0.09384380  0.19382493
   0.72507728  0.89948117  0.81091398
   0.78826727  0.40262432  0.80091771
   0.21384374  0.59732017  0.19226997
   0.20851240  0.90815666  0.70056327
   0.79141464  0.10154196  0.30216587
   0.72119951  0.59602738  0.30351578
   0.28422162  0.39560989  0.68628252
   0.19480965  0.28625869  0.09477894
   0.80623106  0.71578357  0.89664633
   0.79964202  0.78113236  0.40534360
   0.18570344  0.22401547  0.59860921
   0.70278623  0.21949832  0.90270115
   0.30712141  0.78483448  0.10663521
   0.29011367  0.72072700  0.59788993
   0.69395280  0.28440331  0.39425243
   0.95136897  0.35279422  0.97174984
   0.05586538  0.65782049  0.03153579
   0.56145464  0.64646435  0.46469561
   0.45052754  0.34434956  0.52893058
   0.44305193  0.14483262  0.03664004
   0.54349367  0.84677638  0.96933007
   0.06273001  0.85516067  0.52603019
   0.94619727  0.15320909  0.47306619
   0.84765711  0.53154778  0.05422737
   0.15124918  0.46817118  0.95473549
   0.14993404  0.03610820  0.43713850
   0.84921385  0.97012872  0.55344063
   0.64851312  0.46129524  0.55994874
   0.35185156  0.51855803  0.44178017
   0.34994825  0.96567369  0.93570304
   0.65327015  0.02438487  0.04846948
   0.03295735  0.45339376  0.15332326
   0.96740235  0.55608151  0.85188402
   0.53414608  0.06043688  0.84908740
   0.46959699  0.94818511  0.15324625
   0.96513469  0.94386403  0.35416267
   0.03309642  0.05528952  0.65104841
   0.46822774  0.55752626  0.64748079
   0.53578042  0.44965317  0.34479676
   0.60114941  0.68626703  0.76693907
   0.40277209  0.30259346  0.22450550
   0.90385320  0.30529704  0.28109028
   0.09306520  0.69765498  0.71794896
   0.39757913  0.19463381  0.71432323
   0.59899408  0.80251427  0.28741106
   0.09746735  0.79596649  0.21284420
   0.90125656  0.20020647  0.78443023
   0.79187108  0.60073577  0.69598094
   0.21241973  0.39585410  0.29714927
   0.27958961  0.89861577  0.30409996
   0.71692305  0.09942454  0.70166469
   0.72117435  0.40184476  0.19713863
   0.27513038  0.60102113  0.79691016
   0.20653231  0.09706850  0.79691333
   0.77956104  0.90067977  0.19301420
   0.69707171  0.78287812  0.59746379
   0.29555118  0.21489900  0.39835089
   0.30506045  0.26894137  0.89624232
   0.69203626  0.71953101  0.10548269
   0.18954152  0.72036570  0.40100968
   0.80147183  0.28260661  0.59756941
   0.80814649  0.21757021  0.09650035
   0.19968456  0.78362097  0.90374732
   0.44749583  0.85316817  0.46316933
   0.55633918  0.15299333  0.52988435
   0.06061715  0.15180426  0.97510058
   0.94756118  0.85377620  0.01626359
   0.94799116  0.65345325  0.52986533
   0.05266016  0.35235852  0.46536039
   0.55984927  0.35439920  0.03632400
   0.44070396  0.64916504  0.95674711
   0.35348464  0.03459753  0.55094665
   0.65618875  0.97069362  0.44422053
   0.65716012  0.53399427  0.94846273
   0.35407424  0.47828225  0.06101338
   0.15154314  0.95914558  0.04555634
   0.85271004  0.03477722  0.94407042
   0.84933992  0.46201095  0.45806657
   0.15229949  0.53287637  0.56004833
   0.53611572  0.94839240  0.64457245
   0.46667254  0.05419902  0.34584214
   0.02328320  0.55768555  0.35231062
   0.97037745  0.44222763  0.65151291
   0.47813936  0.44510150  0.85161801
   0.53502510  0.55755234  0.15200584
   0.96836659  0.05403997  0.14728274
   0.04303751  0.95597075  0.83957712
   0.11989070  0.99542958  0.24722877
   0.86844190  0.99980316  0.74838366
   0.38017625  0.00149824  0.74627663
   0.63068676  0.00053250  0.24685565
   0.87899599  0.50409596  0.24777903
   0.12606324  0.49702156  0.75451334
   0.62370240  0.50001856  0.74871263
   0.37364997  0.49961564  0.24889216
   0.25315984  0.12742560  0.00266559
   0.75127833  0.87067508  0.99969503
   0.74817914  0.38119307  0.00304181
   0.25448762  0.62270156  0.99880454
   0.25102908  0.87160009  0.49457506
   0.75345674  0.13059358  0.49590932
   0.74952004  0.62121935  0.49936952
   0.24935744  0.37476983  0.49578337
   0.00160854  0.25265022  0.12152746
   0.99496466  0.74458230  0.87700440
   0.99972254  0.74985908  0.37518899
   0.00275934  0.25335327  0.62125957
   0.49484455  0.25503828  0.88385058
   0.50107092  0.74975928  0.12797706
   0.49695878  0.74735186  0.62383294
   0.50246400  0.25057662  0.36806412
   1.00044385  0.00384933  0.99941548
   0.50246106  0.00127195  0.49674996
   0.00511785  0.50529300  0.50087623
   0.50326467  0.50285022  0.99944374
   0.75172994  0.24912543  0.24669158
   0.24695934  0.74939619  0.74975194
   0.74542111  0.74996076  0.75004554
   0.25314450  0.25020198  0.24382925
   0.24960143  0.25368850  0.74574944
   0.75261647  0.75196613  0.25113792
   0.25010432  0.74290544  0.25446455
   0.74844362  0.25241988  0.74970237
   0.49869287  0.49966584  0.49879019
   0.99842475  0.50536785  0.00457229
   0.50146739  0.99853973  0.99821276
   0.00281335  0.99998425  0.49615689
   0.93339967  0.66043833  0.66965888
   0.85598246  0.18064701  0.93291337
   0.12809905  0.67778353  0.57393930
   0.56906645  0.14182775  0.67931155
   0.82728621  0.42680047  0.61633747
   0.58831301  0.30631486  0.57702619
   0.82543211  0.07376338  0.10944611
   0.41550806  0.57879460  0.81690009
   0.11672789  0.81160798  0.06852438
   0.17531356  0.43308128  0.12753362
   0.67939568  0.44080003  0.34014329
   0.32620697  0.93354225  0.16639647
   0.32743368  0.53817781  0.66400640
   0.68389792  0.07624661  0.87638060
   0.67736131  0.57191343  0.14659285
   0.93569491  0.34511196  0.83048788
   0.64627786  0.82127130  0.43204456
   0.06488140  0.34662477  0.32036375
   0.68698334  0.92735079  0.58999279
   0.80922195  0.92446955  0.41183869
   0.17939290  0.92470593  0.89431517
   0.12969498  0.18440554  0.41907604
   0.07172210  0.63564513  0.17357356
   0.40272866  0.18537151  0.56782863
   0.81559030  0.56976954  0.87709279
   0.40186867  0.81991690  0.91090706
   0.57761447  0.59948134  0.31309889
   0.31701849  0.07087773  0.36775641
   0.90536239  0.32482869  0.42377617
   0.11502351  0.32542398  0.93520343
   0.42669753  0.90668606  0.31603961
   0.84659341  0.82148051  0.56434838
   0.03878769  0.18468346  0.84067239
   0.88542204  0.50155037  0.74858973
   0.14172626  0.51888748  0.29069020
   0.94920122  0.16811717  0.32939495
   0.68175127  0.16388156  0.04052543
   0.57806021  0.41836696  0.19222163
   0.49892802  0.25241186  0.12272091
   0.75269740  0.63835852  0.00751249
   0.42250407  0.08917012  0.19095003
   0.60926140  0.96540427  0.76413207
   0.26602649  0.62415671  0.48193211
   0.23022009  0.10471379  0.53875715
   0.54395484  0.72702812  0.88740585
   0.88127934  0.98739007  0.24944928
   0.03045976  0.81354542  0.65473980
   0.48334000  0.73927830  0.38071971
   0.43624577  0.34368962  0.67606428
   0.26702220  0.87310969  0.00949342
   0.96125893  0.76597602  0.12657397
   0.73974942  0.37069182  0.49487320
   0.28252120  0.37642127  0.99020841
   0.12305171  0.00710779  0.73853388
Direct configuration=     5
   0.09715616  0.19674741  0.27773954
   0.89705078  0.80573246  0.71116440
   0.39487810  0.81011774  0.76784219
   0.60518920  0.18979217  0.21406065
   0.89918643  0.69090345  0.22679230
   0.09917523  0.30822123  0.78714109
   0.59594086  0.29788539  0.72261370
   0.39892632  0.68715501  0.27710981
   0.27626756  0.09381464  0.19368794
   0.72495388  0.89934680  0.81085484
   0.78872327  0.40231166  0.80093827
   0.21394127  0.59740602  0.19243532
   0.20819712  0.90803282  0.70000265
   0.79150001  0.10172384  0.30255806
   0.72084232  0.59582671  0.30324709
   0.28461912  0.39556960  0.68649472
   0.19470261  0.28613574  0.09470799
   0.80582376  0.71592526  0.89693199
   0.79962422  0.78124495  0.40530338
   0.18586144  0.22403315  0.59895469