 running on  160 total cores
 distrk:  each k-point on  160 cores,    1 groups
 distr:  one band on   20 cores,    8 groups
 using from now: INCAR     
 vasp.5.4.4.18Apr17-6-g9f103f2a35 (build May 01 2020 14:22:42) gamma-only       
  
 POSCAR found type information on POSCAR  O  La Zr Li Al
 POSCAR found :  5 types and     192 ions
 scaLAPACK will be used
 LDA part: xc-table for Pade appr. of Perdew
 POSCAR, INCAR and KPOINTS ok, starting setup
 FFT: planning ...
 WAVECAR not read
 entering main loop
       N       E                     dE             d eps       ncg     rms          rms(c)
DAV:   1     0.262613731473E+05    0.26261E+05   -0.40228E+05  1528   0.254E+03
DAV:   2     0.976426883457E+04   -0.16497E+05   -0.15261E+05  1432   0.737E+02
DAV:   3     0.273616081422E+04   -0.70281E+04   -0.64072E+04  1504   0.364E+02
DAV:   4    -0.441568989884E+03   -0.31777E+04   -0.29659E+04  2056   0.226E+02
DAV:   5    -0.147937058815E+04   -0.10378E+04   -0.10052E+04  2520   0.141E+02    0.116E+02
DAV:   6    -0.134405415613E+04    0.13532E+03   -0.13801E+03  2440   0.636E+01    0.499E+01
DAV:   7    -0.136617653445E+04   -0.22122E+02   -0.34441E+02  2528   0.321E+01    0.225E+01
DAV:   8    -0.137717451392E+04   -0.10998E+02   -0.22209E+02  2568   0.238E+01    0.255E+01
DAV:   9    -0.136945415979E+04    0.77204E+01   -0.62415E+01  2408   0.143E+01    0.646E+00
DAV:  10    -0.137110761927E+04   -0.16535E+01   -0.11890E+01  2576   0.809E+00    0.928E+00
DAV:  11    -0.137075421563E+04    0.35340E+00   -0.61796E+00  2616   0.453E+00    0.390E+00
DAV:  12    -0.137073455226E+04    0.19663E-01   -0.32389E+00  2616   0.344E+00    0.275E+00
DAV:  13    -0.137077006277E+04   -0.35511E-01   -0.11791E+00  2528   0.221E+00    0.212E+00
DAV:  14    -0.137076128047E+04    0.87823E-02   -0.25914E-01  2600   0.109E+00    0.163E+00
DAV:  15    -0.137075287514E+04    0.84053E-02   -0.15744E-01  2504   0.823E-01    0.887E-01
DAV:  16    -0.137075588316E+04   -0.30080E-02   -0.27016E-02  2624   0.376E-01    0.561E-01
DAV:  17    -0.137075379228E+04    0.20909E-02   -0.88798E-03  2536   0.208E-01    0.406E-01
DAV:  18    -0.137075307677E+04    0.71551E-03   -0.79869E-03  2504   0.151E-01    0.139E-01
DAV:  19    -0.137075341972E+04   -0.34295E-03   -0.23366E-03  2456   0.106E-01    0.165E-01
DAV:  20    -0.137075320651E+04    0.21322E-03   -0.74648E-04  2408   0.654E-02    0.619E-02
DAV:  21    -0.137075321352E+04   -0.70121E-05   -0.37906E-04  2552   0.355E-02    0.388E-02
DAV:  22    -0.137075321769E+04   -0.41682E-05   -0.77326E-05  2568   0.184E-02    0.187E-02
DAV:  23    -0.137075322524E+04   -0.75471E-05   -0.24518E-05  2328   0.107E-02    0.306E-03
DAV:  24    -0.137075322430E+04    0.93949E-06   -0.32059E-06  1088   0.630E-03
   1 F= -.13707532E+04 E0= -.13707532E+04  d E =-.137075E+04
 BRION: g(F)=  0.604E-01 g(S)=  0.000E+00
 bond charge predicted
       N       E                     dE             d eps       ncg     rms          rms(c)
DAV:   1    -0.137079321707E+04   -0.39992E-01   -0.35844E+00  1456   0.271E+00    0.308E-01
DAV:   2    -0.137081082317E+04   -0.17606E-01   -0.18745E-01  2296   0.106E+00    0.159E-01
DAV:   3    -0.137081178190E+04   -0.95872E-03   -0.14547E-02  2568   0.205E-01    0.133E-01
DAV:   4    -0.137081154351E+04    0.23838E-03   -0.13585E-03  2576   0.865E-02    0.958E-02
DAV:   5    -0.137081125898E+04    0.28453E-03   -0.11259E-03  2144   0.662E-02    0.362E-02
DAV:   6    -0.137081129862E+04   -0.39635E-04   -0.69289E-04  2448   0.484E-02    0.439E-02
DAV:   7    -0.137081128677E+04    0.11843E-04   -0.27135E-04  2432   0.304E-02    0.272E-02
DAV:   8    -0.137081127991E+04    0.68625E-05   -0.84153E-05  2528   0.178E-02    0.125E-02
DAV:   9    -0.137081127897E+04    0.94288E-06   -0.16111E-05  2040   0.900E-03    0.760E-03
DAV:  10    -0.137081127891E+04    0.58062E-07   -0.21469E-06   992   0.509E-03
   2 F= -.13708113E+04 E0= -.13708113E+04  d E =-.580546E-01
 BRION: g(F)=  0.567E-01 g(S)=  0.000E+00 retain N=  1 mean eig= 0.83
 eig:   0.830
 bond charge predicted
       N       E                     dE             d eps       ncg     rms          rms(c)
DAV:   1    -0.137084600260E+04   -0.34724E-01   -0.21480E+00  1424   0.211E+00    0.242E-01
DAV:   2    -0.137085662012E+04   -0.10618E-01   -0.11402E-01  2320   0.822E-01    0.125E-01
DAV:   3    -0.137085722974E+04   -0.60963E-03   -0.90339E-03  2600   0.162E-01    0.105E-01
DAV:   4    -0.137085709479E+04    0.13495E-03   -0.84497E-04  2592   0.696E-02    0.751E-02
DAV:   5    -0.137085694850E+04    0.14629E-03   -0.68201E-04  2128   0.498E-02    0.291E-02
DAV:   6    -0.137085696846E+04   -0.19964E-04   -0.34914E-04  2480   0.349E-02    0.344E-02
DAV:   7    -0.137085696072E+04    0.77465E-05   -0.16321E-04  2472   0.233E-02    0.198E-02
DAV:   8    -0.137085695751E+04    0.32046E-05   -0.50205E-05  2520   0.139E-02    0.918E-03
DAV:   9    -0.137085695724E+04    0.27765E-06   -0.55737E-06  1344   0.661E-03
   3 F= -.13708570E+04 E0= -.13708570E+04  d E =-.456783E-01
 BRION: g(F)=  0.535E-01 g(S)=  0.000E+00 retain N=  2 mean eig= 1.50
 eig:   1.497  1.497
 bond charge predicted
       N       E                     dE             d eps       ncg     rms          rms(c)
DAV:   1    -0.137058239680E+04    0.27456E+00   -0.11797E+02  1368   0.153E+01    0.166E+00
DAV:   2    -0.137116017311E+04   -0.57778E+00   -0.60550E+00  2296   0.597E+00    0.867E-01
DAV:   3    -0.137119314180E+04   -0.32969E-01   -0.46240E-01  2584   0.111E+00    0.706E-01
DAV:   4    -0.137118791914E+04    0.52227E-02   -0.38066E-02  2616   0.443E-01    0.533E-01
DAV:   5    -0.137117922873E+04    0.86904E-02   -0.20053E-02  2224   0.304E-01    0.234E-01
DAV:   6    -0.137117926106E+04   -0.32329E-04   -0.20374E-02  2248   0.258E-01    0.157E-01
DAV:   7    -0.137117943682E+04   -0.17576E-03   -0.78024E-03  2408   0.158E-01    0.136E-01
DAV:   8    -0.137117935617E+04    0.80648E-04   -0.22028E-03  2520   0.947E-02    0.813E-02
DAV:   9    -0.137117924347E+04    0.11269E-03   -0.10944E-03  2336   0.615E-02    0.399E-02
DAV:  10    -0.137117927871E+04   -0.35240E-04   -0.39200E-04  2416   0.381E-02    0.361E-02
DAV:  11    -0.137117926019E+04    0.18521E-04   -0.11959E-04  2432   0.232E-02    0.138E-02
DAV:  12    -0.137117926422E+04   -0.40216E-05   -0.69811E-05  2304   0.155E-02    0.123E-02
DAV:  13    -0.137117926303E+04    0.11821E-05   -0.17142E-05  1936   0.871E-03    0.685E-03
DAV:  14    -0.137117926303E+04    0.24593E-08   -0.97773E-06  1760   0.638E-03
   4 F= -.13711793E+04 E0= -.13711793E+04  d E =-.322306E+00
 BRION: g(F)=  0.387E-01 g(S)=  0.000E+00
 BRIONS problems: POTIM should be increased
 retain N=  1 mean eig= 9.89
 eig:   9.894
 bond charge predicted
       N       E                     dE             d eps       ncg     rms          rms(c)
DAV:   1    -0.137111911031E+04    0.60153E-01   -0.46047E+01  1368   0.957E+00    0.103E+00
DAV:   2    -0.137134565873E+04   -0.22655E+00   -0.23735E+00  2296   0.374E+00    0.537E-01
DAV:   3    -0.137135901953E+04   -0.13361E-01   -0.18341E-01  2584   0.689E-01    0.429E-01
DAV:   4    -0.137135697477E+04    0.20448E-02   -0.14989E-02  2616   0.283E-01    0.322E-01
DAV:   5    -0.137135396515E+04    0.30096E-02   -0.73804E-03  2304   0.185E-01    0.143E-01
DAV:   6    -0.137135389964E+04    0.65517E-04   -0.68772E-03  2264   0.155E-01    0.890E-02
DAV:   7    -0.137135399309E+04   -0.93453E-04   -0.30344E-03  2456   0.994E-02    0.780E-02
DAV:   8    -0.137135397002E+04    0.23075E-04   -0.77857E-04  2528   0.575E-02    0.496E-02
DAV:   9    -0.137135393478E+04    0.35235E-04   -0.35683E-04  2320   0.355E-02    0.253E-02
DAV:  10    -0.137135394688E+04   -0.12095E-04   -0.16377E-04  2392   0.235E-02    0.206E-02
DAV:  11    -0.137135394247E+04    0.44075E-05   -0.45268E-05  2296   0.148E-02    0.102E-02
DAV:  12    -0.137135394305E+04   -0.58259E-06   -0.28135E-05  2104   0.103E-02    0.954E-03
DAV:  13    -0.137135394210E+04    0.94599E-06   -0.12062E-05  1768   0.717E-03    0.497E-03
DAV:  14    -0.137135394189E+04    0.21450E-06   -0.25864E-06  1056   0.478E-03
   5 F= -.13713539E+04 E0= -.13713539E+04  d E =-.174679E+00
 BRION: g(F)=  0.322E-01 g(S)=  0.000E+00
 BRIONS problems: POTIM should be increased
 retain N=  1 mean eig= 8.32
 eig:   8.324
 bond charge predicted
       N       E                     dE             d eps       ncg     rms          rms(c)
DAV:   1    -0.137137631224E+04   -0.22370E-01   -0.10952E+01  1376   0.473E+00    0.515E-01
DAV:   2    -0.137143041355E+04   -0.54101E-01   -0.57049E-01  2296   0.184E+00    0.265E-01
DAV:   3    -0.137143383816E+04   -0.34246E-02   -0.45931E-02  2576   0.351E-01    0.213E-01
DAV:   4    -0.137143336220E+04    0.47596E-03   -0.38888E-03  2608   0.147E-01    0.159E-01
DAV:   5    -0.137143274156E+04    0.62063E-03   -0.20038E-03  2336   0.924E-02    0.690E-02
DAV:   6    -0.137143274112E+04    0.44718E-06   -0.14877E-03  2256   0.749E-02    0.499E-02
DAV:   7    -0.137143275562E+04   -0.14509E-04   -0.78984E-04  2480   0.508E-02    0.401E-02
DAV:   8    -0.137143274807E+04    0.75517E-05   -0.22589E-04  2528   0.306E-02    0.254E-02
DAV:   9    -0.137143274200E+04    0.60736E-05   -0.83650E-05  2416   0.173E-02    0.141E-02
DAV:  10    -0.137143274403E+04   -0.20360E-05   -0.33011E-05  2384   0.110E-02    0.105E-02
DAV:  11    -0.137143274313E+04    0.90350E-06   -0.69670E-06  1328   0.750E-03
   6 F= -.13714327E+04 E0= -.13714327E+04  d E =-.788012E-01
 BRION: g(F)=  0.291E-01 g(S)=  0.000E+00 retain N=  2 mean eig= 5.88
 eig:   7.771  3.985
 bond charge predicted
       N       E                     dE             d eps       ncg     rms          rms(c)
DAV:   1    -0.137137292656E+04    0.59817E-01   -0.35937E+01  1368   0.849E+00    0.911E-01
DAV:   2    -0.137154906729E+04   -0.17614E+00   -0.18446E+00  2296   0.328E+00    0.472E-01
DAV:   3    -0.137155942335E+04   -0.10356E-01   -0.14131E-01  2592   0.623E-01    0.373E-01
DAV:   4    -0.137155782256E+04    0.16008E-02   -0.11931E-02  2624   0.254E-01    0.276E-01
DAV:   5    -0.137155574228E+04    0.20803E-02   -0.55443E-03  2336   0.163E-01    0.120E-01
DAV:   6    -0.137155572817E+04    0.14112E-04   -0.47592E-03  2272   0.130E-01    0.744E-02
DAV:   7    -0.137155580012E+04   -0.71947E-04   -0.20763E-03  2480   0.833E-02    0.651E-02
DAV:   8    -0.137155578424E+04    0.15881E-04   -0.55052E-04  2592   0.479E-02    0.412E-02
DAV:   9    -0.137155576331E+04    0.20922E-04   -0.24246E-04  2392   0.294E-02    0.213E-02
DAV:  10    -0.137155577102E+04   -0.77038E-05   -0.10471E-04  2408   0.194E-02    0.175E-02
DAV:  11    -0.137155576783E+04    0.31832E-05   -0.29659E-05  2216   0.122E-02    0.855E-03
DAV:  12    -0.137155576807E+04   -0.23814E-06   -0.18675E-05  1976   0.870E-03    0.733E-03
DAV:  13    -0.137155576748E+04    0.59314E-06   -0.62452E-06  1504   0.597E-03
   7 F= -.13715558E+04 E0= -.13715558E+04  d E =-.123024E+00
 BRION: g(F)=  0.252E-01 g(S)=  0.000E+00 retain N=  2 mean eig= 4.99
 eig:   4.986  4.986
 bond charge predicted
       N       E                     dE             d eps       ncg     rms          rms(c)
DAV:   1    -0.137157033857E+04   -0.14570E-01   -0.78494E+00  1368   0.398E+00    0.421E-01
DAV:   2    -0.137160849007E+04   -0.38151E-01   -0.39846E-01  2296   0.152E+00    0.215E-01
DAV:   3    -0.137161089084E+04   -0.24008E-02   -0.31311E-02  2592   0.285E-01    0.170E-01
DAV:   4    -0.137161062435E+04    0.26649E-03   -0.24664E-03  2624   0.116E-01    0.130E-01
DAV:   5    -0.137161019600E+04    0.42835E-03   -0.11014E-03  2384   0.726E-02    0.630E-02
DAV:   6    -0.137161015789E+04    0.38102E-04   -0.10682E-03  2240   0.631E-02    0.347E-02
DAV:   7    -0.137161018098E+04   -0.23082E-04   -0.57109E-04  2464   0.429E-02    0.321E-02
DAV:   8    -0.137161017900E+04    0.19734E-05   -0.12601E-04  2488   0.240E-02    0.235E-02
DAV:   9    -0.137161017098E+04    0.80207E-05   -0.59920E-05  2304   0.145E-02    0.117E-02
DAV:  10    -0.137161017307E+04   -0.20832E-05   -0.35395E-05  2200   0.108E-02    0.804E-03
DAV:  11    -0.137161017241E+04    0.65165E-06   -0.49520E-06  1272   0.661E-03
   8 F= -.13716102E+04 E0= -.13716102E+04  d E =-.544049E-01
 BRION: g(F)=  0.223E-01 g(S)=  0.000E+00 retain N=  2 mean eig= 7.62
 eig:   7.622  7.622
 bond charge predicted
       N       E                     dE             d eps       ncg     rms          rms(c)
DAV:   1    -0.137149365108E+04    0.11652E+00   -0.46651E+01  1368   0.971E+00    0.103E+00
DAV:   2    -0.137172037474E+04   -0.22672E+00   -0.23703E+00  2304   0.369E+00    0.528E-01
DAV:   3    -0.137173410666E+04   -0.13732E-01   -0.18095E-01  2584   0.702E-01    0.416E-01
DAV:   4    -0.137173250910E+04    0.15976E-02   -0.15179E-02  2624   0.285E-01    0.315E-01
DAV:   5    -0.137173004911E+04    0.24600E-02   -0.67916E-03  2384   0.180E-01    0.144E-01
DAV:   6    -0.137172998901E+04    0.60101E-04   -0.61225E-03  2288   0.148E-01    0.842E-02
DAV:   7    -0.137173007705E+04   -0.88039E-04   -0.27218E-03  2480   0.968E-02    0.733E-02
DAV:   8    -0.137173006382E+04    0.13226E-04   -0.74425E-04  2576   0.558E-02    0.498E-02
DAV:   9    -0.137173003348E+04    0.30343E-04   -0.29794E-04  2432   0.328E-02    0.259E-02
DAV:  10    -0.137173004256E+04   -0.90767E-05   -0.14536E-04  2416   0.221E-02    0.184E-02
DAV:  11    -0.137173004076E+04    0.17946E-05   -0.34037E-05  2296   0.133E-02    0.114E-02
DAV:  12    -0.137173004014E+04    0.62099E-06   -0.25897E-05  2120   0.995E-03    0.980E-03
DAV:  13    -0.137173003922E+04    0.91811E-06   -0.12858E-05  1760   0.738E-03    0.512E-03
DAV:  14    -0.137173003897E+04    0.25534E-06   -0.23389E-06  1024   0.480E-03
   9 F= -.13717300E+04 E0= -.13717300E+04  d E =-.119867E+00
 BRION: g(F)=  0.189E-01 g(S)=  0.000E+00
 BRIONS problems: POTIM should be increased
 retain N=  1 mean eig= 9.54
 eig:   9.538
 bond charge predicted
       N       E                     dE             d eps       ncg     rms          rms(c)
DAV:   1    -0.137173095827E+04   -0.91905E-03   -0.96377E+00  1368   0.442E+00    0.472E-01
DAV:   2    -0.137177808989E+04   -0.47132E-01   -0.49381E-01  2296   0.169E+00    0.239E-01
DAV:   3    -0.137178101233E+04   -0.29224E-02   -0.38451E-02  2592   0.324E-01    0.190E-01
DAV:   4    -0.137178065965E+04    0.35268E-03   -0.31311E-03  2600   0.132E-01    0.144E-01
DAV:   5    -0.137178012961E+04    0.53004E-03   -0.16361E-03  2360   0.854E-02    0.617E-02
DAV:   6    -0.137178013878E+04   -0.91686E-05   -0.13157E-03  2296   0.695E-02    0.432E-02
DAV:   7    -0.137178015374E+04   -0.14957E-04   -0.61980E-04  2448   0.450E-02    0.345E-02
DAV:   8    -0.137178014926E+04    0.44772E-05   -0.16310E-04  2536   0.263E-02    0.204E-02
DAV:   9    -0.137178014477E+04    0.44945E-05   -0.62045E-05  2288   0.152E-02    0.113E-02
DAV:  10    -0.137178014662E+04   -0.18514E-05   -0.22842E-05  2128   0.945E-03    0.892E-03
DAV:  11    -0.137178014547E+04    0.11535E-05   -0.53127E-06  1280   0.685E-03    0.480E-03
DAV:  12    -0.137178014594E+04   -0.47866E-06   -0.96589E-06  1568   0.642E-03
  10 F= -.13717801E+04 E0= -.13717801E+04  d E =-.501070E-01
 BRION: g(F)=  0.174E-01 g(S)=  0.000E+00 retain N=  1 mean eig= 1.82
 eig:   1.822
 bond charge predicted
       N       E                     dE             d eps       ncg     rms          rms(c)
DAV:   1    -0.137178512967E+04   -0.49842E-02   -0.34786E-01  1376   0.864E-01    0.117E-01
DAV:   2    -0.137178691625E+04   -0.17866E-02   -0.20261E-02  2320   0.345E-01    0.588E-02
DAV:   3    -0.137178703340E+04   -0.11715E-03   -0.17993E-03  2560   0.795E-02    0.534E-02
DAV:   4    -0.137178700682E+04    0.26577E-04   -0.21494E-04  2576   0.342E-02    0.377E-02
DAV:   5    -0.137178698459E+04    0.22232E-04   -0.22678E-04  2136   0.264E-02    0.193E-02
DAV:   6    -0.137178698643E+04   -0.18401E-05   -0.77608E-05  2512   0.190E-02    0.222E-02
DAV:   7    -0.137178698162E+04    0.48092E-05   -0.73374E-05  2440   0.150E-02    0.981E-03
DAV:   8    -0.137178698140E+04    0.22759E-06   -0.13400E-05  1896   0.785E-03    0.528E-03
DAV:   9    -0.137178698131E+04    0.89698E-07   -0.12277E-06  1008   0.400E-03
  11 F= -.13717870E+04 E0= -.13717870E+04  d E =-.683536E-02
 BRION: g(F)=  0.167E-01 g(S)=  0.000E+00 retain N=  2 mean eig= 2.24
 eig:   3.812  0.668
 bond charge predicted
       N       E                     dE             d eps       ncg     rms          rms(c)
DAV:   1    -0.137158153410E+04    0.20545E+00   -0.64474E+01  1368   0.114E+01    0.122E+00
DAV:   2    -0.137189728521E+04   -0.31575E+00   -0.33059E+00  2296   0.437E+00    0.619E-01
DAV:   3    -0.137191686588E+04   -0.19581E-01   -0.25501E-01  2576   0.844E-01    0.487E-01
DAV:   4    -0.137191474796E+04    0.21179E-02   -0.21265E-02  2600   0.340E-01    0.372E-01
DAV:   5    -0.137191137931E+04    0.33687E-02   -0.10019E-02  2408   0.214E-01    0.163E-01
DAV:   6    -0.137191141932E+04   -0.40013E-04   -0.84044E-03  2304   0.171E-01    0.101E-01
DAV:   7    -0.137191151876E+04   -0.99434E-04   -0.35728E-03  2488   0.111E-01    0.838E-02
DAV:   8    -0.137191150148E+04    0.17277E-04   -0.10233E-03  2584   0.646E-02    0.533E-02
DAV:   9    -0.137191147077E+04    0.30712E-04   -0.36632E-04  2416   0.369E-02    0.295E-02
DAV:  10    -0.137191148146E+04   -0.10690E-04   -0.15526E-04  2448   0.235E-02    0.208E-02
DAV:  11    -0.137191147843E+04    0.30306E-05   -0.41071E-05  2416   0.145E-02    0.113E-02
DAV:  12    -0.137191147871E+04   -0.28158E-06   -0.27819E-05  2224   0.101E-02    0.984E-03
DAV:  13    -0.137191147780E+04    0.90590E-06   -0.11614E-05  1760   0.689E-03    0.521E-03
DAV:  14    -0.137191147762E+04    0.18049E-06   -0.38838E-06  1256   0.491E-03
  12 F= -.13719115E+04 E0= -.13719115E+04  d E =-.124496E+00
 BRION: g(F)=  0.140E-01 g(S)=  0.000E+00
 BRIONS problems: POTIM should be increased
 retain N=  1 mean eig= 9.58
 eig:   9.579
 bond charge predicted
       N       E                     dE             d eps       ncg     rms          rms(c)
DAV:   1    -0.137192296852E+04   -0.11491E-01   -0.34070E+00  1376   0.265E+00    0.291E-01
DAV:   2    -0.137194003908E+04   -0.17071E-01   -0.17963E-01  2280   0.103E+00    0.145E-01
DAV:   3    -0.137194120305E+04   -0.11640E-02   -0.14765E-02  2568   0.201E-01    0.116E-01
DAV:   4    -0.137194109553E+04    0.10752E-03   -0.12074E-03  2600   0.829E-02    0.903E-02
DAV:   5    -0.137194091130E+04    0.18423E-03   -0.62309E-04  2392   0.523E-02    0.394E-02
DAV:   6    -0.137194091574E+04   -0.44396E-05   -0.48736E-04  2256   0.418E-02    0.275E-02
DAV:   7    -0.137194091883E+04   -0.30950E-05   -0.22990E-04  2424   0.277E-02    0.213E-02
DAV:   8    -0.137194091751E+04    0.13170E-05   -0.71087E-05  2520   0.172E-02    0.138E-02
DAV:   9    -0.137194091566E+04    0.18538E-05   -0.21752E-05  2200   0.929E-03    0.777E-03
DAV:  10    -0.137194091597E+04   -0.31457E-06   -0.67836E-06  1432   0.600E-03
  13 F= -.13719409E+04 E0= -.13719409E+04  d E =-.294384E-01
 BRION: g(F)=  0.135E-01 g(S)=  0.000E+00 retain N=  1 mean eig= 2.00
 eig:   1.997
 bond charge predicted
       N       E                     dE             d eps       ncg     rms          rms(c)
DAV:   1    -0.137195037675E+04   -0.94611E-02   -0.53590E-01  1376   0.106E+00    0.118E-01
DAV:   2    -0.137195309440E+04   -0.27177E-02   -0.28835E-02  2320   0.417E-01    0.603E-02
DAV:   3    -0.137195325078E+04   -0.15639E-03   -0.22022E-03  2576   0.829E-02    0.483E-02
DAV:   4    -0.137195322197E+04    0.28816E-04   -0.20650E-04  2584   0.342E-02    0.347E-02
DAV:   5    -0.137195319277E+04    0.29195E-04   -0.13722E-04  2256   0.229E-02    0.131E-02
DAV:   6    -0.137195319709E+04   -0.43188E-05   -0.75871E-05  2464   0.164E-02    0.131E-02
DAV:   7    -0.137195319661E+04    0.48596E-06   -0.32983E-05  2432   0.106E-02    0.800E-03
DAV:   8    -0.137195319592E+04    0.68254E-06   -0.52292E-06  1352   0.634E-03
  14 F= -.13719532E+04 E0= -.13719532E+04  d E =-.122799E-01
 BRION: g(F)=  0.133E-01 g(S)=  0.000E+00 retain N=  2 mean eig= 2.13
 eig:   2.771  1.479
 bond charge predicted
       N       E                     dE             d eps       ncg     rms          rms(c)
DAV:   1    -0.137190758948E+04    0.45607E-01   -0.23668E+01  1368   0.697E+00    0.756E-01
DAV:   2    -0.137202628111E+04   -0.11869E+00   -0.12460E+00  2296   0.271E+00    0.381E-01
DAV:   3    -0.137203396608E+04   -0.76850E-02   -0.98879E-02  2584   0.528E-01    0.299E-01
DAV:   4    -0.137203315857E+04    0.80751E-03   -0.81802E-03  2600   0.215E-01    0.228E-01
DAV:   5    -0.137203196498E+04    0.11936E-02   -0.38788E-03  2392   0.132E-01    0.991E-02
DAV:   6    -0.137203199289E+04   -0.27915E-04   -0.30400E-03  2288   0.104E-01    0.629E-02
DAV:   7    -0.137203202866E+04   -0.35770E-04   -0.13691E-03  2496   0.683E-02    0.511E-02
DAV:   8    -0.137203202246E+04    0.62019E-05   -0.41060E-04  2544   0.408E-02    0.336E-02
DAV:   9    -0.137203201199E+04    0.10478E-04   -0.13217E-04  2448   0.223E-02    0.191E-02
DAV:  10    -0.137203201524E+04   -0.32559E-05   -0.56255E-05  2456   0.143E-02    0.118E-02
DAV:  11    -0.137203201475E+04    0.49551E-06   -0.10386E-05  1672   0.841E-03    0.754E-03
DAV:  12    -0.137203201474E+04    0.65338E-08   -0.13694E-05  1672   0.757E-03    0.646E-03
DAV:  13    -0.137203201412E+04    0.62252E-06   -0.26795E-06  1032   0.557E-03
  15 F= -.13720320E+04 E0= -.13720320E+04  d E =-.788182E-01
 BRION: g(F)=  0.122E-01 g(S)=  0.000E+00
 BRIONS problems: POTIM should be increased
 retain N=  1 mean eig= 9.06
 eig:   9.065
 bond charge predicted
       N       E                     dE             d eps       ncg     rms          rms(c)
DAV:   1    -0.137204142767E+04   -0.94129E-02   -0.53608E+00  1368   0.332E+00    0.361E-01
DAV:   2    -0.137206856791E+04   -0.27140E-01   -0.28526E-01  2280   0.129E+00    0.182E-01
DAV:   3    -0.137207028431E+04   -0.17164E-02   -0.22288E-02  2560   0.258E-01    0.141E-01
DAV:   4    -0.137207009058E+04    0.19373E-03   -0.19982E-03  2576   0.105E-01    0.106E-01
DAV:   5    -0.137206984676E+04    0.24382E-03   -0.95551E-04  2392   0.644E-02    0.436E-02
DAV:   6    -0.137206986523E+04   -0.18467E-04   -0.63756E-04  2360   0.472E-02    0.310E-02
DAV:   7    -0.137206987014E+04   -0.49127E-05   -0.28108E-04  2464   0.313E-02    0.232E-02
DAV:   8    -0.137206986933E+04    0.81585E-06   -0.95680E-05  2544   0.193E-02    0.148E-02
DAV:   9    -0.137206986774E+04    0.15926E-05   -0.23857E-05  2280   0.101E-02    0.941E-03
DAV:  10    -0.137206986789E+04   -0.15258E-06   -0.99254E-06  1640   0.673E-03
  16 F= -.13720699E+04 E0= -.13720699E+04  d E =-.378538E-01
 BRION: g(F)=  0.118E-01 g(S)=  0.000E+00 retain N=  1 mean eig= 3.96
 eig:   3.963
 bond charge predicted
       N       E                     dE             d eps       ncg     rms          rms(c)
DAV:   1    -0.137207848357E+04   -0.86158E-02   -0.38871E-01  1392   0.897E-01    0.100E-01
DAV:   2    -0.137208043937E+04   -0.19558E-02   -0.20685E-02  2328   0.346E-01    0.506E-02
DAV:   3    -0.137208055202E+04   -0.11265E-03   -0.15627E-03  2560   0.705E-02    0.403E-02
DAV:   4    -0.137208053168E+04    0.20346E-04   -0.15519E-04  2568   0.293E-02    0.283E-02
DAV:   5    -0.137208051344E+04    0.18239E-04   -0.96706E-05  2280   0.196E-02    0.103E-02
DAV:   6    -0.137208051677E+04   -0.33344E-05   -0.49989E-05  2488   0.132E-02    0.104E-02
DAV:   7    -0.137208051644E+04    0.32880E-06   -0.18054E-05  2304   0.834E-03    0.629E-03
DAV:   8    -0.137208051588E+04    0.55930E-06   -0.16677E-06   992   0.500E-03
  17 F= -.13720805E+04 E0= -.13720805E+04  d E =-.106480E-01
 BRION: g(F)=  0.119E-01 g(S)=  0.000E+00 retain N=  2 mean eig= 3.54
 eig:   6.631  0.439
 bond charge predicted
       N       E                     dE             d eps       ncg     rms          rms(c)
DAV:   1    -0.137209088858E+04   -0.10372E-01   -0.53071E+00  1368   0.330E+00    0.354E-01
DAV:   2    -0.137211748061E+04   -0.26592E-01   -0.27888E-01  2304   0.128E+00    0.179E-01
DAV:   3    -0.137211913241E+04   -0.16518E-02   -0.21557E-02  2560   0.251E-01    0.139E-01
DAV:   4    -0.137211893552E+04    0.19690E-03   -0.19204E-03  2576   0.103E-01    0.103E-01
DAV:   5    -0.137211869680E+04    0.23872E-03   -0.89830E-04  2392   0.626E-02    0.424E-02
DAV:   6    -0.137211871285E+04   -0.16050E-04   -0.60218E-04  2352   0.457E-02    0.292E-02
DAV:   7    -0.137211871838E+04   -0.55288E-05   -0.25970E-04  2448   0.303E-02    0.223E-02
DAV:   8    -0.137211871755E+04    0.82472E-06   -0.87898E-05  2544   0.186E-02    0.143E-02
DAV:   9    -0.137211871604E+04    0.15077E-05   -0.22295E-05  2232   0.988E-03    0.904E-03
DAV:  10    -0.137211871612E+04   -0.70984E-07   -0.93327E-06  1584   0.659E-03
  18 F= -.13721187E+04 E0= -.13721187E+04  d E =-.382002E-01
 BRION: g(F)=  0.115E-01 g(S)=  0.000E+00 retain N=  1 mean eig= 6.50
 eig:   6.500
 bond charge predicted
       N       E                     dE             d eps       ncg     rms          rms(c)
DAV:   1    -0.137213273258E+04   -0.14017E-01   -0.29269E+00  1376   0.245E+00    0.262E-01
DAV:   2    -0.137214738116E+04   -0.14649E-01   -0.15351E-01  2288   0.946E-01    0.133E-01
DAV:   3    -0.137214829914E+04   -0.91799E-03   -0.11931E-02  2560   0.187E-01    0.103E-01
DAV:   4    -0.137214818956E+04    0.10958E-03   -0.10578E-03  2584   0.767E-02    0.764E-02
DAV:   5    -0.137214805480E+04    0.13476E-03   -0.51754E-04  2368   0.474E-02    0.307E-02
DAV:   6    -0.137214806662E+04   -0.11816E-04   -0.33964E-04  2368   0.342E-02    0.225E-02
DAV:   7    -0.137214806851E+04   -0.18933E-05   -0.13988E-04  2448   0.225E-02    0.164E-02
DAV:   8    -0.137214806806E+04    0.45336E-06   -0.48397E-05  2528   0.138E-02    0.104E-02
DAV:   9    -0.137214806723E+04    0.82658E-06   -0.10800E-05  1920   0.725E-03    0.676E-03
DAV:  10    -0.137214806720E+04    0.30894E-07   -0.54970E-06  1408   0.548E-03
  19 F= -.13721481E+04 E0= -.13721481E+04  d E =-.293511E-01
 BRION: g(F)=  0.115E-01 g(S)=  0.000E+00 retain N=  2 mean eig= 7.29
 eig:   7.293  7.293
 bond charge predicted
       N       E                     dE             d eps       ncg     rms          rms(c)
DAV:   1    -0.137216133386E+04   -0.13267E-01   -0.15306E+00  1376   0.176E+00    0.188E-01
DAV:   2    -0.137216893921E+04   -0.76054E-02   -0.79610E-02  2304   0.682E-01    0.954E-02
DAV:   3    -0.137216940818E+04   -0.46896E-03   -0.61521E-03  2560   0.134E-01    0.739E-02
DAV:   4    -0.137216934747E+04    0.60708E-04   -0.53455E-04  2576   0.545E-02    0.546E-02
DAV:   5    -0.137216927541E+04    0.72059E-04   -0.26520E-04  2360   0.338E-02    0.218E-02
DAV:   6    -0.137216928131E+04   -0.59003E-05   -0.17562E-04  2344   0.245E-02    0.159E-02
DAV:   7    -0.137216928236E+04   -0.10449E-05   -0.69769E-05  2440   0.159E-02    0.117E-02
DAV:   8    -0.137216928209E+04    0.26212E-06   -0.24266E-05  2448   0.977E-03    0.730E-03
DAV:   9    -0.137216928140E+04    0.69189E-06   -0.28566E-06  1080   0.526E-03
  20 F= -.13721693E+04 E0= -.13721693E+04  d E =-.212142E-01
 BRION: g(F)=  0.113E-01 g(S)=  0.000E+00 retain N=  2 mean eig= 6.87
 eig:   6.872  6.872
 bond charge predicted
       N       E                     dE             d eps       ncg     rms          rms(c)
DAV:   1    -0.137218443678E+04   -0.15155E-01   -0.31937E+00  1368   0.254E+00    0.272E-01
DAV:   2    -0.137220025267E+04   -0.15816E-01   -0.16556E-01  2304   0.978E-01    0.138E-01
DAV:   3    -0.137220121430E+04   -0.96164E-03   -0.12789E-02  2568   0.193E-01    0.107E-01
DAV:   4    -0.137220107877E+04    0.13553E-03   -0.11385E-03  2592   0.789E-02    0.780E-02
DAV:   5    -0.137220092901E+04    0.14976E-03   -0.54732E-04  2360   0.487E-02    0.317E-02
DAV:   6    -0.137220093894E+04   -0.99366E-05   -0.35858E-04  2376   0.350E-02    0.228E-02
DAV:   7    -0.137220094131E+04   -0.23688E-05   -0.14724E-04  2432   0.231E-02    0.171E-02
DAV:   8    -0.137220094084E+04    0.46846E-06   -0.52793E-05  2536   0.142E-02    0.113E-02
DAV:   9    -0.137220093976E+04    0.10847E-05   -0.13190E-05  2000   0.774E-03    0.718E-03
DAV:  10    -0.137220093979E+04   -0.30239E-07   -0.76497E-06  1552   0.578E-03
  21 F= -.13722009E+04 E0= -.13722009E+04  d E =-.316584E-01
 BRION: g(F)=  0.114E-01 g(S)=  0.000E+00 retain N=  2 mean eig= 5.23
 eig:   5.228  5.228
 bond charge predicted
       N       E                     dE             d eps       ncg     rms          rms(c)
DAV:   1    -0.137220926448E+04   -0.83247E-02   -0.33853E-01  1384   0.828E-01    0.878E-02
DAV:   2    -0.137221094113E+04   -0.16767E-02   -0.17536E-02  2296   0.320E-01    0.451E-02
DAV:   3    -0.137221104267E+04   -0.10154E-03   -0.13447E-03  2568   0.617E-02    0.346E-02
DAV:   4    -0.137221102819E+04    0.14474E-04   -0.11727E-04  2576   0.256E-02    0.255E-02
DAV:   5    -0.137221101213E+04    0.16068E-04   -0.61414E-05  2344   0.162E-02    0.977E-03
DAV:   6    -0.137221101374E+04   -0.16123E-05   -0.38616E-05  2344   0.114E-02    0.759E-03
DAV:   7    -0.137221101377E+04   -0.32393E-07   -0.12927E-05  2040   0.727E-03    0.514E-03
DAV:   8    -0.137221101341E+04    0.35772E-06   -0.19527E-06  1008   0.506E-03
  22 F= -.13722110E+04 E0= -.13722110E+04  d E =-.100736E-01
 BRION: g(F)=  0.114E-01 g(S)=  0.000E+00 retain N=  2 mean eig= 1.56
 eig:   1.859  1.261
 bond charge predicted
       N       E                     dE             d eps       ncg     rms          rms(c)
DAV:   1    -0.137213289530E+04    0.78118E-01   -0.65847E+00  1368   0.365E+00    0.391E-01
DAV:   2    -0.137216534677E+04   -0.32451E-01   -0.33962E-01  2312   0.140E+00    0.196E-01
DAV:   3    -0.137216732805E+04   -0.19813E-02   -0.26059E-02  2568   0.274E-01    0.152E-01
DAV:   4    -0.137216705860E+04    0.26945E-03   -0.22209E-03  2576   0.111E-01    0.111E-01
DAV:   5    -0.137216674341E+04    0.31519E-03   -0.11671E-03  2304   0.707E-02    0.428E-02
DAV:   6    -0.137216677843E+04   -0.35019E-04   -0.75420E-04  2384   0.502E-02    0.344E-02
DAV:   7    -0.137216677956E+04   -0.11338E-05   -0.26354E-04  2432   0.310E-02    0.242E-02
DAV:   8    -0.137216677806E+04    0.14988E-05   -0.10235E-04  2536   0.196E-02    0.144E-02
DAV:   9    -0.137216677650E+04    0.15580E-05   -0.23099E-05  2168   0.104E-02    0.971E-03
DAV:  10    -0.137216677647E+04    0.35347E-07   -0.98912E-06  1584   0.692E-03
  23 F= -.13721668E+04 E0= -.13721668E+04  d E =0.442369E-01
 BRION: g(F)=  0.116E-01 g(S)=  0.000E+00 retain N=  2 mean eig= 3.75
 eig:   1.490  6.016
 bond charge predicted
       N       E                     dE             d eps       ncg     rms          rms(c)
DAV:   1    -0.137218088370E+04   -0.14107E-01   -0.46308E+00  1368   0.306E+00    0.329E-01
DAV:   2    -0.137220378942E+04   -0.22906E-01   -0.23986E-01  2304   0.118E+00    0.165E-01
DAV:   3    -0.137220518192E+04   -0.13925E-02   -0.18421E-02  2560   0.232E-01    0.128E-01
DAV:   4    -0.137220499749E+04    0.18443E-03   -0.16416E-03  2584   0.940E-02    0.948E-02
DAV:   5    -0.137220476643E+04    0.23106E-03   -0.79624E-04  2328   0.588E-02    0.386E-02
DAV:   6    -0.137220478158E+04   -0.15146E-04   -0.55350E-04  2328   0.433E-02    0.287E-02
DAV:   7    -0.137220478421E+04   -0.26290E-05   -0.22391E-04  2440   0.281E-02    0.217E-02
DAV:   8    -0.137220478287E+04    0.13324E-05   -0.80988E-05  2536   0.175E-02    0.135E-02
DAV:   9    -0.137220478136E+04    0.15093E-05   -0.20558E-05  2136   0.937E-03    0.851E-03
DAV:  10    -0.137220478144E+04   -0.75903E-07   -0.92671E-06  1568   0.638E-03
  24 F= -.13722048E+04 E0= -.13722048E+04  d E =-.380050E-01
 BRION: g(F)=  0.114E-01 g(S)=  0.000E+00 retain N=  1 mean eig= 6.16
 eig:   6.156
 bond charge predicted
       N       E                     dE             d eps       ncg     rms          rms(c)
DAV:   1    -0.137221631972E+04   -0.11538E-01   -0.79996E-01  1376   0.128E+00    0.139E-01
DAV:   2    -0.137222025566E+04   -0.39359E-02   -0.41409E-02  2288   0.489E-01    0.699E-02
DAV:   3    -0.137222050297E+04   -0.24731E-03   -0.33224E-03  2560   0.980E-02    0.559E-02
DAV:   4    -0.137222046580E+04    0.37173E-04   -0.29110E-04  2560   0.402E-02    0.413E-02
DAV:   5    -0.137222041799E+04    0.47810E-04   -0.17892E-04  2208   0.272E-02    0.154E-02
DAV:   6    -0.137222042369E+04   -0.57038E-05   -0.11772E-04  2360   0.197E-02    0.150E-02
DAV:   7    -0.137222042322E+04    0.46747E-06   -0.41725E-05  2440   0.121E-02    0.100E-02
DAV:   8    -0.137222042244E+04    0.78851E-06   -0.12982E-05  1976   0.754E-03    0.494E-03
DAV:   9    -0.137222042219E+04    0.24917E-06   -0.16993E-06   992   0.442E-03
  25 F= -.13722204E+04 E0= -.13722204E+04  d E =-.156407E-01
 BRION: g(F)=  0.114E-01 g(S)=  0.000E+00 retain N=  1 mean eig= 0.62
 eig:   0.616
 bond charge predicted
       N       E                     dE             d eps       ncg     rms          rms(c)
DAV:   1    -0.137222444319E+04   -0.40208E-02   -0.64677E-02  1376   0.366E-01    0.426E-02
DAV:   2    -0.137222476113E+04   -0.31794E-03   -0.34542E-03  2280   0.141E-01    0.220E-02
DAV:   3    -0.137222478005E+04   -0.18918E-04   -0.29046E-04  2584   0.318E-02    0.188E-02
DAV:   4    -0.137222477578E+04    0.42696E-05   -0.29696E-05  2344   0.130E-02    0.131E-02
DAV:   5    -0.137222477183E+04    0.39415E-05   -0.25851E-05  2080   0.932E-03    0.603E-03
DAV:   6    -0.137222477186E+04   -0.22352E-07   -0.70701E-06  1584   0.648E-03
  26 F= -.13722248E+04 E0= -.13722248E+04  d E =-.434967E-02
 BRION: g(F)=  0.114E-01 g(S)=  0.000E+00 retain N=  1 mean eig= 0.36
 eig:   0.361
 bond charge predicted
       N       E                     dE             d eps       ncg     rms          rms(c)
DAV:   1    -0.137223281030E+04   -0.80385E-02   -0.27726E-01  1376   0.742E-01    0.807E-02
DAV:   2    -0.137223417517E+04   -0.13649E-02   -0.14304E-02  2288   0.286E-01    0.394E-02
DAV:   3    -0.137223425983E+04   -0.84659E-04   -0.11075E-03  2560   0.568E-02    0.314E-02
DAV:   4    -0.137223424985E+04    0.99797E-05   -0.98911E-05  2608   0.229E-02    0.237E-02
DAV:   5    -0.137223423433E+04    0.15522E-04   -0.51753E-05  2304   0.152E-02    0.946E-03
DAV:   6    -0.137223423570E+04   -0.13712E-05   -0.38325E-05  2280   0.112E-02    0.800E-03
DAV:   7    -0.137223423548E+04    0.21681E-06   -0.12964E-05  2040   0.724E-03    0.568E-03
DAV:   8    -0.137223423502E+04    0.45644E-06   -0.21377E-06  1016   0.487E-03
  27 F= -.13722342E+04 E0= -.13722342E+04  d E =-.946317E-02
 BRION: g(F)=  0.114E-01 g(S)=  0.000E+00 retain N=  2 mean eig= 1.45
 eig:   0.289  2.608
 bond charge predicted
       N       E                     dE             d eps       ncg     rms          rms(c)
DAV:   1    -0.137223054376E+04    0.36917E-02   -0.38665E-02  1384   0.276E-01    0.297E-02
DAV:   2    -0.137223072701E+04   -0.18324E-03   -0.19195E-03  2288   0.105E-01    0.146E-02
DAV:   3    -0.137223073769E+04   -0.10682E-04   -0.14497E-04  2520   0.207E-02    0.111E-02
DAV:   4    -0.137223073565E+04    0.20425E-05   -0.10576E-05  1728   0.816E-03    0.774E-03
DAV:   5    -0.137223073385E+04    0.17943E-05   -0.11190E-05  1872   0.708E-03    0.243E-03
DAV:   6    -0.137223073401E+04   -0.16027E-06   -0.19073E-06  1024   0.460E-03
  28 F= -.13722307E+04 E0= -.13722307E+04  d E =0.350101E-02
 BRION: g(F)=  0.115E-01 g(S)=  0.000E+00 retain N=  3 mean eig= 2.73
 eig:   4.402  0.214  3.568
 bond charge predicted
       N       E                     dE             d eps       ncg     rms          rms(c)
DAV:   1    -0.137224707087E+04   -0.16337E-01   -0.16631E+00  1328   0.175E+00    0.191E-01
DAV:   2    -0.137225459203E+04   -0.75212E-02   -0.78254E-02  2336   0.671E-01    0.996E-02
DAV:   3    -0.137225487764E+04   -0.28561E-03   -0.49750E-03  2552   0.130E-01    0.751E-02
DAV:   4    -0.137225474708E+04    0.13056E-03   -0.61167E-04  2448   0.527E-02    0.446E-02
DAV:   5    -0.137225469606E+04    0.51013E-04   -0.33185E-04  2240   0.356E-02    0.181E-02
DAV:   6    -0.137225470294E+04   -0.68709E-05   -0.10127E-04  2472   0.189E-02    0.139E-02
DAV:   7    -0.137225470261E+04    0.32678E-06   -0.30762E-05  2496   0.107E-02    0.804E-03
DAV:   8    -0.137225470218E+04    0.43139E-06   -0.75502E-06  1664   0.655E-03
  29 F= -.13722547E+04 E0= -.13722547E+04  d E =-.239682E-01
 BRION: g(F)=  0.116E-01 g(S)=  0.000E+00 retain N=  4 mean eig= 3.11
 eig:   6.858  3.699  1.620  0.270
 bond charge predicted
       N       E                     dE             d eps       ncg     rms          rms(c)
DAV:   1    -0.137227324470E+04   -0.18542E-01   -0.54488E+00  1312   0.319E+00    0.350E-01
DAV:   2    -0.137229779573E+04   -0.24551E-01   -0.25594E-01  2328   0.121E+00    0.180E-01
DAV:   3    -0.137229871457E+04   -0.91884E-03   -0.16334E-02  2568   0.238E-01    0.134E-01
DAV:   4    -0.137229827237E+04    0.44219E-03   -0.20312E-03  2448   0.979E-02    0.798E-02
DAV:   5    -0.137229810728E+04    0.16510E-03   -0.10778E-03  2256   0.653E-02    0.324E-02
DAV:   6    -0.137229812987E+04   -0.22594E-04   -0.34749E-04  2552   0.348E-02    0.249E-02
DAV:   7    -0.137229812897E+04    0.90354E-06   -0.91504E-05  2552   0.191E-02    0.149E-02
DAV:   8    -0.137229812855E+04    0.41845E-06   -0.36636E-05  2520   0.121E-02    0.874E-03
DAV:   9    -0.137229812782E+04    0.73027E-06   -0.98745E-06  1784   0.811E-03
  30 F= -.13722981E+04 E0= -.13722981E+04  d E =-.434256E-01
 BRION: g(F)=  0.114E-01 g(S)=  0.000E+00 retain N=  5 mean eig= 4.07
 eig:   6.843  5.797  5.797  0.225  1.668
 bond charge predicted
       N       E                     dE             d eps       ncg     rms          rms(c)
DAV:   1    -0.137227670081E+04    0.21428E-01   -0.21908E+01  1320   0.647E+00    0.707E-01
DAV:   2    -0.137237992359E+04   -0.10322E+00   -0.10792E+00  2328   0.246E+00    0.362E-01
DAV:   3    -0.137238441322E+04   -0.44896E-02   -0.71898E-02  2560   0.499E-01    0.277E-01
DAV:   4    -0.137238299282E+04    0.14204E-02   -0.82256E-03  2520   0.197E-01    0.180E-01
DAV:   5    -0.137238208090E+04    0.91193E-03   -0.42146E-03  2240   0.132E-01    0.681E-02
DAV:   6    -0.137238220592E+04   -0.12502E-03   -0.18685E-03  2520   0.777E-02    0.617E-02
DAV:   7    -0.137238219118E+04    0.14741E-04   -0.55589E-04  2576   0.461E-02    0.391E-02
DAV:   8    -0.137238218409E+04    0.70902E-05   -0.26585E-04  2528   0.309E-02    0.221E-02
DAV:   9    -0.137238218388E+04    0.21121E-06   -0.54940E-05  2512   0.163E-02    0.154E-02
DAV:  10    -0.137238218260E+04    0.12740E-05   -0.22600E-05  2256   0.101E-02    0.738E-03
DAV:  11    -0.137238218231E+04    0.29549E-06   -0.78850E-06  1712   0.655E-03
  31 F= -.13723822E+04 E0= -.13723822E+04  d E =-.840545E-01
 BRION: g(F)=  0.112E-01 g(S)=  0.000E+00
 BRIONS problems: POTIM should be increased
 retain N=  1 mean eig= 9.56
 eig:   9.560
 bond charge predicted
       N       E                     dE             d eps       ncg     rms          rms(c)
DAV:   1    -0.137236234957E+04    0.19833E-01   -0.98319E-01  1328   0.139E+00    0.165E-01
DAV:   2    -0.137236706924E+04   -0.47197E-02   -0.49504E-02  2312   0.536E-01    0.857E-02
DAV:   3    -0.137236725928E+04   -0.19005E-03   -0.33357E-03  2552   0.109E-01    0.683E-02
DAV:   4    -0.137236718429E+04    0.74986E-04   -0.43782E-04  2496   0.442E-02    0.425E-02
DAV:   5    -0.137236714295E+04    0.41347E-04   -0.26642E-04  2152   0.311E-02    0.182E-02
DAV:   6    -0.137236714960E+04   -0.66561E-05   -0.92121E-05  2432   0.180E-02    0.181E-02
DAV:   7    -0.137236714725E+04    0.23495E-05   -0.39734E-05  2504   0.119E-02    0.100E-02
DAV:   8    -0.137236714643E+04    0.82298E-06   -0.13067E-05  1944   0.730E-03    0.491E-03
DAV:   9    -0.137236714647E+04   -0.40047E-07   -0.14640E-06  1032   0.458E-03
  32 F= -.13723671E+04 E0= -.13723671E+04  d E =0.150358E-01
 BRION: g(F)=  0.105E-01 g(S)=  0.000E+00 retain N=  1 mean eig= 1.12
 eig:   1.124
 bond charge predicted
       N       E                     dE             d eps       ncg     rms          rms(c)
DAV:   1    -0.137237777956E+04   -0.10633E-01   -0.69457E-01  1392   0.118E+00    0.130E-01
DAV:   2    -0.137238139869E+04   -0.36191E-02   -0.38073E-02  2304   0.473E-01    0.653E-02
DAV:   3    -0.137238162138E+04   -0.22269E-03   -0.29348E-03  2536   0.914E-02    0.537E-02
DAV:   4    -0.137238159713E+04    0.24248E-04   -0.28173E-04  2600   0.388E-02    0.412E-02
DAV:   5    -0.137238155447E+04    0.42660E-04   -0.13812E-04  2328   0.243E-02    0.180E-02
DAV:   6    -0.137238155549E+04   -0.10188E-05   -0.11217E-04  2272   0.194E-02    0.134E-02
DAV:   7    -0.137238155545E+04    0.35419E-07   -0.52238E-05  2424   0.132E-02    0.105E-02
DAV:   8    -0.137238155504E+04    0.41729E-06   -0.17542E-05  2280   0.852E-03    0.670E-03
DAV:   9    -0.137238155442E+04    0.61684E-06   -0.27334E-06  1136   0.451E-03
  33 F= -.13723816E+04 E0= -.13723816E+04  d E =-.144079E-01
 BRION: g(F)=  0.101E-01 g(S)=  0.000E+00 retain N=  2 mean eig= 1.56
 eig:   1.109  2.012
 bond charge predicted
       N       E                     dE             d eps       ncg     rms          rms(c)
DAV:   1    -0.137239272516E+04   -0.11170E-01   -0.13957E+00  1400   0.171E+00    0.190E-01
DAV:   2    -0.137240026931E+04   -0.75442E-02   -0.79383E-02  2320   0.697E-01    0.946E-02
DAV:   3    -0.137240074549E+04   -0.47618E-03   -0.61905E-03  2560   0.135E-01    0.749E-02
DAV:   4    -0.137240069110E+04    0.54393E-04   -0.57535E-04  2592   0.581E-02    0.584E-02
DAV:   5    -0.137240060615E+04    0.84951E-04   -0.28687E-04  2360   0.361E-02    0.251E-02
DAV:   6    -0.137240060782E+04   -0.16750E-05   -0.23321E-04  2304   0.292E-02    0.181E-02
DAV:   7    -0.137240061081E+04   -0.29881E-05   -0.12316E-04  2408   0.198E-02    0.146E-02
DAV:   8    -0.137240060993E+04    0.88145E-06   -0.29734E-05  2544   0.116E-02    0.879E-03
DAV:   9    -0.137240060916E+04    0.76377E-06   -0.96767E-06  1872   0.635E-03
  34 F= -.13724006E+04 E0= -.13724006E+04  d E =-.190547E-01
 BRION: g(F)=  0.990E-02 g(S)=  0.000E+00 retain N=  3 mean eig= 2.43
 eig:   1.227  3.031  3.031
 bond charge predicted
       N       E                     dE             d eps       ncg     rms          rms(c)
DAV:   1    -0.137239231656E+04    0.82934E-02   -0.12180E+01  1368   0.497E+00    0.542E-01
DAV:   2    -0.137245387480E+04   -0.61558E-01   -0.64644E-01  2304   0.193E+00    0.271E-01
DAV:   3    -0.137245764595E+04   -0.37712E-02   -0.50119E-02  2552   0.386E-01    0.217E-01
DAV:   4    -0.137245719427E+04    0.45168E-03   -0.47400E-03  2600   0.158E-01    0.165E-01
DAV:   5    -0.137245645919E+04    0.73508E-03   -0.22240E-03  2360   0.101E-01    0.731E-02
DAV:   6    -0.137245646395E+04   -0.47596E-05   -0.18886E-03  2288   0.805E-02    0.508E-02
DAV:   7    -0.137245647860E+04   -0.14649E-04   -0.84449E-04  2448   0.538E-02    0.421E-02
DAV:   8    -0.137245647252E+04    0.60854E-05   -0.26978E-04  2560   0.325E-02    0.273E-02
DAV:   9    -0.137245646556E+04    0.69549E-05   -0.87868E-05  2504   0.179E-02    0.147E-02
DAV:  10    -0.137245646746E+04   -0.19008E-05   -0.32669E-05  2456   0.109E-02    0.953E-03
DAV:  11    -0.137245646705E+04    0.41176E-06   -0.33899E-06  1184   0.629E-03
  35 F= -.13724565E+04 E0= -.13724565E+04  d E =-.558579E-01
 BRION: g(F)=  0.856E-02 g(S)=  0.000E+00
 BRIONS problems: POTIM should be increased
 retain N=  1 mean eig=14.73
 eig:  14.732
 bond charge predicted
       N       E                     dE             d eps       ncg     rms          rms(c)
DAV:   1    -0.137235190260E+04    0.10456E+00   -0.37115E+01  1360   0.860E+00    0.940E-01
DAV:   2    -0.137253554020E+04   -0.18364E+00   -0.19287E+00  2288   0.332E+00    0.473E-01
DAV:   3    -0.137254674748E+04   -0.11207E-01   -0.15223E-01  2568   0.660E-01    0.384E-01
DAV:   4    -0.137254526797E+04    0.14795E-02   -0.13786E-02  2608   0.270E-01    0.292E-01
DAV:   5    -0.137254270054E+04    0.25674E-02   -0.66240E-03  2312   0.177E-01    0.133E-01
DAV:   6    -0.137254264431E+04    0.56228E-04   -0.65607E-03  2232   0.150E-01    0.904E-02
DAV:   7    -0.137254270395E+04   -0.59644E-04   -0.28174E-03  2376   0.972E-02    0.785E-02
DAV:   8    -0.137254267660E+04    0.27349E-04   -0.82387E-04  2520   0.572E-02    0.499E-02
DAV:   9    -0.137254264983E+04    0.26777E-04   -0.32208E-04  2512   0.333E-02    0.253E-02
DAV:  10    -0.137254265849E+04   -0.86663E-05   -0.13014E-04  2504   0.215E-02    0.176E-02
DAV:  11    -0.137254265737E+04    0.11197E-05   -0.23736E-05  2296   0.114E-02    0.114E-02
DAV:  12    -0.137254265707E+04    0.30572E-06   -0.26661E-05  2008   0.967E-03    0.972E-03
DAV:  13    -0.137254265631E+04    0.75519E-06   -0.11724E-05  1760   0.712E-03    0.572E-03
DAV:  14    -0.137254265615E+04    0.16112E-06   -0.51090E-06  1440   0.488E-03
  36 F= -.13725427E+04 E0= -.13725427E+04  d E =-.861891E-01
 BRION: g(F)=  0.700E-02 g(S)=  0.000E+00
 BRIONS problems: POTIM should be increased
 retain N=  1 mean eig=13.56
 eig:  13.563
 bond charge predicted
       N       E                     dE             d eps       ncg     rms          rms(c)
DAV:   1    -0.137254922842E+04   -0.65721E-02   -0.62814E-01  1376   0.112E+00    0.137E-01
DAV:   2    -0.137255226883E+04   -0.30404E-02   -0.32701E-02  2256   0.434E-01    0.676E-02
DAV:   3    -0.137255244594E+04   -0.17711E-03   -0.26848E-03  2584   0.904E-02    0.600E-02
DAV:   4    -0.137255240464E+04    0.41304E-04   -0.26562E-04  2592   0.374E-02    0.433E-02
DAV:   5    -0.137255235014E+04    0.54496E-04   -0.23625E-04  2144   0.299E-02    0.167E-02
DAV:   6    -0.137255235954E+04   -0.93977E-05   -0.14776E-04  2392   0.220E-02    0.232E-02
DAV:   7    -0.137255235467E+04    0.48711E-05   -0.52065E-05  2496   0.135E-02    0.142E-02
DAV:   8    -0.137255235245E+04    0.22161E-05   -0.20793E-05  2200   0.866E-03    0.582E-03
DAV:   9    -0.137255235227E+04    0.17609E-06   -0.25080E-06  1136   0.487E-03
  37 F= -.13725524E+04 E0= -.13725524E+04  d E =-.969612E-02
 BRION: g(F)=  0.640E-02 g(S)=  0.000E+00 retain N=  1 mean eig= 0.85
 eig:   0.849
 bond charge predicted
       N       E                     dE             d eps       ncg     rms          rms(c)
DAV:   1    -0.137255576423E+04   -0.34118E-02   -0.15614E-01  1384   0.571E-01    0.715E-02
DAV:   2    -0.137255652744E+04   -0.76321E-03   -0.83714E-03  2328   0.223E-01    0.362E-02
DAV:   3    -0.137255655746E+04   -0.30016E-04   -0.63951E-04  2576   0.487E-02    0.309E-02
DAV:   4    -0.137255654069E+04    0.16763E-04   -0.81217E-05  2560   0.209E-02    0.205E-02
DAV:   5    -0.137255652699E+04    0.13704E-04   -0.74529E-05  2104   0.167E-02    0.106E-02
DAV:   6    -0.137255652827E+04   -0.12817E-05   -0.39699E-05  2464   0.122E-02    0.121E-02
DAV:   7    -0.137255652703E+04    0.12376E-05   -0.22552E-05  2224   0.846E-03    0.671E-03
DAV:   8    -0.137255652649E+04    0.54245E-06   -0.21779E-06  1032   0.485E-03
  38 F= -.13725565E+04 E0= -.13725565E+04  d E =-.417422E-02
 BRION: g(F)=  0.610E-02 g(S)=  0.000E+00 retain N=  2 mean eig= 0.46
 eig:   0.463  0.463
 bond charge predicted
       N       E                     dE             d eps       ncg     rms          rms(c)
DAV:   1    -0.137256471289E+04   -0.81859E-02   -0.23498E+00  1336   0.210E+00    0.237E-01
DAV:   2    -0.137257565620E+04   -0.10943E-01   -0.11447E-01  2296   0.810E-01    0.120E-01
DAV:   3    -0.137257609392E+04   -0.43772E-03   -0.75330E-03  2576   0.162E-01    0.953E-02
DAV:   4    -0.137257591775E+04    0.17617E-03   -0.85810E-04  2536   0.637E-02    0.628E-02
DAV:   5    -0.137257577489E+04    0.14286E-03   -0.54604E-04  2208   0.497E-02    0.220E-02
DAV:   6    -0.137257579717E+04   -0.22275E-04   -0.29366E-04  2424   0.303E-02    0.260E-02
DAV:   7    -0.137257579392E+04    0.32431E-05   -0.57953E-05  2568   0.151E-02    0.175E-02
DAV:   8    -0.137257578977E+04    0.41494E-05   -0.32311E-05  2440   0.111E-02    0.698E-03
DAV:   9    -0.137257579042E+04   -0.64317E-06   -0.93469E-06  1872   0.678E-03
  39 F= -.13725758E+04 E0= -.13725758E+04  d E =-.192639E-01
 BRION: g(F)=  0.552E-02 g(S)=  0.000E+00 retain N=  3 mean eig= 3.52
 eig:   4.336  4.336  1.875
 bond charge predicted
       N       E                     dE             d eps       ncg     rms          rms(c)
DAV:   1    -0.137258008695E+04   -0.42972E-02   -0.48107E+00  1328   0.302E+00    0.338E-01
DAV:   2    -0.137260249440E+04   -0.22407E-01   -0.23461E-01  2280   0.116E+00    0.170E-01
DAV:   3    -0.137260348299E+04   -0.98859E-03   -0.16164E-02  2584   0.236E-01    0.134E-01
DAV:   4    -0.137260312374E+04    0.35925E-03   -0.17019E-03  2544   0.922E-02    0.895E-02
DAV:   5    -0.137260283231E+04    0.29142E-03   -0.10891E-03  2208   0.711E-02    0.305E-02
DAV:   6    -0.137260287852E+04   -0.46204E-04   -0.62172E-04  2472   0.443E-02    0.359E-02
DAV:   7    -0.137260287384E+04    0.46759E-05   -0.11479E-04  2560   0.214E-02    0.252E-02
DAV:   8    -0.137260286581E+04    0.80356E-05   -0.65097E-05  2520   0.157E-02    0.102E-02
DAV:   9    -0.137260286692E+04   -0.11137E-05   -0.17496E-05  2112   0.906E-03    0.648E-03
DAV:  10    -0.137260286682E+04    0.10393E-06   -0.12572E-06  1032   0.417E-03
  40 F= -.13726029E+04 E0= -.13726029E+04  d E =-.270764E-01
 BRION: g(F)=  0.500E-02 g(S)=  0.000E+00
 BRIONS problems: POTIM should be increased
 retain N=  1 mean eig=10.28
 eig:  10.283
 bond charge predicted
       N       E                     dE             d eps       ncg     rms          rms(c)
DAV:   1    -0.137260556922E+04   -0.27023E-02   -0.50442E+00  1336   0.312E+00    0.348E-01
DAV:   2    -0.137262968247E+04   -0.24113E-01   -0.25330E-01  2296   0.119E+00    0.174E-01
DAV:   3    -0.137263086661E+04   -0.11841E-02   -0.18089E-02  2584   0.243E-01    0.139E-01
DAV:   4    -0.137263055015E+04    0.31646E-03   -0.17827E-03  2576   0.948E-02    0.966E-02
DAV:   5    -0.137263022394E+04    0.32621E-03   -0.10735E-03  2232   0.714E-02    0.338E-02
DAV:   6    -0.137263026967E+04   -0.45731E-04   -0.72172E-04  2448   0.472E-02    0.375E-02
DAV:   7    -0.137263026510E+04    0.45676E-05   -0.14295E-04  2496   0.239E-02    0.278E-02
DAV:   8    -0.137263025708E+04    0.80233E-05   -0.87223E-05  2472   0.171E-02    0.116E-02
DAV:   9    -0.137263025713E+04   -0.52838E-07   -0.18266E-05  2112   0.919E-03    0.744E-03
DAV:  10    -0.137263025700E+04    0.13151E-06   -0.17415E-06  1048   0.475E-03
  41 F= -.13726303E+04 E0= -.13726303E+04  d E =-.273902E-01
 BRION: g(F)=  0.471E-02 g(S)=  0.000E+00 retain N=  1 mean eig= 5.24
 eig:   5.240
 bond charge predicted
       N       E                     dE             d eps       ncg     rms          rms(c)
DAV:   1    -0.137263238936E+04   -0.21322E-02   -0.74841E-02  1416   0.407E-01    0.555E-02
DAV:   2    -0.137263282129E+04   -0.43193E-03   -0.48656E-03  2376   0.174E-01    0.281E-02
DAV:   3    -0.137263284363E+04   -0.22339E-04   -0.37882E-04  2568   0.397E-02    0.251E-02
DAV:   4    -0.137263283668E+04    0.69481E-05   -0.50100E-05  2560   0.165E-02    0.176E-02
DAV:   5    -0.137263283075E+04    0.59311E-05   -0.53356E-05  2144   0.140E-02    0.954E-03
DAV:   6    -0.137263283143E+04   -0.68515E-06   -0.23153E-05  2352   0.977E-03    0.109E-02
DAV:   7    -0.137263283026E+04    0.11676E-05   -0.16114E-05  2056   0.731E-03    0.507E-03
DAV:   8    -0.137263283003E+04    0.23893E-06   -0.12977E-06   992   0.426E-03
  42 F= -.13726328E+04 E0= -.13726328E+04  d E =-.257303E-02
 BRION: g(F)=  0.464E-02 g(S)=  0.000E+00 retain N=  1 mean eig= 0.56
 eig:   0.555
 bond charge predicted
       N       E                     dE             d eps       ncg     rms          rms(c)
DAV:   1    -0.137263595344E+04   -0.31232E-02   -0.77140E-02  1384   0.399E-01    0.469E-02
DAV:   2    -0.137263634891E+04   -0.39547E-03   -0.42618E-03  2280   0.156E-01    0.231E-02
DAV:   3    -0.137263637372E+04   -0.24811E-04   -0.34702E-04  2560   0.332E-02    0.197E-02
DAV:   4    -0.137263636960E+04    0.41270E-05   -0.33789E-05  2408   0.138E-02    0.143E-02
DAV:   5    -0.137263636452E+04    0.50789E-05   -0.24047E-05  2136   0.992E-03    0.573E-03
DAV:   6    -0.137263636512E+04   -0.60083E-06   -0.12848E-05  2080   0.719E-03    0.639E-03
DAV:   7    -0.137263636445E+04    0.67058E-06   -0.22742E-06  1040   0.481E-03
  43 F= -.13726364E+04 E0= -.13726364E+04  d E =-.353442E-02
 BRION: g(F)=  0.450E-02 g(S)=  0.000E+00 retain N=  2 mean eig= 2.92
 eig:   0.379  5.454
 bond charge predicted
       N       E                     dE             d eps       ncg     rms          rms(c)
DAV:   1    -0.137264452082E+04   -0.81557E-02   -0.15558E+00  1360   0.177E+00    0.201E-01
DAV:   2    -0.137265256927E+04   -0.80485E-02   -0.84660E-02  2288   0.688E-01    0.980E-02
DAV:   3    -0.137265305160E+04   -0.48233E-03   -0.65833E-03  2560   0.139E-01    0.781E-02
DAV:   4    -0.137265297208E+04    0.79517E-04   -0.58933E-04  2592   0.567E-02    0.581E-02
DAV:   5    -0.137265286637E+04    0.10571E-03   -0.33800E-04  2312   0.399E-02    0.222E-02
DAV:   6    -0.137265287655E+04   -0.10177E-04   -0.25614E-04  2376   0.293E-02    0.203E-02
DAV:   7    -0.137265287640E+04    0.14236E-06   -0.78120E-05  2448   0.168E-02    0.152E-02
DAV:   8    -0.137265287497E+04    0.14291E-05   -0.31163E-05  2488   0.107E-02    0.745E-03
DAV:   9    -0.137265287434E+04    0.63718E-06   -0.66585E-06  1656   0.588E-03
  44 F= -.13726529E+04 E0= -.13726529E+04  d E =-.165099E-01
 BRION: g(F)=  0.451E-02 g(S)=  0.000E+00 retain N=  3 mean eig= 2.24
 eig:   2.987  2.987  0.749
 bond charge predicted
       N       E                     dE             d eps       ncg     rms          rms(c)
DAV:   1    -0.137265608198E+04   -0.32070E-02   -0.76208E-02  1368   0.388E-01    0.433E-02
DAV:   2    -0.137265646728E+04   -0.38530E-03   -0.40388E-03  2264   0.149E-01    0.219E-02
DAV:   3    -0.137265648898E+04   -0.21697E-04   -0.30804E-04  2576   0.311E-02    0.171E-02
DAV:   4    -0.137265648418E+04    0.48002E-05   -0.27445E-05  2296   0.124E-02    0.122E-02
DAV:   5    -0.137265647948E+04    0.46940E-05   -0.16207E-05  2096   0.888E-03    0.448E-03
DAV:   6    -0.137265647996E+04   -0.47918E-06   -0.10462E-05  1896   0.635E-03    0.380E-03
DAV:   7    -0.137265647982E+04    0.13762E-06   -0.12398E-06   992   0.397E-03
  45 F= -.13726565E+04 E0= -.13726565E+04  d E =-.360549E-02
 BRION: g(F)=  0.448E-02 g(S)=  0.000E+00 retain N=  4 mean eig= 2.21
 eig:   3.218  3.218  1.198  1.198
 bond charge predicted
       N       E                     dE             d eps       ncg     rms          rms(c)
DAV:   1    -0.137266152043E+04   -0.50405E-02   -0.19578E-01  1368   0.624E-01    0.720E-02
DAV:   2    -0.137266253683E+04   -0.10164E-02   -0.10725E-02  2288   0.244E-01    0.350E-02
DAV:   3    -0.137266259801E+04   -0.61178E-04   -0.83736E-04  2560   0.490E-02    0.286E-02
DAV:   4    -0.137266258862E+04    0.93821E-05   -0.77259E-05  2584   0.203E-02    0.214E-02
DAV:   5    -0.137266257440E+04    0.14223E-04   -0.45694E-05  2320   0.147E-02    0.835E-03
DAV:   6    -0.137266257577E+04   -0.13678E-05   -0.34869E-05  2312   0.109E-02    0.784E-03
DAV:   7    -0.137266257547E+04    0.30029E-06   -0.99099E-06  1952   0.649E-03
  46 F= -.13726626E+04 E0= -.13726626E+04  d E =-.609564E-02
 BRION: g(F)=  0.460E-02 g(S)=  0.000E+00 retain N=  5 mean eig= 3.24
 eig:   1.530  1.530  3.277  3.277  6.586
 bond charge predicted
       N       E                     dE             d eps       ncg     rms          rms(c)
DAV:   1    -0.137263779038E+04    0.24785E-01   -0.15884E+00  1360   0.176E+00    0.201E-01
DAV:   2    -0.137264591173E+04   -0.81213E-02   -0.85221E-02  2296   0.690E-01    0.996E-02
DAV:   3    -0.137264634277E+04   -0.43105E-03   -0.62930E-03  2576   0.136E-01    0.789E-02
DAV:   4    -0.137264623735E+04    0.10543E-03   -0.55655E-04  2568   0.555E-02    0.566E-02
DAV:   5    -0.137264612286E+04    0.11449E-03   -0.37875E-04  2272   0.422E-02    0.199E-02
DAV:   6    -0.137264613861E+04   -0.15750E-04   -0.26096E-04  2400   0.292E-02    0.212E-02
DAV:   7    -0.137264613791E+04    0.70069E-06   -0.58090E-05  2456   0.150E-02    0.160E-02
DAV:   8    -0.137264613548E+04    0.24250E-05   -0.27582E-05  2392   0.989E-03    0.743E-03
DAV:   9    -0.137264613479E+04    0.69346E-06   -0.59114E-06  1472   0.586E-03
  47 F= -.13726461E+04 E0= -.13726461E+04  d E =0.164407E-01
 BRION: g(F)=  0.460E-02 g(S)=  0.000E+00 retain N=  6 mean eig= 3.14
 eig:   1.925  1.925  3.118  3.118  4.377  4.377
 bond charge predicted
       N       E                     dE             d eps       ncg     rms          rms(c)
DAV:   1    -0.137263054105E+04    0.15594E-01   -0.79609E-01  1344   0.124E+00    0.141E-01
DAV:   2    -0.137263453411E+04   -0.39931E-02   -0.41844E-02  2272   0.482E-01    0.699E-02
DAV:   3    -0.137263474797E+04   -0.21386E-03   -0.31041E-03  2568   0.969E-02    0.557E-02
DAV:   4    -0.137263469896E+04    0.49008E-04   -0.27833E-04  2576   0.383E-02    0.402E-02
DAV:   5    -0.137263464296E+04    0.55997E-04   -0.18411E-04  2288   0.292E-02    0.143E-02
DAV:   6    -0.137263465056E+04   -0.75994E-05   -0.12711E-04  2368   0.202E-02    0.148E-02
DAV:   7    -0.137263465020E+04    0.36247E-06   -0.28663E-05  2464   0.105E-02    0.113E-02
DAV:   8    -0.137263464888E+04    0.13213E-05   -0.13535E-05  1912   0.726E-03    0.504E-03
DAV:   9    -0.137263464848E+04    0.39990E-06   -0.21266E-06  1000   0.472E-03
  48 F= -.13726346E+04 E0= -.13726346E+04  d E =0.114863E-01
 BRION: g(F)=  0.465E-02 g(S)=  0.000E+00 retain N=  7 mean eig= 3.21
 eig:   6.104  6.104  3.300  3.300  1.813  1.813  0.039
 bond charge predicted
       N       E                     dE             d eps       ncg     rms          rms(c)
DAV:   1    -0.137264079096E+04   -0.61421E-02   -0.36466E-01  1344   0.844E-01    0.974E-02
DAV:   2    -0.137264262236E+04   -0.18314E-02   -0.19294E-02  2272   0.325E-01    0.465E-02
DAV:   3    -0.137264272152E+04   -0.99159E-04   -0.14248E-03  2560   0.672E-02    0.368E-02
DAV:   4    -0.137264269950E+04    0.22022E-04   -0.12898E-04  2552   0.261E-02    0.260E-02
DAV:   5    -0.137264267644E+04    0.23060E-04   -0.85868E-05  2256   0.196E-02    0.910E-03
DAV:   6    -0.137264267991E+04   -0.34733E-05   -0.52107E-05  2376   0.131E-02    0.104E-02
DAV:   7    -0.137264267934E+04    0.56979E-06   -0.11044E-05  2016   0.695E-03    0.719E-03
DAV:   8    -0.137264267855E+04    0.79253E-06   -0.47273E-06  1312   0.540E-03
  49 F= -.13726427E+04 E0= -.13726427E+04  d E =-.803007E-02
 BRION: g(F)=  0.454E-02 g(S)=  0.000E+00 retain N=  2 mean eig= 2.22
 eig:   1.662  2.776
 bond charge predicted
       N       E                     dE             d eps       ncg     rms          rms(c)
DAV:   1    -0.137264675732E+04   -0.40780E-02   -0.54058E+00  1320   0.323E+00    0.367E-01
DAV:   2    -0.137267344506E+04   -0.26688E-01   -0.27967E-01  2296   0.124E+00    0.181E-01
DAV:   3    -0.137267476244E+04   -0.13174E-02   -0.19990E-02  2568   0.249E-01    0.141E-01
DAV:   4    -0.137267436754E+04    0.39491E-03   -0.19517E-03  2536   0.100E-01    0.952E-02
DAV:   5    -0.137267405391E+04    0.31363E-03   -0.11947E-03  2272   0.739E-02    0.324E-02
DAV:   6    -0.137267410354E+04   -0.49630E-04   -0.67965E-04  2464   0.471E-02    0.350E-02
DAV:   7    -0.137267410127E+04    0.22636E-05   -0.13605E-04  2512   0.238E-02    0.257E-02
DAV:   8    -0.137267409395E+04    0.73183E-05   -0.78600E-05  2528   0.169E-02    0.110E-02
DAV:   9    -0.137267409427E+04   -0.31952E-06   -0.15715E-05  2136   0.911E-03    0.752E-03
DAV:  10    -0.137267409394E+04    0.33189E-06   -0.15219E-06   992   0.485E-03
  50 F= -.13726741E+04 E0= -.13726741E+04  d E =-.314154E-01
 BRION: g(F)=  0.477E-02 g(S)=  0.000E+00 retain N=  3 mean eig= 3.65
 eig:   3.783  2.004  5.148
 bond charge predicted
       N       E                     dE             d eps       ncg     rms          rms(c)
DAV:   1    -0.137267011256E+04    0.39817E-02   -0.68535E-02  1360   0.366E-01    0.426E-02
DAV:   2    -0.137267045971E+04   -0.34715E-03   -0.36515E-03  2296   0.141E-01    0.204E-02
DAV:   3    -0.137267047724E+04   -0.17530E-04   -0.26004E-04  2536   0.291E-02    0.164E-02
DAV:   4    -0.137267047294E+04    0.42971E-05   -0.25222E-05  2152   0.115E-02    0.112E-02
DAV:   5    -0.137267046877E+04    0.41663E-05   -0.16058E-05  2024   0.878E-03    0.409E-03
DAV:   6    -0.137267046930E+04   -0.52458E-06   -0.86312E-06  1792   0.596E-03
  51 F= -.13726705E+04 E0= -.13726705E+04  d E =0.362464E-02
 BRION: g(F)=  0.483E-02 g(S)=  0.000E+00 retain N=  4 mean eig= 4.62
 eig:   4.325  4.325  7.488  2.352
 bond charge predicted
       N       E                     dE             d eps       ncg     rms          rms(c)
DAV:   1    -0.137267121249E+04   -0.74372E-03   -0.23265E-03  1440   0.670E-02    0.753E-03
DAV:   2    -0.137267122395E+04   -0.11459E-04   -0.12072E-04  2176   0.258E-02    0.447E-03
DAV:   3    -0.137267122429E+04   -0.34238E-06   -0.80185E-06  1600   0.585E-03
  52 F= -.13726712E+04 E0= -.13726712E+04  d E =-.754993E-03
 BRION: g(F)=  0.477E-02 g(S)=  0.000E+00 retain N=  3 mean eig= 3.40
 eig:   5.514  1.149  3.522
 bond charge predicted
       N       E                     dE             d eps       ncg     rms          rms(c)
DAV:   1    -0.137264571118E+04    0.25513E-01   -0.19517E+00  1328   0.198E+00    0.220E-01
DAV:   2    -0.137265549160E+04   -0.97804E-02   -0.10259E-01  2272   0.754E-01    0.107E-01
DAV:   3    -0.137265607040E+04   -0.57880E-03   -0.77723E-03  2560   0.155E-01    0.867E-02
DAV:   4    -0.137265599095E+04    0.79456E-04   -0.65597E-04  2608   0.597E-02    0.669E-02
DAV:   5    -0.137265585098E+04    0.13997E-03   -0.40129E-04  2288   0.440E-02    0.267E-02
DAV:   6    -0.137265586225E+04   -0.11276E-04   -0.34848E-04  2296   0.341E-02    0.230E-02
DAV:   7    -0.137265586254E+04   -0.28392E-06   -0.10893E-04  2400   0.194E-02    0.177E-02
DAV:   8    -0.137265586106E+04    0.14750E-05   -0.38612E-05  2512   0.121E-02    0.923E-03
DAV:   9    -0.137265585985E+04    0.12110E-05   -0.12321E-05  2016   0.718E-03    0.506E-03
DAV:  10    -0.137265586002E+04   -0.16806E-06   -0.17620E-06   992   0.428E-03
  53 F= -.13726559E+04 E0= -.13726559E+04  d E =0.153643E-01
 BRION: g(F)=  0.476E-02 g(S)=  0.000E+00 retain N=  3 mean eig= 3.22
 eig:   7.396  1.127  1.127
 bond charge predicted
       N       E                     dE             d eps       ncg     rms          rms(c)
DAV:   1    -0.137266221896E+04   -0.63591E-02   -0.28830E-01  1376   0.772E-01    0.954E-02
DAV:   2    -0.137266390083E+04   -0.16819E-02   -0.17860E-02  2304   0.334E-01    0.495E-02
DAV:   3    -0.137266400116E+04   -0.10033E-03   -0.14120E-03  2520   0.651E-02    0.390E-02
DAV:   4    -0.137266398158E+04    0.19578E-04   -0.15871E-04  2608   0.294E-02    0.266E-02
DAV:   5    -0.137266396847E+04    0.13117E-04   -0.81144E-05  2336   0.182E-02    0.104E-02
DAV:   6    -0.137266397114E+04   -0.26720E-05   -0.39355E-05  2504   0.121E-02    0.920E-03
DAV:   7    -0.137266397077E+04    0.36438E-06   -0.17199E-05  2144   0.798E-03    0.609E-03
DAV:   8    -0.137266397041E+04    0.36502E-06   -0.43739E-06  1264   0.554E-03
  54 F= -.13726640E+04 E0= -.13726640E+04  d E =-.811039E-02
 BRION: g(F)=  0.525E-02 g(S)=  0.000E+00 retain N=  3 mean eig= 3.42
 eig:   0.277  5.822  4.171
 bond charge predicted
       N       E                     dE             d eps       ncg     rms          rms(c)
DAV:   1    -0.137266522842E+04   -0.12576E-02   -0.13928E-01  1384   0.544E-01    0.610E-02
DAV:   2    -0.137266596891E+04   -0.74050E-03   -0.77647E-03  2288   0.221E-01    0.316E-02
DAV:   3    -0.137266601799E+04   -0.49075E-04   -0.61360E-04  2584   0.413E-02    0.255E-02
DAV:   4    -0.137266601355E+04    0.44422E-05   -0.56156E-05  2568   0.181E-02    0.196E-02
DAV:   5    -0.137266600699E+04    0.65543E-05   -0.26106E-05  2328   0.108E-02    0.823E-03
DAV:   6    -0.137266600765E+04   -0.65796E-06   -0.19861E-05  2152   0.859E-03    0.519E-03
DAV:   7    -0.137266600779E+04   -0.14361E-06   -0.88693E-06  1776   0.603E-03
  55 F= -.13726660E+04 E0= -.13726660E+04  d E =-.203739E-02
 BRION: g(F)=  0.564E-02 g(S)=  0.000E+00 retain N=  4 mean eig= 5.10
 eig:   7.646  7.646  4.988  0.113
 bond charge predicted
       N       E                     dE             d eps       ncg     rms          rms(c)
DAV:   1    -0.137267276246E+04   -0.67548E-02   -0.16598E-01  1336   0.559E-01    0.704E-02
DAV:   2    -0.137267366606E+04   -0.90360E-03   -0.95826E-03  2288   0.232E-01    0.345E-02
DAV:   3    -0.137267370736E+04   -0.41300E-04   -0.71286E-04  2552   0.480E-02    0.263E-02
DAV:   4    -0.137267368895E+04    0.18414E-04   -0.83415E-05  2440   0.209E-02    0.154E-02
DAV:   5    -0.137267368223E+04    0.67132E-05   -0.44982E-05  2280   0.134E-02    0.666E-03
DAV:   6    -0.137267368292E+04   -0.68174E-06   -0.14289E-05  2200   0.757E-03    0.512E-03
DAV:   7    -0.137267368252E+04    0.39215E-06   -0.16157E-06  1016   0.460E-03
  56 F= -.13726737E+04 E0= -.13726737E+04  d E =-.767473E-02
 BRION: g(F)=  0.593E-02 g(S)=  0.000E+00 retain N=  4 mean eig= 3.51
 eig:   4.168  4.168  2.850  2.850
 bond charge predicted
       N       E                     dE             d eps       ncg     rms          rms(c)
DAV:   1    -0.137259924366E+04    0.74439E-01   -0.53396E+00  1352   0.320E+00    0.405E-01
DAV:   2    -0.137262928528E+04   -0.30042E-01   -0.31877E-01  2304   0.136E+00    0.205E-01
DAV:   3    -0.137263082639E+04   -0.15411E-02   -0.24904E-02  2512   0.269E-01    0.153E-01
DAV:   4    -0.137263026598E+04    0.56041E-03   -0.29501E-03  2480   0.124E-01    0.903E-02
DAV:   5    -0.137263008008E+04    0.18590E-03   -0.14251E-03  2376   0.750E-02    0.379E-02
DAV:   6    -0.137263010792E+04   -0.27840E-04   -0.47909E-04  2560   0.416E-02    0.269E-02
DAV:   7    -0.137263010802E+04   -0.98298E-07   -0.14467E-04  2568   0.249E-02    0.181E-02
DAV:   8    -0.137263010920E+04   -0.11850E-05   -0.75628E-05  2576   0.162E-02    0.125E-02
DAV:   9    -0.137263010782E+04    0.13802E-05   -0.15464E-05  2176   0.940E-03    0.855E-03
DAV:  10    -0.137263010740E+04    0.41942E-06   -0.11197E-05  1568   0.688E-03    0.393E-03
DAV:  11    -0.137263010718E+04    0.21905E-06   -0.13182E-06   992   0.540E-03
  57 F= -.13726301E+04 E0= -.13726301E+04  d E =0.435753E-01
 BRION: g(F)=  0.441E-02 g(S)=  0.000E+00 retain N=  5 mean eig= 4.39
 eig:   6.593  6.593  3.347  3.347  2.073
 bond charge predicted
       N       E                     dE             d eps       ncg     rms          rms(c)
DAV:   1    -0.137262339901E+04    0.67084E-02   -0.21833E-01  1368   0.661E-01    0.763E-02
DAV:   2    -0.137262452753E+04   -0.11285E-02   -0.11915E-02  2280   0.257E-01    0.373E-02
DAV:   3    -0.137262459559E+04   -0.68064E-04   -0.93529E-04  2576   0.525E-02    0.304E-02
DAV:   4    -0.137262458356E+04    0.12027E-04   -0.79812E-05  2568   0.212E-02    0.226E-02
DAV:   5    -0.137262456754E+04    0.16026E-04   -0.56525E-05  2208   0.156E-02    0.801E-03
DAV:   6    -0.137262456990E+04   -0.23637E-05   -0.38130E-05  2328   0.111E-02    0.888E-03
DAV:   7    -0.137262456940E+04    0.49773E-06   -0.82827E-06  1760   0.624E-03
  58 F= -.13726246E+04 E0= -.13726246E+04  d E =0.553778E-02
 BRION: g(F)=  0.437E-02 g(S)=  0.000E+00 retain N=  6 mean eig= 5.20
 eig:   7.003  7.003  5.205  5.830  5.830  0.359
 bond charge predicted
       N       E                     dE             d eps       ncg     rms          rms(c)
DAV:   1    -0.137259912633E+04    0.25444E-01   -0.17707E+00  1328   0.186E+00    0.211E-01
DAV:   2    -0.137260809477E+04   -0.89684E-02   -0.94191E-02  2264   0.714E-01    0.103E-01
DAV:   3    -0.137260861828E+04   -0.52351E-03   -0.72946E-03  2576   0.148E-01    0.828E-02
DAV:   4    -0.137260851873E+04    0.99544E-04   -0.60850E-04  2592   0.574E-02    0.609E-02
DAV:   5    -0.137260838696E+04    0.13177E-03   -0.39603E-04  2216   0.430E-02    0.217E-02
DAV:   6    -0.137260840479E+04   -0.17829E-04   -0.30969E-04  2360   0.305E-02    0.229E-02
DAV:   7    -0.137260840443E+04    0.36383E-06   -0.65865E-05  2440   0.155E-02    0.183E-02
DAV:   8    -0.137260840139E+04    0.30326E-05   -0.32406E-05  2432   0.105E-02    0.894E-03
DAV:   9    -0.137260840021E+04    0.11826E-05   -0.10676E-05  1920   0.686E-03    0.487E-03
DAV:  10    -0.137260840027E+04   -0.62719E-07   -0.14521E-06  1000   0.426E-03
  59 F= -.13726084E+04 E0= -.13726084E+04  d E =0.161691E-01
 BRION: g(F)=  0.440E-02 g(S)=  0.000E+00 retain N=  5 mean eig= 4.90
 eig:   7.932  7.932  6.408  1.690  0.530
 bond charge predicted
       N       E                     dE             d eps       ncg     rms          rms(c)
DAV:   1    -0.137261707340E+04   -0.86732E-02   -0.24029E+00  1328   0.215E+00    0.250E-01
DAV:   2    -0.137262918770E+04   -0.12114E-01   -0.12759E-01  2288   0.831E-01    0.122E-01
DAV:   3    -0.137262980154E+04   -0.61384E-03   -0.93548E-03  2568   0.173E-01    0.958E-02
DAV:   4    -0.137262961790E+04    0.18364E-03   -0.88759E-04  2536   0.684E-02    0.642E-02
DAV:   5    -0.137262947558E+04    0.14232E-03   -0.58028E-04  2240   0.500E-02    0.219E-02
DAV:   6    -0.137262949839E+04   -0.22804E-04   -0.30299E-04  2472   0.314E-02    0.250E-02
DAV:   7    -0.137262949638E+04    0.20096E-05   -0.68332E-05  2536   0.164E-02    0.173E-02
DAV:   8    -0.137262949250E+04    0.38720E-05   -0.36038E-05  2488   0.117E-02    0.730E-03
DAV:   9    -0.137262949265E+04   -0.14840E-06   -0.53047E-06  1256   0.656E-03
  60 F= -.13726295E+04 E0= -.13726295E+04  d E =-.210924E-01
 BRION: g(F)=  0.431E-02 g(S)=  0.000E+00 retain N=  1 mean eig= 4.47
 eig:   4.475
 bond charge predicted
       N       E                     dE             d eps       ncg     rms          rms(c)
DAV:   1    -0.137263842374E+04   -0.89312E-02   -0.10501E+00  1320   0.141E+00    0.162E-01
DAV:   2    -0.137264356564E+04   -0.51419E-02   -0.53923E-02  2288   0.542E-01    0.809E-02
DAV:   3    -0.137264379107E+04   -0.22543E-03   -0.37521E-03  2568   0.110E-01    0.622E-02
DAV:   4    -0.137264369205E+04    0.99017E-04   -0.39820E-04  2464   0.452E-02    0.387E-02
DAV:   5    -0.137264364183E+04    0.50223E-04   -0.25000E-04  2272   0.324E-02    0.136E-02
DAV:   6    -0.137264365002E+04   -0.81884E-05   -0.10342E-04  2416   0.188E-02    0.138E-02
DAV:   7    -0.137264364966E+04    0.35558E-06   -0.22764E-05  2504   0.979E-03    0.915E-03
DAV:   8    -0.137264364850E+04    0.11624E-05   -0.94750E-06  1800   0.702E-03    0.382E-03
DAV:   9    -0.137264364856E+04   -0.64043E-07   -0.19757E-06  1024   0.501E-03
  61 F= -.13726436E+04 E0= -.13726436E+04  d E =-.141559E-01
 BRION: g(F)=  0.434E-02 g(S)=  0.000E+00 retain N=  2 mean eig= 5.04
 eig:   5.039  5.039
 bond charge predicted
       N       E                     dE             d eps       ncg     rms          rms(c)
DAV:   1    -0.137264570605E+04   -0.20575E-02   -0.25190E-02  1376   0.221E-01    0.250E-02
DAV:   2    -0.137264583080E+04   -0.12476E-03   -0.13119E-03  2280   0.856E-02    0.130E-02
DAV:   3    -0.137264583731E+04   -0.65089E-05   -0.10003E-04  2504   0.174E-02    0.996E-03
DAV:   4    -0.137264583518E+04    0.21349E-05   -0.76795E-06  1680   0.735E-03    0.682E-03
DAV:   5    -0.137264583366E+04    0.15218E-05   -0.97022E-06  1784   0.660E-03    0.231E-03
DAV:   6    -0.137264583378E+04   -0.12068E-06   -0.17917E-06  1024   0.443E-03
  62 F= -.13726458E+04 E0= -.13726458E+04  d E =-.218521E-02
 BRION: g(F)=  0.431E-02 g(S)=  0.000E+00 retain N=  3 mean eig= 3.88
 eig:   4.886  4.886  1.855
 bond charge predicted
       N       E                     dE             d eps       ncg     rms          rms(c)
DAV:   1    -0.137265203952E+04   -0.62059E-02   -0.25333E-01  1376   0.713E-01    0.851E-02
DAV:   2    -0.137265348134E+04   -0.14418E-02   -0.15326E-02  2296   0.296E-01    0.410E-02
DAV:   3    -0.137265357379E+04   -0.92449E-04   -0.12310E-03  2552   0.595E-02    0.342E-02
DAV:   4    -0.137265356160E+04    0.12191E-04   -0.11536E-04  2624   0.254E-02    0.259E-02
DAV:   5    -0.137265354276E+04    0.18842E-04   -0.63945E-05  2352   0.172E-02    0.108E-02
DAV:   6    -0.137265354424E+04   -0.14753E-05   -0.51825E-05  2280   0.133E-02    0.980E-03
DAV:   7    -0.137265354380E+04    0.43650E-06   -0.21091E-05  2216   0.882E-03    0.722E-03
DAV:   8    -0.137265354318E+04    0.62374E-06   -0.45521E-06  1288   0.582E-03
  63 F= -.13726535E+04 E0= -.13726535E+04  d E =-.770940E-02
 BRION: g(F)=  0.437E-02 g(S)=  0.000E+00 retain N=  4 mean eig= 4.81
 eig:   7.055  7.055  3.450  1.673
 bond charge predicted
       N       E                     dE             d eps       ncg     rms          rms(c)
DAV:   1    -0.137265624780E+04   -0.27040E-02   -0.33211E-02  1400   0.262E-01    0.323E-02
DAV:   2    -0.137265645451E+04   -0.20671E-03   -0.21969E-03  2296   0.116E-01    0.161E-02
DAV:   3    -0.137265646745E+04   -0.12940E-04   -0.17320E-04  2544   0.229E-02    0.132E-02
DAV:   4    -0.137265646557E+04    0.18763E-05   -0.17405E-05  2200   0.102E-02    0.998E-03
DAV:   5    -0.137265646297E+04    0.26035E-05   -0.82008E-06  1768   0.707E-03    0.421E-03
DAV:   6    -0.137265646331E+04   -0.33750E-06   -0.98945E-06  1776   0.616E-03
  64 F= -.13726565E+04 E0= -.13726565E+04  d E =-.292013E-02
 BRION: g(F)=  0.434E-02 g(S)=  0.000E+00 retain N=  5 mean eig= 4.37
 eig:   7.459  7.459  3.545  2.129  1.254
 bond charge predicted
       N       E                     dE             d eps       ncg     rms          rms(c)
DAV:   1    -0.137266195353E+04   -0.54906E-02   -0.12566E-01  1424   0.522E-01    0.699E-02
DAV:   2    -0.137266285929E+04   -0.90576E-03   -0.98961E-03  2400   0.256E-01    0.341E-02
DAV:   3    -0.137266291153E+04   -0.52246E-04   -0.69442E-04  2528   0.537E-02    0.282E-02
DAV:   4    -0.137266290639E+04    0.51394E-05   -0.87317E-05  2624   0.217E-02    0.209E-02
DAV:   5    -0.137266290087E+04    0.55253E-05   -0.43855E-05  2440   0.136E-02    0.924E-03
DAV:   6    -0.137266290233E+04   -0.14633E-05   -0.23485E-05  2288   0.915E-03    0.772E-03
DAV:   7    -0.137266290207E+04    0.25828E-06   -0.14017E-05  2016   0.716E-03    0.518E-03
DAV:   8    -0.137266290176E+04    0.31870E-06   -0.21631E-06  1008   0.506E-03
  65 F= -.13726629E+04 E0= -.13726629E+04  d E =-.643845E-02
 BRION: g(F)=  0.457E-02 g(S)=  0.000E+00 retain N=  5 mean eig= 3.68
 eig:   6.895  3.823  3.823  2.386  1.485
 bond charge predicted
       N       E                     dE             d eps       ncg     rms          rms(c)
DAV:   1    -0.137266386117E+04   -0.95910E-03   -0.88236E-03  1368   0.128E-01    0.144E-02
DAV:   2    -0.137266390133E+04   -0.40155E-04   -0.41838E-04  2272   0.489E-02    0.767E-03
DAV:   3    -0.137266390290E+04   -0.15739E-05   -0.28522E-05  2024   0.955E-03    0.570E-03
DAV:   4    -0.137266390176E+04    0.11445E-05   -0.25162E-06  1080   0.517E-03    0.318E-03
DAV:   5    -0.137266390175E+04    0.60973E-08   -0.67362E-06  1552   0.519E-03
  66 F= -.13726639E+04 E0= -.13726639E+04  d E =-.999995E-03
 BRION: g(F)=  0.450E-02 g(S)=  0.000E+00 retain N=  6 mean eig= 3.69
 eig:   6.890  4.347  4.347  2.984  1.473  2.089
 bond charge predicted
       N       E                     dE             d eps       ncg     rms          rms(c)
DAV:   1    -0.137266453900E+04   -0.63724E-03   -0.20786E-03  1488   0.674E-02    0.998E-03
DAV:   2    -0.137266455459E+04   -0.15588E-04   -0.17314E-04  2520   0.348E-02    0.507E-03
DAV:   3    -0.137266455493E+04   -0.34057E-06   -0.77825E-06  1616   0.767E-03
  67 F= -.13726646E+04 E0= -.13726646E+04  d E =-.653177E-03
 BRION: g(F)=  0.460E-02 g(S)=  0.000E+00 retain N=  7 mean eig= 4.29
 eig:   7.211  7.211  6.638  3.247  1.478  1.838  2.429
 bond charge predicted
       N       E                     dE             d eps       ncg     rms          rms(c)
DAV:   1    -0.137266249479E+04    0.20598E-02   -0.46314E-02  1328   0.296E-01    0.354E-02
DAV:   2    -0.137266272157E+04   -0.22678E-03   -0.23738E-03  2296   0.116E-01    0.174E-02
DAV:   3    -0.137266273164E+04   -0.10074E-04   -0.16652E-04  2520   0.227E-02    0.134E-02
DAV:   4    -0.137266272731E+04    0.43310E-05   -0.17759E-05  1952   0.966E-03    0.811E-03
DAV:   5    -0.137266272544E+04    0.18708E-05   -0.13454E-05  2000   0.769E-03    0.319E-03
DAV:   6    -0.137266272553E+04   -0.92536E-07   -0.17043E-06  1024   0.437E-03
  68 F= -.13726627E+04 E0= -.13726627E+04  d E =0.182939E-02
 BRION: g(F)=  0.454E-02 g(S)=  0.000E+00 retain N=  6 mean eig= 3.88
 eig:   7.504  7.504  3.670  2.240  0.874  1.488
 bond charge predicted
       N       E                     dE             d eps       ncg     rms          rms(c)
DAV:   1    -0.137265045300E+04    0.12272E-01   -0.36082E-01  1384   0.857E-01    0.107E-01
DAV:   2    -0.137265277963E+04   -0.23266E-02   -0.24865E-02  2320   0.386E-01    0.525E-02
DAV:   3    -0.137265292305E+04   -0.14342E-03   -0.19269E-03  2528   0.777E-02    0.427E-02
DAV:   4    -0.137265290144E+04    0.21608E-04   -0.19839E-04  2568   0.333E-02    0.309E-02
DAV:   5    -0.137265287894E+04    0.22498E-04   -0.10192E-04  2368   0.210E-02    0.119E-02
DAV:   6    -0.137265288292E+04   -0.39800E-05   -0.67236E-05  2368   0.146E-02    0.109E-02
DAV:   7    -0.137265288277E+04    0.15272E-06   -0.28375E-05  2352   0.997E-03    0.799E-03
DAV:   8    -0.137265288226E+04    0.50678E-06   -0.85766E-06  1688   0.650E-03
  69 F= -.13726529E+04 E0= -.13726529E+04  d E =0.984327E-02
 BRION: g(F)=  0.431E-02 g(S)=  0.000E+00 retain N=  4 mean eig= 3.35
 eig:   5.594  5.594  1.128  1.091
 bond charge predicted
       N       E                     dE             d eps       ncg     rms          rms(c)
DAV:   1    -0.137264311694E+04    0.97658E-02   -0.55217E-01  1352   0.104E+00    0.124E-01
DAV:   2    -0.137264604658E+04   -0.29296E-02   -0.31164E-02  2304   0.410E-01    0.611E-02
DAV:   3    -0.137264622171E+04   -0.17513E-03   -0.25077E-03  2568   0.863E-02    0.481E-02
DAV:   4    -0.137264618188E+04    0.39828E-04   -0.24128E-04  2568   0.361E-02    0.321E-02
DAV:   5    -0.137264615395E+04    0.27934E-04   -0.13888E-04  2328   0.236E-02    0.117E-02
DAV:   6    -0.137264615872E+04   -0.47669E-05   -0.66241E-05  2504   0.149E-02    0.115E-02
DAV:   7    -0.137264615838E+04    0.33386E-06   -0.23076E-05  2464   0.945E-03    0.739E-03
DAV:   8    -0.137264615759E+04    0.79548E-06   -0.32847E-06  1160   0.585E-03
  70 F= -.13726462E+04 E0= -.13726462E+04  d E =0.672468E-02
 BRION: g(F)=  0.402E-02 g(S)=  0.000E+00 retain N=  3 mean eig= 4.37
 eig:   6.446  6.446  0.227
 bond charge predicted
       N       E                     dE             d eps       ncg     rms          rms(c)
DAV:   1    -0.137262166970E+04    0.24489E-01   -0.18185E+00  1384   0.189E+00    0.226E-01
DAV:   2    -0.137263179446E+04   -0.10125E-01   -0.10752E-01  2288   0.768E-01    0.112E-01
DAV:   3    -0.137263242894E+04   -0.63448E-03   -0.88901E-03  2568   0.160E-01    0.881E-02
DAV:   4    -0.137263228734E+04    0.14160E-03   -0.81591E-04  2560   0.674E-02    0.598E-02
DAV:   5    -0.137263218588E+04    0.10146E-03   -0.43874E-04  2336   0.420E-02    0.212E-02
DAV:   6    -0.137263220090E+04   -0.15012E-04   -0.23971E-04  2464   0.274E-02    0.189E-02
DAV:   7    -0.137263220122E+04   -0.32558E-06   -0.73653E-05  2480   0.167E-02    0.136E-02
DAV:   8    -0.137263220034E+04    0.88058E-06   -0.32309E-05  2536   0.109E-02    0.716E-03
DAV:   9    -0.137263219989E+04    0.45024E-06   -0.33266E-06  1208   0.555E-03
  71 F= -.13726322E+04 E0= -.13726322E+04  d E =0.139577E-01
 BRION: g(F)=  0.382E-02 g(S)=  0.000E+00 retain N=  2 mean eig= 6.01
 eig:   6.012  6.012
 bond charge predicted
[...]
 eig:   7.334  7.334
 bond charge predicted
       N       E                     dE             d eps       ncg     rms          rms(c)
DAV:   1    -0.137259694837E+04    0.53569E-01   -0.54378E+00  1328   0.321E+00    0.367E-01
DAV:   2    -0.137262370649E+04   -0.26758E-01   -0.28082E-01  2288   0.125E+00    0.185E-01
DAV:   3    -0.137262493170E+04   -0.12252E-02   -0.19622E-02  2576   0.254E-01    0.143E-01
DAV:   4    -0.137262450248E+04    0.42922E-03   -0.19347E-03  2504   0.101E-01    0.945E-02
DAV:   5    -0.137262420845E+04    0.29403E-03   -0.12438E-03  2184   0.733E-02    0.328E-02
DAV:   6    -0.137262425898E+04   -0.50531E-04   -0.65650E-04  2440   0.451E-02    0.368E-02
DAV:   7    -0.137262425535E+04    0.36305E-05   -0.15215E-04  2520   0.241E-02    0.256E-02
DAV:   8    -0.137262424698E+04    0.83678E-05   -0.81968E-05  2512   0.178E-02    0.107E-02
DAV:   9    -0.137262424810E+04   -0.11167E-05   -0.18763E-05  2176   0.998E-03    0.750E-03
DAV:  10    -0.137262424792E+04    0.17468E-06   -0.36825E-06  1296   0.499E-03
 280 F= -.13726242E+04 E0= -.13726242E+04  d E =0.262693E-01
 BRION: g(F)=  0.299E-02 g(S)=  0.000E+00 retain N=  1 mean eig= 5.47
 eig:   5.467
 bond charge predicted
       N       E                     dE             d eps       ncg     rms          rms(c)
DAV:   1    -0.137259566561E+04    0.28582E-01   -0.14038E+01  1328   0.516E+00    0.590E-01
DAV:   2    -0.137266487442E+04   -0.69209E-01   -0.72609E-01  2264   0.201E+00    0.294E-01
DAV:   3    -0.137266837572E+04   -0.35013E-02   -0.52920E-02  2568   0.404E-01    0.229E-01
DAV:   4    -0.137266737361E+04    0.10021E-02   -0.49221E-03  2496   0.160E-01    0.156E-01
DAV:   5    -0.137266656215E+04    0.81145E-03   -0.30582E-03  2192   0.115E-01    0.543E-02
DAV:   6    -0.137266668644E+04   -0.12429E-03   -0.18020E-03  2408   0.740E-02    0.577E-02
DAV:   7    -0.137266668042E+04    0.60234E-05   -0.40226E-04  2544   0.398E-02    0.426E-02
DAV:   8    -0.137266665981E+04    0.20608E-04   -0.22752E-04  2488   0.283E-02    0.185E-02
DAV:   9    -0.137266666033E+04   -0.51434E-06   -0.47468E-05  2440   0.151E-02    0.129E-02
DAV:  10    -0.137266665964E+04    0.68285E-06   -0.11284E-05  2072   0.803E-03    0.630E-03
DAV:  11    -0.137266665968E+04   -0.41924E-07   -0.68718E-06  1616   0.592E-03
 281 F= -.13726667E+04 E0= -.13726667E+04  d E =-.424118E-01
 BRION: g(F)=  0.290E-02 g(S)=  0.000E+00 retain N=  1 mean eig= 0.53
 eig:   0.527
 bond charge predicted
       N       E                     dE             d eps       ncg     rms          rms(c)
DAV:   1    -0.137266876371E+04   -0.21041E-02   -0.49774E-02  1376   0.316E-01    0.382E-02
DAV:   2    -0.137266900175E+04   -0.23805E-03   -0.25659E-03  2296   0.123E-01    0.194E-02
DAV:   3    -0.137266901105E+04   -0.92949E-05   -0.18607E-04  2552   0.271E-02    0.156E-02
DAV:   4    -0.137266900588E+04    0.51719E-05   -0.23542E-05  2200   0.113E-02    0.975E-03
DAV:   5    -0.137266900284E+04    0.30364E-05   -0.18795E-05  2064   0.980E-03    0.492E-03
DAV:   6    -0.137266900330E+04   -0.46022E-06   -0.10389E-05  1864   0.668E-03    0.496E-03
DAV:   7    -0.137266900297E+04    0.33078E-06   -0.16640E-06  1000   0.442E-03
 282 F= -.13726690E+04 E0= -.13726690E+04  d E =-.234329E-02
 BRION: g(F)=  0.293E-02 g(S)=  0.000E+00 retain N=  2 mean eig= 0.93
 eig:   0.763  1.103
 bond charge predicted
       N       E                     dE             d eps       ncg     rms          rms(c)
DAV:   1    -0.137267254570E+04   -0.35424E-02   -0.13762E-01  1344   0.512E-01    0.587E-02
DAV:   2    -0.137267323386E+04   -0.68816E-03   -0.72286E-03  2288   0.200E-01    0.292E-02
DAV:   3    -0.137267326626E+04   -0.32394E-04   -0.50368E-04  2576   0.413E-02    0.229E-02
DAV:   4    -0.137267325628E+04    0.99765E-05   -0.51681E-05  2416   0.164E-02    0.152E-02
DAV:   5    -0.137267324932E+04    0.69620E-05   -0.31328E-05  2208   0.115E-02    0.558E-03
DAV:   6    -0.137267325044E+04   -0.11243E-05   -0.15752E-05  2208   0.725E-03    0.577E-03
DAV:   7    -0.137267325000E+04    0.44258E-06   -0.15944E-06  1016   0.439E-03
 283 F= -.13726732E+04 E0= -.13726732E+04  d E =-.424703E-02
 BRION: g(F)=  0.293E-02 g(S)=  0.000E+00 retain N=  1 mean eig= 0.42
 eig:   0.419
 bond charge predicted
       N       E                     dE             d eps       ncg     rms          rms(c)
DAV:   1    -0.137267388268E+04   -0.63224E-03   -0.47566E-03  1392   0.998E-02    0.127E-02
DAV:   2    -0.137267390796E+04   -0.25277E-04   -0.27838E-04  2328   0.393E-02    0.685E-03
DAV:   3    -0.137267390904E+04   -0.10859E-05   -0.21136E-05  2232   0.926E-03    0.574E-03
DAV:   4    -0.137267390835E+04    0.69504E-06   -0.15645E-06  1008   0.474E-03
 284 F= -.13726739E+04 E0= -.13726739E+04  d E =-.658349E-03
 BRION: g(F)=  0.302E-02 g(S)=  0.000E+00 retain N=  2 mean eig= 1.98
 eig:   1.980  1.980
 bond charge predicted
       N       E                     dE             d eps       ncg     rms          rms(c)
DAV:   1    -0.137267755152E+04   -0.36425E-02   -0.75322E-02  1320   0.378E-01    0.441E-02
DAV:   2    -0.137267793266E+04   -0.38114E-03   -0.40522E-03  2320   0.148E-01    0.218E-02
DAV:   3    -0.137267795148E+04   -0.18818E-04   -0.28873E-04  2552   0.324E-02    0.163E-02
DAV:   4    -0.137267794700E+04    0.44742E-05   -0.31750E-05  2320   0.130E-02    0.103E-02
DAV:   5    -0.137267794462E+04    0.23829E-05   -0.15660E-05  2152   0.849E-03    0.432E-03
DAV:   6    -0.137267794466E+04   -0.40047E-07   -0.31092E-06  1192   0.518E-03
 285 F= -.13726779E+04 E0= -.13726779E+04  d E =-.403631E-02
 BRION: g(F)=  0.310E-02 g(S)=  0.000E+00 retain N=  3 mean eig= 2.29
 eig:   1.842  1.842  3.183
 bond charge predicted
       N       E                     dE             d eps       ncg     rms          rms(c)
DAV:   1    -0.137267791269E+04    0.31924E-04   -0.98197E-06  1576   0.597E-03    0.219E-03
DAV:   2    -0.137267791262E+04    0.78420E-07   -0.84548E-07   944   0.389E-03
 286 F= -.13726779E+04 E0= -.13726779E+04  d E =0.320423E-04
 BRION: g(F)=  0.307E-02 g(S)=  0.000E+00 retain N=  4 mean eig= 2.88
 eig:   7.528  1.834  1.834  0.335
 bond charge predicted
       N       E                     dE             d eps       ncg     rms          rms(c)
DAV:   1    -0.137267055948E+04    0.73532E-02   -0.27297E-01  1312   0.696E-01    0.805E-02
DAV:   2    -0.137267177382E+04   -0.12143E-02   -0.12703E-02  2320   0.268E-01    0.411E-02
DAV:   3    -0.137267180699E+04   -0.33177E-04   -0.74978E-04  2576   0.544E-02    0.308E-02
DAV:   4    -0.137267177674E+04    0.30257E-04   -0.11497E-04  2288   0.238E-02    0.158E-02
DAV:   5    -0.137267177220E+04    0.45383E-05   -0.61618E-05  2280   0.156E-02    0.900E-03
DAV:   6    -0.137267177242E+04   -0.22049E-06   -0.17304E-05  2096   0.830E-03    0.460E-03
DAV:   7    -0.137267177223E+04    0.18715E-06   -0.15067E-06   992   0.476E-03
 287 F= -.13726718E+04 E0= -.13726718E+04  d E =0.614038E-02
 BRION: g(F)=  0.304E-02 g(S)=  0.000E+00 retain N=  5 mean eig= 3.02
 eig:   5.168  5.168  2.294  2.294  0.154
 bond charge predicted
       N       E                     dE             d eps       ncg     rms          rms(c)
DAV:   1    -0.137264148198E+04    0.30290E-01   -0.28892E+00  1312   0.228E+00    0.259E-01
DAV:   2    -0.137265373046E+04   -0.12248E-01   -0.12815E-01  2304   0.869E-01    0.134E-01
DAV:   3    -0.137265404148E+04   -0.31101E-03   -0.74480E-03  2576   0.173E-01    0.998E-02
DAV:   4    -0.137265373561E+04    0.30587E-03   -0.11957E-03  2336   0.761E-02    0.514E-02
DAV:   5    -0.137265369448E+04    0.41129E-04   -0.64300E-04  2344   0.490E-02    0.300E-02
DAV:   6    -0.137265369517E+04   -0.69189E-06   -0.17072E-04  2528   0.253E-02    0.142E-02
DAV:   7    -0.137265369607E+04   -0.89932E-06   -0.40625E-05  2536   0.137E-02    0.884E-03
DAV:   8    -0.137265369635E+04   -0.28408E-06   -0.12043E-05  1952   0.736E-03    0.577E-03
DAV:   9    -0.137265369566E+04    0.69306E-06   -0.71682E-06  1552   0.669E-03
 288 F= -.13726537E+04 E0= -.13726537E+04  d E =0.180766E-01
 BRION: g(F)=  0.305E-02 g(S)=  0.000E+00 retain N=  5 mean eig= 3.07
 eig:   5.577  5.577  3.180  0.792  0.239
 bond charge predicted
       N       E                     dE             d eps       ncg     rms          rms(c)
DAV:   1    -0.137262861220E+04    0.25084E-01   -0.27508E+00  1312   0.223E+00    0.250E-01
DAV:   2    -0.137264027747E+04   -0.11665E-01   -0.12126E-01  2288   0.851E-01    0.128E-01
DAV:   3    -0.137264060330E+04   -0.32583E-03   -0.70657E-03  2600   0.166E-01    0.987E-02
DAV:   4    -0.137264032727E+04    0.27603E-03   -0.95050E-04  2416   0.694E-02    0.564E-02
DAV:   5    -0.137264024290E+04    0.84364E-04   -0.70052E-04  2152   0.518E-02    0.260E-02
DAV:   6    -0.137264025374E+04   -0.10841E-04   -0.20713E-04  2416   0.281E-02    0.216E-02
DAV:   7    -0.137264025350E+04    0.24057E-06   -0.74020E-05  2464   0.153E-02    0.124E-02
DAV:   8    -0.137264025158E+04    0.19233E-05   -0.21370E-05  2072   0.956E-03    0.679E-03
DAV:   9    -0.137264025202E+04   -0.44264E-06   -0.12414E-05  1792   0.707E-03    0.431E-03
DAV:  10    -0.137264025154E+04    0.48582E-06   -0.12946E-06   992   0.483E-03
 289 F= -.13726403E+04 E0= -.13726403E+04  d E =0.134441E-01
 BRION: g(F)=  0.338E-02 g(S)=  0.000E+00 retain N=  3 mean eig= 1.56
 eig:   2.634  1.607  0.453
 bond charge predicted
       N       E                     dE             d eps       ncg     rms          rms(c)
DAV:   1    -0.137263721501E+04    0.30370E-02   -0.66249E+00  1312   0.342E+00    0.389E-01
DAV:   2    -0.137266420151E+04   -0.26987E-01   -0.28098E-01  2296   0.130E+00    0.200E-01
DAV:   3    -0.137266475782E+04   -0.55631E-03   -0.15512E-02  2600   0.250E-01    0.149E-01
DAV:   4    -0.137266395343E+04    0.80439E-03   -0.27765E-03  2128   0.118E-01    0.687E-02
DAV:   5    -0.137266393844E+04    0.14989E-04   -0.16063E-03  2344   0.733E-02    0.487E-02
DAV:   6    -0.137266392759E+04    0.10851E-04   -0.45011E-04  2520   0.395E-02    0.182E-02
DAV:   7    -0.137266393002E+04   -0.24268E-05   -0.69115E-05  2448   0.206E-02    0.119E-02
DAV:   8    -0.137266393088E+04   -0.85960E-06   -0.24325E-05  2336   0.945E-03    0.580E-03
DAV:   9    -0.137266393010E+04    0.78078E-06   -0.11071E-05  1808   0.784E-03    0.245E-03
DAV:  10    -0.137266393052E+04   -0.42029E-06   -0.47918E-06  1392   0.504E-03
 290 F= -.13726639E+04 E0= -.13726639E+04  d E =-.236790E-01
 BRION: g(F)=  0.291E-02 g(S)=  0.000E+00 retain N=  2 mean eig= 0.43
 eig:   0.780  0.070
 bond charge predicted
       N       E                     dE             d eps       ncg     rms          rms(c)
DAV:   1    -0.137266658385E+04   -0.26538E-02   -0.18281E-01  1320   0.579E-01    0.647E-02
DAV:   2    -0.137266737294E+04   -0.78909E-03   -0.82201E-03  2288   0.220E-01    0.331E-02
DAV:   3    -0.137266739734E+04   -0.24394E-04   -0.48942E-04  2600   0.440E-02    0.261E-02
DAV:   4    -0.137266738136E+04    0.15972E-04   -0.61819E-05  2368   0.175E-02    0.160E-02
DAV:   5    -0.137266737372E+04    0.76405E-05   -0.48841E-05  2128   0.140E-02    0.662E-03
DAV:   6    -0.137266737496E+04   -0.12336E-05   -0.16825E-05  2192   0.781E-03    0.689E-03
DAV:   7    -0.137266737444E+04    0.51648E-06   -0.19959E-06  1056   0.432E-03
 291 F= -.13726674E+04 E0= -.13726674E+04  d E =-.344392E-02
 BRION: g(F)=  0.290E-02 g(S)=  0.000E+00 retain N=  3 mean eig= 0.90
 eig:   0.924  0.883  0.883
 bond charge predicted
       N       E                     dE             d eps       ncg     rms          rms(c)
DAV:   1    -0.137266747747E+04   -0.10251E-03   -0.11222E-04  1664   0.158E-02    0.284E-03
DAV:   2    -0.137266747810E+04   -0.63755E-06   -0.81581E-06  1760   0.684E-03
 292 F= -.13726675E+04 E0= -.13726675E+04  d E =-.103663E-03
 BRION: g(F)=  0.287E-02 g(S)=  0.000E+00 retain N=  4 mean eig= 1.38
 eig:   2.529  1.057  1.057  0.892
 bond charge predicted
       N       E                     dE             d eps       ncg     rms          rms(c)
DAV:   1    -0.137266669800E+04    0.77947E-03   -0.54073E-02  1352   0.328E-01    0.358E-02
DAV:   2    -0.137266695585E+04   -0.25786E-03   -0.26920E-03  2280   0.128E-01    0.184E-02
DAV:   3    -0.137266696967E+04   -0.13819E-04   -0.19261E-04  2568   0.234E-02    0.158E-02
DAV:   4    -0.137266696718E+04    0.24882E-05   -0.14299E-05  2088   0.932E-03    0.123E-02
DAV:   5    -0.137266696258E+04    0.46079E-05   -0.18810E-05  1984   0.830E-03    0.412E-03
DAV:   6    -0.137266696347E+04   -0.89691E-06   -0.10671E-05  1960   0.613E-03    0.550E-03
DAV:   7    -0.137266696304E+04    0.43430E-06   -0.13134E-06  1008   0.378E-03
 293 F= -.13726670E+04 E0= -.13726670E+04  d E =0.515064E-03
 BRION: g(F)=  0.303E-02 g(S)=  0.000E+00 retain N=  5 mean eig= 1.74
 eig:   2.716  3.174  1.080  1.080  0.663
 bond charge predicted
       N       E                     dE             d eps       ncg     rms          rms(c)
DAV:   1    -0.137266726931E+04   -0.30584E-03   -0.79753E-02  1368   0.409E-01    0.464E-02
DAV:   2    -0.137266770611E+04   -0.43680E-03   -0.45768E-03  2296   0.175E-01    0.242E-02
DAV:   3    -0.137266773452E+04   -0.28406E-04   -0.34863E-04  2592   0.303E-02    0.202E-02
DAV:   4    -0.137266773190E+04    0.26135E-05   -0.28129E-05  2416   0.132E-02    0.161E-02
DAV:   5    -0.137266772698E+04    0.49252E-05   -0.18909E-05  2144   0.903E-03    0.627E-03
DAV:   6    -0.137266772799E+04   -0.10158E-05   -0.15665E-05  2072   0.736E-03    0.567E-03
DAV:   7    -0.137266772755E+04    0.44392E-06   -0.42989E-06  1216   0.491E-03
 294 F= -.13726677E+04 E0= -.13726677E+04  d E =-.764511E-03
 BRION: g(F)=  0.313E-02 g(S)=  0.000E+00 retain N=  4 mean eig= 2.82
 eig:   7.370  1.221  1.221  1.478
 bond charge predicted
       N       E                     dE             d eps       ncg     rms          rms(c)
DAV:   1    -0.137267465822E+04   -0.69302E-02   -0.51552E-01  1376   0.101E+00    0.130E-01
DAV:   2    -0.137267789005E+04   -0.32318E-02   -0.34649E-02  2304   0.470E-01    0.659E-02
DAV:   3    -0.137267806632E+04   -0.17628E-03   -0.26615E-03  2560   0.926E-02    0.564E-02
DAV:   4    -0.137267802450E+04    0.41820E-04   -0.27854E-04  2624   0.398E-02    0.412E-02
DAV:   5    -0.137267797384E+04    0.50664E-04   -0.17736E-04  2320   0.291E-02    0.182E-02
DAV:   6    -0.137267797934E+04   -0.55053E-05   -0.16303E-04  2280   0.237E-02    0.184E-02
DAV:   7    -0.137267797700E+04    0.23408E-05   -0.64267E-05  2352   0.153E-02    0.145E-02
DAV:   8    -0.137267797575E+04    0.12529E-05   -0.27719E-05  2352   0.985E-03    0.680E-03
DAV:   9    -0.137267797502E+04    0.72758E-06   -0.51903E-06  1464   0.526E-03
 295 F= -.13726780E+04 E0= -.13726780E+04  d E =-.102475E-01
 BRION: g(F)=  0.364E-02 g(S)=  0.000E+00 retain N=  5 mean eig= 1.90
 eig:   3.066  3.066  1.840  0.767  0.767
 bond charge predicted
       N       E                     dE             d eps       ncg     rms          rms(c)
DAV:   1    -0.137268687119E+04   -0.88954E-02   -0.11212E+00  1384   0.150E+00    0.194E-01
DAV:   2    -0.137269390925E+04   -0.70381E-02   -0.75323E-02  2296   0.687E-01    0.974E-02
DAV:   3    -0.137269431186E+04   -0.40260E-03   -0.60285E-03  2568   0.137E-01    0.809E-02
DAV:   4    -0.137269421471E+04    0.97148E-04   -0.60901E-04  2608   0.601E-02    0.582E-02
DAV:   5    -0.137269411513E+04    0.99579E-04   -0.37414E-04  2328   0.420E-02    0.261E-02
DAV:   6    -0.137269412380E+04   -0.86680E-05   -0.30753E-04  2320   0.334E-02    0.244E-02
DAV:   7    -0.137269412100E+04    0.28007E-05   -0.13517E-04  2336   0.219E-02    0.197E-02
DAV:   8    -0.137269411899E+04    0.20073E-05   -0.55016E-05  2472   0.140E-02    0.102E-02
DAV:   9    -0.137269411771E+04    0.12779E-05   -0.14197E-05  1968   0.744E-03    0.543E-03
DAV:  10    -0.137269411796E+04   -0.25096E-06   -0.58790E-06  1536   0.524E-03
 296 F= -.13726941E+04 E0= -.13726941E+04  d E =-.161429E-01
 BRION: g(F)=  0.464E-02 g(S)=  0.000E+00 retain N=  4 mean eig= 1.15
 eig:   0.901  0.901  1.393  1.393
 bond charge predicted
       N       E                     dE             d eps       ncg     rms          rms(c)
DAV:   1    -0.137259673014E+04    0.97388E-01   -0.80280E+00  1384   0.402E+00    0.528E-01
DAV:   2    -0.137264876888E+04   -0.52039E-01   -0.55955E-01  2328   0.188E+00    0.265E-01
DAV:   3    -0.137265160633E+04   -0.28374E-02   -0.43211E-02  2552   0.378E-01    0.221E-01
DAV:   4    -0.137265091900E+04    0.68733E-03   -0.46489E-03  2616   0.163E-01    0.159E-01
DAV:   5    -0.137265019275E+04    0.72626E-03   -0.28568E-03  2312   0.117E-01    0.704E-02
DAV:   6    -0.137265027315E+04   -0.80404E-04   -0.22840E-03  2344   0.906E-02    0.706E-02
DAV:   7    -0.137265024080E+04    0.32353E-04   -0.96422E-04  2416   0.587E-02    0.543E-02
DAV:   8    -0.137265022558E+04    0.15212E-04   -0.42691E-04  2512   0.383E-02    0.254E-02
DAV:   9    -0.137265021968E+04    0.58997E-05   -0.99139E-05  2416   0.191E-02    0.141E-02
DAV:  10    -0.137265022172E+04   -0.20368E-05   -0.34303E-05  2424   0.118E-02    0.985E-03
DAV:  11    -0.137265022119E+04    0.53235E-06   -0.97465E-06  1704   0.757E-03
 297 F= -.13726502E+04 E0= -.13726502E+04  d E =0.438968E-01
 BRION: g(F)=  0.288E-02 g(S)=  0.000E+00 retain N=  1 mean eig= 0.32
 eig:   0.317
 bond charge predicted
       N       E                     dE             d eps       ncg     rms          rms(c)
DAV:   1    -0.137265246679E+04   -0.22451E-02   -0.57992E-02  1400   0.351E-01    0.490E-02
DAV:   2    -0.137265279816E+04   -0.33137E-03   -0.37075E-03  2328   0.155E-01    0.244E-02
DAV:   3    -0.137265281412E+04   -0.15954E-04   -0.29330E-04  2552   0.334E-02    0.214E-02
DAV:   4    -0.137265280791E+04    0.62112E-05   -0.37755E-05  2456   0.145E-02    0.143E-02
DAV:   5    -0.137265280304E+04    0.48678E-05   -0.31077E-05  2112   0.112E-02    0.701E-03
DAV:   6    -0.137265280357E+04   -0.53427E-06   -0.16091E-05  2184   0.847E-03    0.851E-03
DAV:   7    -0.137265280288E+04    0.69726E-06   -0.93631E-06  1792   0.598E-03
 298 F= -.13726528E+04 E0= -.13726528E+04  d E =-.258169E-02
 BRION: g(F)=  0.288E-02 g(S)=  0.000E+00 retain N=  2 mean eig= 0.35
 eig:   0.076  0.618
 bond charge predicted
       N       E                     dE             d eps       ncg     rms          rms(c)
DAV:   1    -0.137265087597E+04    0.19276E-02   -0.15889E-02  1392   0.185E-01    0.269E-02
DAV:   2    -0.137265098122E+04   -0.10525E-03   -0.11927E-03  2456   0.891E-02    0.136E-02
DAV:   3    -0.137265098545E+04   -0.42276E-05   -0.83904E-05  2552   0.203E-02    0.110E-02
DAV:   4    -0.137265098367E+04    0.17807E-05   -0.84750E-06  1744   0.780E-03    0.745E-03
DAV:   5    -0.137265098293E+04    0.74288E-06   -0.14384E-05  1912   0.732E-03    0.447E-03
DAV:   6    -0.137265098262E+04    0.30662E-06   -0.21749E-06  1080   0.500E-03
 299 F= -.13726510E+04 E0= -.13726510E+04  d E =0.182026E-02
 BRION: g(F)=  0.283E-02 g(S)=  0.000E+00 retain N=  1 mean eig= 0.60
 eig:   0.599
 bond charge predicted
       N       E                     dE             d eps       ncg     rms          rms(c)
DAV:   1    -0.137265381505E+04   -0.28321E-02   -0.62645E-02  1344   0.346E-01    0.413E-02
DAV:   2    -0.137265415181E+04   -0.33676E-03   -0.35439E-03  2272   0.145E-01    0.212E-02
DAV:   3    -0.137265416797E+04   -0.16162E-04   -0.26604E-04  2544   0.274E-02    0.166E-02
DAV:   4    -0.137265416176E+04    0.62133E-05   -0.23577E-05  2192   0.118E-02    0.114E-02
DAV:   5    -0.137265415652E+04    0.52447E-05   -0.17831E-05  2040   0.927E-03    0.440E-03
DAV:   6    -0.137265415708E+04   -0.56121E-06   -0.12051E-05  1952   0.648E-03    0.448E-03
DAV:   7    -0.137265415685E+04    0.23151E-06   -0.11684E-06   992   0.377E-03
 300 F= -.13726542E+04 E0= -.13726542E+04  d E =-.317423E-02
 BRION: g(F)=  0.277E-02 g(S)=  0.000E+00 retain N=  2 mean eig= 1.45
 eig:   0.544  2.354
