unknown system                          
           1
    12.965200    0.000000    0.000000
     0.000000   12.965000    0.000000
     0.000000    0.000000   12.965000
   O    La   Zr   Li   Al
  96  24  16  56   0
Direct configuration=     1
   0.11080233  0.18621961  0.28379134
   0.90231355  0.81257410  0.70955495
   0.39931992  0.80441099  0.77993173
   0.59740976  0.18898204  0.21519296
   0.89607038  0.68999799  0.21322888
   0.10312249  0.31026449  0.78851788
   0.60490036  0.31139195  0.72267204
   0.39462455  0.69236652  0.28348538
   0.29004856  0.09970222  0.18672595
   0.71920258  0.90118919  0.80588518
   0.78383264  0.40071999  0.81281537
   0.21192533  0.59382264  0.19360233
   0.21428498  0.89974267  0.69212285
   0.77506017  0.09238960  0.30913338
   0.71606519  0.59495177  0.30699224
   0.28243218  0.40475392  0.69162808
   0.19564461  0.28619397  0.09820240
   0.80813638  0.72383873  0.89856809
   0.80477424  0.78188084  0.40190926
   0.19661600  0.22121721  0.59629634
   0.70190793  0.21607991  0.90118776
   0.30000500  0.77871827  0.10027846
   0.29674117  0.71499524  0.60028109
   0.70066944  0.28230691  0.39719936
   0.95032728  0.34520034  0.97214307
   0.04960152  0.65254884  0.02570912
   0.54965702  0.64981891  0.46847196
   0.44804542  0.34494046  0.53163358
   0.46225999  0.15290647  0.03205697
   0.54532515  0.84609231  0.96353650
   0.04502295  0.85002962  0.53230456
   0.94525430  0.15508678  0.47495871
   0.84863640  0.53388183  0.04748350
   0.15416436  0.46600563  0.95768433
   0.15526799  0.02728753  0.44791173
   0.84687645  0.96626865  0.53789758
   0.65465897  0.47497994  0.56026187
   0.35396691  0.53348242  0.45329721
   0.34617016  0.96440235  0.94409842
   0.64837103  0.02397623  0.05663266
   0.03326395  0.45610221  0.15259121
   0.96604147  0.54964916  0.84874509
   0.52477521  0.04800625  0.84605810
   0.46306532  0.94762859  0.15022597
   0.97137715  0.94471611  0.34483100
   0.03503188  0.05135376  0.64727705
   0.46470684  0.54596250  0.65444558
   0.53912873  0.45311422  0.34980109
   0.60264353  0.70391941  0.78303433
   0.40429181  0.29907418  0.22560146
   0.90225956  0.29761480  0.28183220
   0.09556664  0.69773232  0.71303073
   0.40249054  0.20911391  0.71098714
   0.59508881  0.79943022  0.27676480
   0.09310238  0.79392668  0.21549837
   0.90789089  0.20639458  0.78976658
   0.78691383  0.60072346  0.70105405
   0.22784680  0.39870374  0.30484063
   0.28524180  0.89632221  0.29423271
   0.73243398  0.10456144  0.68923739
   0.72864404  0.39478631  0.19994077
   0.27143377  0.60233966  0.80532391
   0.21786714  0.09967305  0.79132112
   0.78926916  0.89530855  0.20378056
   0.69572990  0.77200192  0.59763205
   0.30477334  0.21739865  0.40324533
   0.30087544  0.27019370  0.90040778
   0.69431368  0.72884115  0.09534403
   0.18926253  0.72650723  0.40256880
   0.80848223  0.28610234  0.59933821
   0.80388907  0.21344968  0.09444612
   0.19181397  0.78468154  0.89943463
   0.44216683  0.84370101  0.46830936
   0.55873866  0.14563769  0.52548139
   0.06497554  0.14941303  0.96464588
   0.94913084  0.84976736  0.02668355
   0.94325800  0.64998541  0.53397339
   0.05438995  0.34941796  0.47268822
   0.56667357  0.35450021  0.02460905
   0.43917618  0.64946676  0.96924265
   0.35052303  0.03397478  0.55590070
   0.64392922  0.96254039  0.43611107
   0.65126771  0.54284513  0.94312707
   0.35577119  0.47466629  0.06559692
   0.15325115  0.95801383  0.05065577
   0.85709810  0.03320406  0.94014897
   0.85132828  0.46483142  0.44743717
   0.15317012  0.53292552  0.55402490
   0.52922134  0.93658370  0.65053564
   0.46249732  0.05559625  0.35468646
   0.02723962  0.56263037  0.35141069
   0.96343482  0.45456433  0.65083246
   0.47324581  0.43891527  0.85265302
   0.53374710  0.56415020  0.14753247
   0.98314932  0.05976772  0.14530809
   0.03992878  0.95385213  0.84400336
   0.12415657  0.00091071  0.25172059
   0.86834378  0.00193348  0.75116270
   0.38010705  0.00370684  0.74491556
   0.62466610  0.99467417  0.25032248
   0.87677154  0.49703185  0.25019713
   0.12802708  0.49728332  0.75140504
   0.62574443  0.49980401  0.75302594
   0.37771455  0.49718747  0.24832514
   0.25485387  0.12324645  0.00350726
   0.75646470  0.87890866  0.00224666
   0.74833008  0.37041202  0.00512485
   0.25489632  0.62097413  0.99646356
   0.25118083  0.87178055  0.49918474
   0.74928823  0.12123709  0.49896829
   0.75028941  0.62435675  0.49732485
   0.24937823  0.37506124  0.49510682
   0.00252508  0.24615160  0.13378956
   0.99923423  0.74928567  0.87095850
   0.99894200  0.74869977  0.37645936
   0.99981779  0.25038214  0.62376825
   0.50431415  0.25024781  0.87408141
   0.50034456  0.74669170  0.12320596
   0.50262862  0.75041653  0.62636540
   0.50606460  0.24894849  0.37367761
   0.00329038  0.00065456  0.00065336
   0.50509996  0.99798559  0.50283257
   0.00409787  0.49873221  0.49433183
   0.50163225  0.50098875  0.99880051
   0.75443699  0.23814472  0.24525950
   0.24993197  0.75026183  0.75061893
   0.75247839  0.75410375  0.74622901
   0.25377134  0.25087622  0.24874387
   0.25295492  0.25401154  0.74871888
   0.74739603  0.74714357  0.24942239
   0.24347168  0.74105872  0.24943993
   0.74879095  0.25050399  0.75061993
   0.50448200  0.49442157  0.50418445
   0.00181517  0.49857477  0.00048033
   0.50202147  0.99843138  0.99683684
   0.99757476  0.00582877  0.49204269
   0.15201616  0.32383619  0.93869499
   0.07260757  0.11766289  0.82245776
   0.40285135  0.67849082  0.42839660
   0.06407466  0.63465995  0.17223509
   0.57452262  0.86985781  0.82204251
   0.31975835  0.91980479  0.13920586
   0.42531691  0.84092326  0.32323266
   0.17750689  0.43394042  0.11779176
   0.88972204  0.67762137  0.06615766
   0.32325764  0.07673535  0.41390861
   0.19373528  0.07678897  0.60286253
   0.82641927  0.42859211  0.59581349
   0.68685481  0.42488656  0.35945812
   0.64335098  0.69037853  0.92872396
   0.32107026  0.56944412  0.60888372
   0.61297458  0.16919083  0.07405411
   0.86322404  0.31984116  0.42780863
   0.87132056  0.82710207  0.55955305
   0.36444413  0.18305243  0.56408129
   0.43762988  0.13852562  0.17374603
   0.14961572  0.67535435  0.57469078
   0.82425440  0.92622088  0.36751768
   0.42593142  0.37393492  0.67571702
   0.06422798  0.88376895  0.67092897
   0.40195308  0.82662575  0.92229490
   0.86769417  0.18183207  0.93130149
   0.17966677  0.92892629  0.87731858
   0.10334770  0.80509588  0.07122895
   0.81285859  0.57860442  0.90352726
   0.56902560  0.61569102  0.32405460
   0.93124917  0.60896822  0.67225708
   0.92388784  0.36803786  0.82906798
   0.87625063  0.01752759  0.23067438
   0.57396729  0.79021132  0.41579553
   0.12114636  0.48874603  0.27411767
   0.50222879  0.28955422  0.12803712
   0.99858661  0.74733552  0.62086366
   0.71155937  0.59147698  0.06767513
   0.29924684  0.36504242  0.00482522
   0.22550626  0.59634194  0.44124325
   0.47401419  0.69445311  0.84320698
   0.37261218  0.50585648  0.77735970
   0.00958046  0.24230808  0.36952113
   0.94707727  0.82557258  0.17061840
   0.16956690  0.17099724  0.44698733
   0.37637055  0.00455971  0.25860749
   0.52729686  0.23796644  0.62740112
   0.25249885  0.86655284  0.00114849
   0.62254522  0.48490025  0.21844157
   0.62741715  0.01784448  0.73795605
   0.13124246  0.00230775  0.74020226
   0.74431727  0.10677774  0.99308301
   0.86677066  0.49739118  0.75547907
   0.69292601  0.34222422  0.52962934
   0.01214603  0.25216970  0.88341784
   0.72328198  0.88002854  0.51214979
Direct configuration=     2
   0.11075294  0.18631992  0.28412364
   0.90241202  0.81241238  0.70954576
   0.39940621  0.80431014  0.78000063
   0.59744154  0.18901499  0.21521518
   0.89620593  0.69016067  0.21341327
   0.10311465  0.31023807  0.78847356
   0.60487806  0.31135681  0.72246595
   0.39470460  0.69234489  0.28340640
   0.28991364  0.09964287  0.18691744
   0.71924553  0.90110812  0.80580831
   0.78376531  0.40073938  0.81271077
   0.21181854  0.59394365  0.19354099
   0.21433175  0.89965981  0.69212289
   0.77499120  0.09235224  0.30911715
   0.71610900  0.59498347  0.30689549
   0.28247992  0.40472249  0.69167764
   0.19566712  0.28615067  0.09825882
   0.80817201  0.72378104  0.89856081
   0.80471165  0.78187697  0.40187860
   0.19671095  0.22120173  0.59641049
   0.70197584  0.21611406  0.90122318
   0.30025128  0.77868546  0.10025017
   0.29705114  0.71514043  0.60033981
   0.70076010  0.28230955  0.39734051
   0.95021971  0.34521508  0.97205933
   0.04952845  0.65259275  0.02576137
   0.54979368  0.64993655  0.46848808
   0.44819816  0.34500601  0.53159068
   0.46208437  0.15285046  0.03207733
   0.54585182  0.84620789  0.96371985
   0.04509859  0.85004346  0.53227616
   0.94534255  0.15504304  0.47489330
   0.84865872  0.53392416  0.04787715
   0.15404480  0.46605640  0.95763335
   0.15534629  0.02744195  0.44789131
   0.84696281  0.96621043  0.53777837
   0.65474593  0.47486345  0.56007689
   0.35401288  0.53360061  0.45327135
   0.34631944  0.96418517  0.94426711
   0.64840528  0.02408012  0.05678264
   0.03319326  0.45580277  0.15250191
   0.96599745  0.54967832  0.84874564
   0.52472782  0.04818236  0.84616675
   0.46311056  0.94765166  0.15033190
   0.97146439  0.94468532  0.34470985
   0.03498563  0.05135617  0.64716769
   0.46480371  0.54614987  0.65438272
   0.53915637  0.45315225  0.34980128
   0.60263291  0.70387991  0.78313847
   0.40428300  0.29891601  0.22560172
   0.90214016  0.29766580  0.28182141
   0.09570795  0.69756275  0.71298509
   0.40243990  0.20904696  0.71096088
   0.59509876  0.79929334  0.27677106
   0.09318742  0.79409426  0.21553261
   0.90785708  0.20643446  0.78973964
   0.78684632  0.60066142  0.70086515
   0.22795475  0.39878916  0.30481071
   0.28528333  0.89628969  0.29424226
   0.73251147  0.10453421  0.68924892
   0.72855026  0.39474935  0.19988799
   0.27152742  0.60234231  0.80539668
   0.21796338  0.09963783  0.79172921
   0.78953602  0.89532031  0.20372954
   0.69572835  0.77205306  0.59764078
   0.30465400  0.21751276  0.40327206
   0.30093588  0.27021711  0.90045118
   0.69445723  0.72876122  0.09534260
   0.18936831  0.72646733  0.40252102
   0.80841634  0.28605938  0.59928475
   0.80399806  0.21349396  0.09449439
   0.19176272  0.78469251  0.89942020
   0.44218963  0.84376864  0.46826467
   0.55901366  0.14557240  0.52543493
   0.06495732  0.14942401  0.96472167
   0.94924802  0.84978758  0.02687150
   0.94326040  0.64994891  0.53391509
   0.05460725  0.34939554  0.47272329
   0.56658646  0.35443605  0.02448548
   0.43932663  0.64959110  0.96922643
   0.35038745  0.03408424  0.55582716
   0.64377180  0.96222500  0.43607376
   0.65143247  0.54274470  0.94322409
   0.35584459  0.47472299  0.06555071
   0.15332680  0.95805666  0.05057629
   0.85711664  0.03317800  0.94022291
   0.85133217  0.46483625  0.44731573
   0.15319507  0.53291661  0.55396456
   0.52912825  0.93664388  0.65054492
   0.46241990  0.05573028  0.35474130
   0.02733164  0.56261621  0.35146861
   0.96337986  0.45458551  0.65080130
   0.47335973  0.43909940  0.85252762
   0.53410142  0.56408665  0.14740360
   0.98325304  0.05978617  0.14543881
   0.03992197  0.95396693  0.84398431
   0.12424965  0.00090409  0.25167643
   0.86843391  0.00192958  0.75120004
   0.38009261  0.00368939  0.74499351
   0.62467242  0.99469824  0.25032033
   0.87682848  0.49701792  0.25014638
   0.12808742  0.49730017  0.75137475
   0.62575771  0.49975712  0.75293472
   0.37772422  0.49716838  0.24831046
   0.25493313  0.12321400  0.00344714
   0.75637882  0.87894769  0.00211775
   0.74827880  0.37046477  0.00515772
   0.25481542  0.62091194  0.99650992
   0.25127719  0.87164726  0.49912165
   0.74938858  0.12115915  0.49898715
   0.75031391  0.62444709  0.49724817
   0.24942141  0.37507077  0.49513944
   0.00251176  0.24630534  0.13374170
   0.99920245  0.74919586  0.87084613
   0.99898144  0.74862464  0.37637227
   0.99984024  0.25030946  0.62371013
   0.50425426  0.25019604  0.87409343
   0.50038740  0.74662858  0.12313063
   0.50261234  0.75047162  0.62627855
   0.50602060  0.24890874  0.37376661
   0.00320744  0.00062683  0.00051717
   0.50500530  0.99806010  0.50291343
   0.00416353  0.49870919  0.49420304
   0.50160959  0.50096992  0.99880743
   0.75439847  0.23824413  0.24526744
   0.24997043  0.75031555  0.75059348
   0.75252061  0.75417000  0.74621331
   0.25383977  0.25114913  0.24883159
   0.25294172  0.25391504  0.74876115
   0.74752637  0.74704754  0.24941146
   0.24342919  0.74095432  0.24931710
   0.74880389  0.25031826  0.75057161
   0.50441422  0.49448984  0.50401345
   0.00180794  0.49853408  0.00058273
   0.50205579  0.99850123  0.99678038
   0.99759164  0.00580222  0.49210594
   0.15221368  0.32389684  0.93857073
   0.07269680  0.11750186  0.82257903
   0.40284007  0.67850634  0.42831698
   0.06379908  0.63512345  0.17225668
   0.57459968  0.86948954  0.82203383
   0.31988190  0.91975817  0.13908558
   0.42558817  0.84066928  0.32318406
   0.17744544  0.43396528  0.11768819
   0.88980126  0.67791220  0.06640357
   0.32284372  0.07688919  0.41393279
   0.19378330  0.07678689  0.60175836
   0.82618808  0.42854917  0.59566393
   0.68703304  0.42498419  0.36012486
   0.64333667  0.69027112  0.92888795
   0.32118863  0.56958678  0.60856595
   0.61297684  0.16921346  0.07411127
   0.86241794  0.31988058  0.42785967
   0.87155312  0.82705735  0.55961441
   0.36388604  0.18310364  0.56418812
   0.43743128  0.13868791  0.17376789
   0.14987688  0.67520530  0.57454492
   0.82433579  0.92611069  0.36746352
   0.42601299  0.37384782  0.67561570
   0.06417038  0.88370575  0.67104246
   0.40197406  0.82632403  0.92222241
   0.86759566  0.18188853  0.93124785
   0.17951844  0.92896624  0.87736335
   0.10235918  0.80520785  0.07120598
   0.81254975  0.57879470  0.90393473
   0.56910235  0.61627496  0.32398575
   0.93117103  0.60887473  0.67209197
   0.92381056  0.36786936  0.82894636
   0.87624144  0.01783528  0.23072581
   0.57443924  0.79076982  0.41583037
   0.12120631  0.48891363  0.27396550
   0.50251664  0.28962606  0.12828765
   0.99883876  0.74715288  0.62076088
   0.71116280  0.59134301  0.06818993
   0.29952079  0.36475020  0.00515946
   0.22517785  0.59601648  0.44067187
   0.47369194  0.69379155  0.84285249
   0.37248131  0.50571719  0.77724597
   0.00928794  0.24256737  0.36958536
   0.94644545  0.82628284  0.17087480
   0.16907319  0.17110502  0.44615853
   0.37638405  0.00449086  0.25874516
   0.52715311  0.23766830  0.62743695
   0.25239536  0.86636320  0.00118372
   0.62231178  0.48463192  0.21893893
   0.62748860  0.01776330  0.73808921
   0.13144972  0.00248661  0.73990520
   0.74445574  0.10683950  0.99333843
   0.86669996  0.49748465  0.75559323
   0.69218779  0.34171845  0.53026685
   0.01216855  0.25214299  0.88341725
   0.72343307  0.88019574  0.51235545
Direct configuration=     3
   0.11078284  0.18646827  0.28436604
   0.90252231  0.81232963  0.70953536
   0.39945949  0.80425203  0.78003948
   0.59744150  0.18907188  0.21523487
   0.89637605  0.69026299  0.21355106
   0.10312825  0.31020454  0.78844507
   0.60487597  0.31127042  0.72230456
   0.39475049  0.69226305  0.28334001
   0.28981498  0.09966010  0.18705149
   0.71928592  0.90111596  0.80574378
   0.78370024  0.40068946  0.81263027
   0.21171005  0.59392988  0.19348193
   0.21435180  0.89963203  0.69212368
   0.77492461  0.09235767  0.30913305
   0.71615851  0.59499704  0.30682756
   0.28252429  0.40468003  0.69170619
   0.19569933  0.28617039  0.09829036
   0.80821468  0.72380506  0.89853413
   0.80468929  0.78186546  0.40186506
   0.19678681  0.22118027  0.59646910
   0.70202853  0.21610809  0.90124541
   0.30044503  0.77859821  0.10024598
   0.29727235  0.71523954  0.60036398
   0.70082242  0.28230886  0.39746297
   0.95014138  0.34523616  0.97200330
   0.04947371  0.65261667  0.02581072
   0.54988820  0.65002260  0.46847783
   0.44828999  0.34502867  0.53154631
   0.46196061  0.15284201  0.03208275
   0.54623791  0.84631670  0.96383973
   0.04515708  0.85003633  0.53227974
   0.94539165  0.15501573  0.47486668
   0.84868865  0.53396334  0.04818304
   0.15398391  0.46609085  0.95761702
   0.15540321  0.02753462  0.44791945
   0.84700799  0.96615766  0.53772686
   0.65476512  0.47478566  0.55989128
   0.35398877  0.53368376  0.45321960
   0.34644563  0.96403087  0.94436720
   0.64844157  0.02417452  0.05687256
   0.03318636  0.45557413  0.15250223
   0.96599729  0.54971847  0.84879752
   0.52470875  0.04834091  0.84618209
   0.46317915  0.94767048  0.15038393
   0.97152074  0.94464877  0.34469609
   0.03496321  0.05135918  0.64712885
   0.46485651  0.54628400  0.65429488
   0.53914766  0.45316364  0.34976242
   0.60265971  0.70388133  0.78319727
   0.40433249  0.29885596  0.22558271
   0.90204604  0.29773298  0.28183289
   0.09582095  0.69744019  0.71293771
   0.40241126  0.20898195  0.71093705
   0.59513136  0.79916763  0.27675412
   0.09322291  0.79418185  0.21554639
   0.90783557  0.20643132  0.78971007
   0.78678319  0.60067818  0.70071521
   0.22802292  0.39897849  0.30480446
   0.28531077  0.89620513  0.29426758
   0.73256541  0.10441809  0.68925397
   0.72848295  0.39473341  0.19985964
   0.27159554  0.60235934  0.80546147
   0.21804053  0.09959185  0.79207058
   0.78972532  0.89528775  0.20368750
   0.69573970  0.77211873  0.59766455
   0.30457707  0.21764515  0.40332089
   0.30099515  0.27026307  0.90047889
   0.69459876  0.72873123  0.09534650
   0.18944277  0.72638832  0.40250351
   0.80837258  0.28597855  0.59924318
   0.80407421  0.21352445  0.09453190
   0.19171090  0.78467731  0.89937079
   0.44220232  0.84382559  0.46824533
   0.55924081  0.14555173  0.52541433
   0.06493286  0.14944104  0.96475494
   0.94932456  0.84977898  0.02696550
   0.94328532  0.64992942  0.53383817
   0.05479918  0.34938898  0.47275697
   0.56649004  0.35436431  0.02440813
   0.43941940  0.64964958  0.96923762
   0.35029800  0.03415490  0.55580712
   0.64363408  0.96198830  0.43607701
   0.65153603  0.54265707  0.94331167
   0.35585604  0.47475502  0.06555955
   0.15332820  0.95809005  0.05047440
   0.85707876  0.03316697  0.94022639
   0.85137250  0.46486618  0.44719100
   0.15324992  0.53290671  0.55388934
   0.52905815  0.93671560  0.65058956
   0.46237951  0.05586956  0.35482384
   0.02745016  0.56260978  0.35141918
   0.96336091  0.45459307  0.65074188
   0.47343220  0.43921406  0.85244917
   0.53434245  0.56401654  0.14732244
   0.98333547  0.05979167  0.14541663
   0.03989853  0.95406853  0.84390796
   0.12432696  0.00093309  0.25161545
   0.86850519  0.00192348  0.75122104
   0.38006619  0.00365531  0.74505163
   0.62465874  0.99469035  0.25030938
   0.87678840  0.49696948  0.25010573
   0.12808075  0.49731511  0.75135753
   0.62580952  0.49974276  0.75285962
   0.37781106  0.49721956  0.24829293
   0.25495698  0.12312977  0.00348641
   0.75625701  0.87893931  0.00209165
   0.74825735  0.37053276  0.00514461
   0.25477285  0.62094956  0.99649254
   0.25135961  0.87158268  0.49901648
   0.74944746  0.12110388  0.49893254
   0.75031027  0.62448772  0.49724628
   0.24942305  0.37504535  0.49522627
   0.00252118  0.24632395  0.13373761
   0.99918047  0.74905833  0.87078421
   0.99900776  0.74865205  0.37633248
   0.99985498  0.25031396  0.62365863
   0.50423965  0.25019865  0.87409606
   0.50043611  0.74664587  0.12307626
   0.50262955  0.75047275  0.62621612
   0.50602388  0.24882518  0.37384111
   0.00326114  0.00070002  0.00065057
   0.50493488  0.99810432  0.50286559
   0.00411320  0.49861189  0.49424771
   0.50170395  0.50099676  0.99873512
   0.75437595  0.23828877  0.24527363
   0.25002254  0.75030761  0.75063574
   0.75248254  0.75403636  0.74617629
   0.25371766  0.25107803  0.24883038
   0.25290291  0.25387377  0.74879531
   0.74754219  0.74707008  0.24937762
   0.24348541  0.74109322  0.24922269
   0.74877425  0.25036058  0.75058622
   0.50451495  0.49461078  0.50398451
   0.00168143  0.49855288  0.00052611
   0.50208038  0.99844746  0.99686561
   0.99765202  0.00574758  0.49198465
   0.15237110  0.32394858  0.93847226
   0.07277262  0.11738304  0.82269887
   0.40284240  0.67853540  0.42825598
   0.06358191  0.63551416  0.17226667
   0.57464125  0.86915453  0.82204719
   0.31998896  0.91973456  0.13900105
   0.42578116  0.84048027  0.32312585
   0.17739231  0.43396105  0.11758954
   0.88985000  0.67811439  0.06657161
   0.32254175  0.07697542  0.41393644
   0.19383378  0.07677099  0.60086770
   0.82600769  0.42853516  0.59554683
   0.68718449  0.42507270  0.36068039
   0.64330903  0.69019111  0.92899955
   0.32129203  0.56971245  0.60832216
   0.61296936  0.16922112  0.07414860
   0.86176306  0.31991404  0.42790306
   0.87174049  0.82701272  0.55964940
   0.36342865  0.18313463  0.56426366
   0.43725865  0.13878874  0.17379411
   0.15010368  0.67510343  0.57443532
   0.82440959  0.92602729  0.36739973
   0.42608514  0.37378367  0.67554653
   0.06413403  0.88365250  0.67112114
   0.40205360  0.82608978  0.92222065
   0.86752301  0.18194976  0.93121143
   0.17941816  0.92899678  0.87741380
   0.10159738  0.80530468  0.07119171
   0.81230986  0.57890809  0.90427141
   0.56915820  0.61676080  0.32392629
   0.93109262  0.60877846  0.67196404
   0.92373574  0.36776108  0.82884191
   0.87624796  0.01806781  0.23076621
   0.57482324  0.79122603  0.41589862
   0.12124692  0.48903199  0.27383081
   0.50276469  0.28968478  0.12848745
   0.99903562  0.74701027  0.62067709
   0.71084652  0.59119321  0.06861315
   0.29974457  0.36449574  0.00544052
   0.22492193  0.59575179  0.44020890
   0.47344534  0.69324043  0.84253201
   0.37238864  0.50560272  0.77714515
   0.00906222  0.24276845  0.36961975
   0.94594067  0.82689046  0.17112284
   0.16864573  0.17123516  0.44546946
   0.37638708  0.00443248  0.25883760
   0.52703762  0.23742763  0.62747424
   0.25230138  0.86621554  0.00122905
   0.62214706  0.48442736  0.21932570
   0.62753347  0.01769667  0.73819484
   0.13163486  0.00263469  0.73966862
   0.74455937  0.10689746  0.99356159
   0.86664289  0.49755882  0.75567864
   0.69157003  0.34130187  0.53079318
   0.01219491  0.25212667  0.88342509
   0.72354098  0.88031717  0.51251399
Direct configuration=     4
   0.11073315  0.18736507  0.28623885
   0.90329890  0.81146059  0.70942300
   0.39997888  0.80371575  0.78042665
   0.59751299  0.18942657  0.21538326
   0.89752001  0.69116414  0.21458749
   0.10317954  0.31002458  0.78824861
   0.60480879  0.31080764  0.72102204
   0.39517441  0.69179853  0.28277083
   0.28899553  0.09953169  0.18811267
   0.71953005  0.90089143  0.80524938
   0.78323366  0.40054994  0.81200760
   0.21100110  0.59430456  0.19305410
   0.21458306  0.89932441  0.69209341
   0.77440475  0.09228911  0.30920352
   0.71650741  0.59519557  0.30638838
   0.28285688  0.40438716  0.69199712
   0.19590251  0.28610690  0.09850270
   0.80850365  0.72390149  0.89831909
   0.80449329  0.78180964  0.40176140
   0.19735059  0.22092890  0.59690311
   0.70244671  0.21617840  0.90144749
   0.30207257  0.77815433  0.10014180
   0.29895789  0.71601216  0.60058297
   0.70135002  0.28232651  0.39839544
   0.94943508  0.34537055  0.97153277
   0.04897928  0.65275889  0.02606448
   0.55068249  0.65076726  0.46840141
   0.44910542  0.34531935  0.53126842
   0.46102921  0.15260491  0.03219133
   0.54912132  0.84705788  0.96482042
   0.04562073  0.85003337  0.53220998
   0.94580754  0.15477948  0.47456283
   0.84875078  0.53427062  0.05035919
   0.15336969  0.46643137  0.95743647
   0.15592031  0.02823652  0.44789633
   0.84744304  0.96576512  0.53719190
   0.65514379  0.47417841  0.55860596
   0.35406652  0.53432432  0.45293564
   0.34737920  0.96273678  0.94533655
   0.64865492  0.02486380  0.05768718
   0.03294398  0.45375826  0.15221364
   0.96581156  0.55002793  0.84900163
   0.52447379  0.04950256  0.84659711
   0.46363924  0.94775567  0.15095681
   0.97198778  0.94442524  0.34429806
   0.03484752  0.05143238  0.64657304
   0.46537963  0.54734640  0.65376709
   0.53919357  0.45328239  0.34962439
   0.60273857  0.70373472  0.78370401
   0.40441976  0.29819075  0.22551879
   0.90134809  0.29814547  0.28193891
   0.09672111  0.69641431  0.71257420
   0.40213727  0.20851057  0.71077008
   0.59527546  0.79829550  0.27662073
   0.09353104  0.79508820  0.21561130
   0.90770076  0.20656975  0.78950973
   0.78632880  0.60051078  0.69953871
   0.22864883  0.39996805  0.30469143
   0.28562475  0.89580879  0.29439158
   0.73299706  0.10385563  0.68933059
   0.72795806  0.39451294  0.19957684
   0.27218374  0.60240133  0.80593580
   0.21869483  0.09931576  0.79486810
   0.79115150  0.89520496  0.20341479
   0.69576986  0.77251034  0.59778407
   0.30391528  0.21844646  0.40362492
   0.30140337  0.27057915  0.90073682
   0.69564425  0.72850026  0.09536969
   0.19007672  0.72595633  0.40229518
   0.80803596  0.28550332  0.59890948
   0.80466703  0.21375296  0.09484959
   0.19132667  0.78456381  0.89907156
   0.44232071  0.84425201  0.46797121
   0.56098885  0.14530027  0.52519214
   0.06479378  0.14963603  0.96517786
   0.94993629  0.84980571  0.02772287
   0.94338688  0.64975050  0.53330915
   0.05623278  0.34926494  0.47308932
   0.56588708  0.35387662  0.02374617
   0.44025726  0.65020942  0.96923955
   0.34962892  0.03464070  0.55558265
   0.64260804  0.96010090  0.43592514
   0.65249885  0.54204984  0.94383940
   0.35615849  0.47509852  0.06544532
   0.15346110  0.95832213  0.04986817
   0.85697484  0.03308153  0.94046913
   0.85155572  0.46510062  0.44630100
   0.15354772  0.53276114  0.55341159
   0.52845364  0.93723286  0.65075457
   0.46197352  0.05689807  0.35524212
   0.02819181  0.56251771  0.35138011
   0.96303720  0.45466892  0.65043377
   0.47408947  0.44015722  0.85170220
   0.53627755  0.56361029  0.14658245
   0.98394541  0.05994004  0.14576117
   0.03979303  0.95488627  0.84350296
   0.12489167  0.00097013  0.25124353
   0.86903657  0.00184280  0.75141211
   0.37994621  0.00344927  0.74547398
   0.62463176  0.99479875  0.25027320
   0.87678968  0.49671282  0.24982817
   0.12824264  0.49744557  0.75121350
   0.62603026  0.49954857  0.75229939
   0.37819295  0.49740641  0.24820978
   0.25528103  0.12269051  0.00338723
   0.75553471  0.87904727  0.00156717
   0.74805075  0.37086605  0.00520117
   0.25436489  0.62095772  0.99659144
   0.25198517  0.87090792  0.49847892
   0.74992177  0.12059544  0.49882589
   0.75044374  0.62498161  0.49702217
   0.24955683  0.37505276  0.49563830
   0.00249078  0.24692078  0.13359274
   0.99896138  0.74826006  0.87027499
   0.99929638  0.74844633  0.37604578
   0.99995792  0.25007995  0.62332388
   0.50402375  0.24999068  0.87416675
   0.50077813  0.74650314  0.12264315
   0.50265219  0.75071998  0.62571878
   0.50585585  0.24846909  0.37436043
   0.00313407  0.00095836  0.00062307
   0.50435616  0.99853854  0.50296395
   0.00410288  0.49819103  0.49392177
   0.50198837  0.50103695  0.99852338
   0.75407407  0.23885707  0.24529467
   0.25036425  0.75041127  0.75071214
   0.75253667  0.75375752  0.74606495
   0.25355070  0.25178377  0.24904756
   0.25275443  0.25338842  0.74911168
   0.74804450  0.74687419  0.24926399
   0.24365807  0.74129227  0.24848380
   0.74869869  0.24985747  0.75050331
   0.50466827  0.49529229  0.50327070
   0.00116098  0.49858712  0.00068912
   0.50232303  0.99850418  0.99697801
   0.99787935  0.00544207  0.49172854
   0.15364980  0.32442513  0.93772433
   0.07333211  0.11635445  0.82362253
   0.40279772  0.67870354  0.42780504
   0.06195510  0.63851434  0.17243260
   0.57499436  0.86654777  0.82212233
   0.32088860  0.91952341  0.13827288
   0.42728805  0.83895861  0.32271630
   0.17698515  0.43400896  0.11685123
   0.89023455  0.67966580  0.06788966
   0.32028539  0.07768934  0.41405342
   0.19422380  0.07660763  0.59394966
   0.82457793  0.42834566  0.59457109
   0.68831363  0.42579738  0.36506142
   0.64306440  0.68962857  0.92983582
   0.32206111  0.57070693  0.60631154
   0.61282615  0.16928106  0.07438290
   0.85659771  0.32015955  0.42825462
   0.87321964  0.82669422  0.55995742
   0.35982058  0.18336835  0.56484117
   0.43596394  0.13971458  0.17398060
   0.15197177  0.67433987  0.57355189
   0.82495812  0.92535214  0.36694824
   0.42662147  0.37322196  0.67497677
   0.06385014  0.88331576  0.67178184
   0.40284468  0.82426430  0.92227621
   0.86694993  0.18237421  0.93086374
   0.17856907  0.92925563  0.87769749
   0.09563425  0.80597296  0.07108773
   0.81044254  0.57981189  0.90701010
   0.56956942  0.62053901  0.32341905
   0.93051316  0.60812627  0.67090028
   0.92319593  0.36683902  0.82803914
   0.87625535  0.01986622  0.23107918
   0.57786269  0.79483673  0.41656575
   0.12158975  0.48995194  0.27269599
   0.50468293  0.29016588  0.13011874
   1.00054972  0.74592931  0.62006499
   0.70837097  0.58994435  0.07206629
   0.30156570  0.36251175  0.00775827
   0.22289651  0.59354912  0.43646492
   0.47145807  0.68885992  0.83994255
   0.37162864  0.50466602  0.77634113
   0.00724989  0.24442797  0.36993317
   0.94197926  0.83161658  0.17310913
   0.16525041  0.17243103  0.44011377
   0.37647093  0.00401552  0.25960256
   0.52605728  0.23547570  0.62777743
   0.25155791  0.86501165  0.00154684
   0.62087289  0.48285301  0.22236896
   0.62788097  0.01715634  0.73904005
   0.13306493  0.00382512  0.73783182
   0.74542616  0.10733429  0.99526833
   0.86620928  0.49813440  0.75634893
   0.68662708  0.33789971  0.53496367
   0.01238244  0.25202355  0.88345365
   0.72441811  0.88128269  0.51380143
Direct configuration=     5
   0.11067468  0.18799334  0.28718721
   0.90377808  0.81092165  0.70933564
   0.40032160  0.80337284  0.78065307
   0.59747875  0.18972301  0.21545851
   0.89823923  0.69171773  0.21515786
   0.10328663  0.30993976  0.78817257
   0.60478757  0.31043953  0.72011121
   0.39543498  0.69139184  0.28238411
   0.28854224  0.09950619  0.18868861
   0.71960515  0.90078824  0.80495817
   0.78291456  0.40037633  0.81162380
   0.21061488  0.59455251  0.19277534