 188 188   0   0
  0.1159222E+02  0.1296520E-08  0.1296500E-08  0.1296500E-08  0.2000000E-14
   1500.00000000000     
  CAR 
 unknown system                          
     12.79665999    -45.53717007  301      6.58046122      1.00000000
    -45.537  0.0000E+00  0.0000E+00
    -45.343  0.0000E+00  0.0000E+00
    -45.148  0.0000E+00  0.0000E+00
    -44.954  0.0000E+00  0.0000E+00
    -44.759  0.0000E+00  0.0000E+00
    -44.565  0.0000E+00  0.0000E+00
    -44.370  0.0000E+00  0.0000E+00
    -44.176  0.0000E+00  0.0000E+00
    -43.982  0.4517E-13  0.8794E-14
    -43.787  0.9407E-09  0.1832E-09
    -43.593  0.3098E-05  0.6037E-06
    -43.398  0.1652E-02  0.3225E-03
    -43.204  0.1498E+00  0.2950E-01
    -43.009  0.2540E+01  0.5243E+00
    -42.815  0.9942E+01  0.2460E+01
    -42.620  0.1495E+02  0.5369E+01
    -42.426  0.1849E+02  0.8967E+01
    -42.232  0.2237E+02  0.1332E+02
    -42.037  0.2445E+02  0.1809E+02
    -41.843  0.2306E+02  0.2258E+02
    -41.648  0.1863E+02  0.2622E+02
    -41.454  0.1320E+02  0.2880E+02
    -41.259  0.8188E+01  0.3040E+02
    -41.065  0.4458E+01  0.3127E+02
    -40.870  0.2183E+01  0.3170E+02
    -40.676  0.9794E+00  0.3189E+02
    -40.482  0.3720E+00  0.3196E+02
    -40.287  0.1267E+00  0.3199E+02
    -40.093  0.4398E-01  0.3200E+02
    -39.898  0.1126E-01  0.3200E+02
    -39.704  0.1034E-02  0.3200E+02
    -39.509  0.2210E-04  0.3200E+02
    -39.315  0.9007E-07  0.3200E+02
    -39.120  0.6276E-10  0.3200E+02
    -38.926  0.7031E-14  0.3200E+02
    -38.732  0.0000E+00  0.3200E+02
    -38.537  0.0000E+00  0.3200E+02
    -38.343  0.0000E+00  0.3200E+02
    -38.148  0.0000E+00  0.3200E+02
    -37.954  0.0000E+00  0.3200E+02
    -37.759  0.0000E+00  0.3200E+02
    -37.565  0.0000E+00  0.3200E+02
    -37.370  0.0000E+00  0.3200E+02
    -37.176  0.0000E+00  0.3200E+02
    -36.982  0.0000E+00  0.3200E+02
    -36.787  0.0000E+00  0.3200E+02
    -36.593  0.0000E+00  0.3200E+02
    -36.398  0.0000E+00  0.3200E+02
    -36.204  0.0000E+00  0.3200E+02
    -36.009  0.0000E+00  0.3200E+02
    -35.815  0.0000E+00  0.3200E+02
    -35.620  0.0000E+00  0.3200E+02
    -35.426  0.0000E+00  0.3200E+02
    -35.232  0.0000E+00  0.3200E+02
    -35.037  0.0000E+00  0.3200E+02
    -34.843  0.0000E+00  0.3200E+02
    -34.648  0.0000E+00  0.3200E+02
    -34.454  0.0000E+00  0.3200E+02
    -34.259  0.0000E+00  0.3200E+02
    -34.065  0.0000E+00  0.3200E+02
    -33.870  0.0000E+00  0.3200E+02
    -33.676  0.0000E+00  0.3200E+02
    -33.482  0.0000E+00  0.3200E+02
    -33.287  0.0000E+00  0.3200E+02
    -33.093  0.0000E+00  0.3200E+02
    -32.898  0.0000E+00  0.3200E+02
    -32.704  0.0000E+00  0.3200E+02
    -32.509  0.0000E+00  0.3200E+02
    -32.315  0.0000E+00  0.3200E+02
    -32.120  0.0000E+00  0.3200E+02
    -31.926  0.0000E+00  0.3200E+02
    -31.731  0.0000E+00  0.3200E+02
    -31.537  0.0000E+00  0.3200E+02
    -31.343  0.0000E+00  0.3200E+02
    -31.148  0.0000E+00  0.3200E+02
    -30.954  0.0000E+00  0.3200E+02
    -30.759  0.0000E+00  0.3200E+02
    -30.565  0.0000E+00  0.3200E+02
    -30.370  0.0000E+00  0.3200E+02
    -30.176  0.0000E+00  0.3200E+02
    -29.981  0.0000E+00  0.3200E+02
    -29.787  0.0000E+00  0.3200E+02
    -29.593  0.0000E+00  0.3200E+02
    -29.398  0.0000E+00  0.3200E+02
    -29.204  0.0000E+00  0.3200E+02
    -29.009  0.0000E+00  0.3200E+02
    -28.815  0.0000E+00  0.3200E+02
    -28.620  0.0000E+00  0.3200E+02
    -28.426  0.0000E+00  0.3200E+02
    -28.231  0.0000E+00  0.3200E+02
    -28.037  0.0000E+00  0.3200E+02
    -27.843  0.1139E-18  0.3200E+02
    -27.648  0.4383E-14  0.3200E+02
    -27.454  0.3142E-10  0.3200E+02
    -27.259  0.3801E-07  0.3200E+02
    -27.065  0.8649E-05  0.3200E+02
    -26.870  0.4525E-03  0.3200E+02
    -26.676  0.7390E-02  0.3200E+02
    -26.481  0.5130E-01  0.3201E+02
    -26.287  0.2003E+00  0.3205E+02
    -26.093  0.6449E+00  0.3218E+02
    -25.898  0.1885E+01  0.3254E+02
    -25.704  0.4663E+01  0.3345E+02
    -25.509  0.9835E+01  0.3536E+02
    -25.315  0.1803E+02  0.3887E+02
    -25.120  0.2807E+02  0.4434E+02
    -24.926  0.3656E+02  0.5146E+02
    -24.731  0.3975E+02  0.5921E+02
    -24.537  0.3661E+02  0.6635E+02
    -24.343  0.2891E+02  0.7199E+02
    -24.148  0.1970E+02  0.7584E+02
    -23.954  0.1170E+02  0.7812E+02
    -23.759  0.5945E+01  0.7929E+02
    -23.565  0.2454E+01  0.7977E+02
    -23.370  0.8347E+00  0.7993E+02
    -23.176  0.2619E+00  0.7998E+02
    -22.981  0.7267E-01  0.8000E+02
    -22.787  0.1856E-01  0.8000E+02
    -22.593  0.3910E-02  0.8000E+02
    -22.398  0.4415E-03  0.8000E+02
    -22.204  0.3573E-03  0.8000E+02
    -22.009  0.4582E-02  0.8000E+02
    -21.815  0.3750E-01  0.8001E+02
    -21.620  0.4305E+00  0.8009E+02
    -21.426  0.3401E+01  0.8076E+02
    -21.231  0.1454E+02  0.8359E+02
    -21.037  0.3464E+02  0.9034E+02
    -20.843  0.5524E+02  0.1011E+03
    -20.648  0.7317E+02  0.1153E+03
    -20.454  0.8407E+02  0.1317E+03
    -20.259  0.8086E+02  0.1475E+03
    -20.065  0.6400E+02  0.1600E+03
    -19.870  0.4214E+02  0.1682E+03
    -19.676  0.2322E+02  0.1727E+03
    -19.481  0.1071E+02  0.1748E+03
    -19.287  0.4176E+01  0.1757E+03
    -19.093  0.1327E+01  0.1759E+03
    -18.898  0.3391E+00  0.1760E+03
    -18.704  0.8588E-01  0.1760E+03
    -18.509  0.1910E-01  0.1760E+03
    -18.315  0.2242E-02  0.1760E+03
    -18.120  0.8387E-04  0.1760E+03
    -17.926  0.7138E-06  0.1760E+03
    -17.731  0.1157E-08  0.1760E+03
    -17.537  0.3237E-12  0.1760E+03
    -17.342  0.1472E-16  0.1760E+03
    -17.148  0.0000E+00  0.1760E+03
    -16.954  0.0000E+00  0.1760E+03
    -16.759  0.0000E+00  0.1760E+03
    -16.565  0.0000E+00  0.1760E+03
    -16.370  0.0000E+00  0.1760E+03
    -16.176  0.0000E+00  0.1760E+03
    -15.981  0.0000E+00  0.1760E+03
    -15.787  0.0000E+00  0.1760E+03
    -15.592  0.5723E-18  0.1760E+03
    -15.398  0.2250E-13  0.1760E+03
    -15.204  0.1312E-09  0.1760E+03
    -15.009  0.1280E-06  0.1760E+03
    -14.815  0.2225E-04  0.1760E+03
    -14.620  0.7860E-03  0.1760E+03
    -14.426  0.7400E-02  0.1760E+03
    -14.231  0.3164E-01  0.1760E+03
    -14.037  0.1068E+00  0.1760E+03
    -13.842  0.2967E+00  0.1761E+03
    -13.648  0.7477E+00  0.1762E+03
    -13.454  0.1866E+01  0.1766E+03
    -13.259  0.4264E+01  0.1774E+03
    -13.065  0.8525E+01  0.1791E+03
    -12.870  0.1510E+02  0.1820E+03
    -12.676  0.2428E+02  0.1868E+03
    -12.481  0.3587E+02  0.1937E+03
    -12.287  0.4836E+02  0.2032E+03
    -12.092  0.6030E+02  0.2149E+03
    -11.898  0.7057E+02  0.2287E+03
    -11.704  0.7839E+02  0.2440E+03
    -11.509  0.8372E+02  0.2603E+03
    -11.315  0.8666E+02  0.2772E+03
    -11.120  0.8724E+02  0.2942E+03
    -10.926  0.8496E+02  0.3107E+03
    -10.731  0.7931E+02  0.3262E+03
    -10.537  0.6992E+02  0.3398E+03
    -10.342  0.5665E+02  0.3509E+03
    -10.148  0.4078E+02  0.3589E+03
     -9.954  0.2528E+02  0.3638E+03
     -9.759  0.1339E+02  0.3664E+03
     -9.565  0.6893E+01  0.3677E+03
     -9.370  0.6255E+01  0.3690E+03
     -9.176  0.1194E+02  0.3713E+03
     -8.981  0.2502E+02  0.3762E+03
     -8.787  0.4430E+02  0.3848E+03
     -8.592  0.6379E+02  0.3972E+03
     -8.398  0.7717E+02  0.4123E+03
     -8.204  0.8321E+02  0.4285E+03
     -8.009  0.8351E+02  0.4448E+03
     -7.815  0.7971E+02  0.4603E+03
     -7.620  0.7292E+02  0.4745E+03
     -7.426  0.6313E+02  0.4868E+03
     -7.231  0.5033E+02  0.4967E+03
     -7.037  0.3605E+02  0.5037E+03
     -6.842  0.2254E+02  0.5081E+03
     -6.648  0.1201E+02  0.5104E+03
     -6.454  0.5301E+01  0.5115E+03
     -6.259  0.1911E+01  0.5118E+03
     -6.065  0.6141E+00  0.5120E+03
     -5.870  0.1738E+00  0.5120E+03
     -5.676  0.4154E-01  0.5120E+03
     -5.481  0.1067E-01  0.5120E+03
     -5.287  0.2092E-02  0.5120E+03
     -5.092  0.1209E-03  0.5120E+03
     -4.898  0.1369E-05  0.5120E+03
     -4.703  0.2681E-08  0.5120E+03
     -4.509  0.8620E-12  0.5120E+03
     -4.315  0.4448E-16  0.5120E+03
     -4.120  0.0000E+00  0.5120E+03
     -3.926  0.0000E+00  0.5120E+03
     -3.731  0.0000E+00  0.5120E+03
     -3.537  0.0000E+00  0.5120E+03
     -3.342  0.0000E+00  0.5120E+03
     -3.148  0.0000E+00  0.5120E+03
     -2.953  0.0000E+00  0.5120E+03
     -2.759  0.0000E+00  0.5120E+03
     -2.565  0.0000E+00  0.5120E+03
     -2.370  0.5275E-16  0.5120E+03
     -2.176  0.1003E-11  0.5120E+03
     -1.981  0.3252E-08  0.5120E+03
     -1.787  0.1891E-05  0.5120E+03
     -1.592  0.2148E-03  0.5120E+03
     -1.398  0.5538E-02  0.5120E+03
     -1.203  0.4250E-01  0.5120E+03
     -1.009  0.1736E+00  0.5120E+03
     -0.815  0.6309E+00  0.5122E+03
     -0.620  0.1671E+01  0.5125E+03
     -0.426  0.3056E+01  0.5131E+03
     -0.231  0.4232E+01  0.5139E+03
     -0.037  0.4432E+01  0.5148E+03
      0.158  0.3734E+01  0.5155E+03
      0.352  0.3867E+01  0.5163E+03
      0.547  0.6996E+01  0.5176E+03
      0.741  0.1552E+02  0.5206E+03
      0.935  0.3011E+02  0.5265E+03
      1.130  0.5026E+02  0.5363E+03
      1.324  0.7559E+02  0.5510E+03
      1.519  0.1018E+03  0.5709E+03
      1.713  0.1240E+03  0.5951E+03
      1.908  0.1402E+03  0.6224E+03
      2.102  0.1504E+03  0.6517E+03
      2.297  0.1548E+03  0.6819E+03
      2.491  0.1546E+03  0.7120E+03
      2.685  0.1516E+03  0.7416E+03
      2.880  0.1493E+03  0.7707E+03
      3.074  0.1492E+03  0.7998E+03
      3.269  0.1504E+03  0.8291E+03
      3.463  0.1526E+03  0.8588E+03
      3.658  0.1561E+03  0.8893E+03
      3.852  0.1604E+03  0.9205E+03
      4.047  0.1623E+03  0.9522E+03
      4.241  0.1594E+03  0.9833E+03
      4.435  0.1501E+03  0.1013E+04
      4.630  0.1325E+03  0.1038E+04
      4.824  0.1062E+03  0.1059E+04
      5.019  0.7392E+02  0.1073E+04
      5.213  0.4304E+02  0.1082E+04
      5.408  0.2039E+02  0.1086E+04
      5.602  0.7790E+01  0.1087E+04
      5.797  0.2463E+01  0.1088E+04
      5.991  0.6686E+00  0.1088E+04
      6.185  0.1610E+00  0.1088E+04
      6.380  0.3271E-01  0.1088E+04
      6.574  0.6129E-02  0.1088E+04
      6.769  0.7100E-03  0.1088E+04
      6.963  0.2933E-04  0.1088E+04
      7.158  0.2807E-03  0.1088E+04
      7.352  0.3529E-02  0.1088E+04
      7.547  0.2167E-01  0.1088E+04
      7.741  0.1267E+00  0.1088E+04
      7.936  0.6816E+00  0.1088E+04
      8.130  0.2659E+01  0.1089E+04
      8.324  0.7791E+01  0.1090E+04
      8.519  0.1827E+02  0.1094E+04
      8.713  0.3477E+02  0.1101E+04
      8.908  0.5630E+02  0.1112E+04
      9.102  0.8133E+02  0.1127E+04
      9.297  0.1088E+03  0.1149E+04
      9.491  0.1393E+03  0.1176E+04
      9.686  0.1755E+03  0.1210E+04
      9.880  0.2119E+03  0.1251E+04
     10.074  0.1998E+03  0.1290E+04
     10.269  0.9575E+02  0.1309E+04
     10.463  0.1522E+02  0.1312E+04
     10.658  0.6021E+00  0.1312E+04
     10.852  0.4919E-02  0.1312E+04
     11.047  0.7385E-05  0.1312E+04
     11.241  0.1901E-08  0.1312E+04
     11.436  0.7921E-13  0.1312E+04
     11.630  0.0000E+00  0.1312E+04
     11.824  0.0000E+00  0.1312E+04
     12.019  0.0000E+00  0.1312E+04
     12.213  0.0000E+00  0.1312E+04
     12.408  0.0000E+00  0.1312E+04
     12.602  0.0000E+00  0.1312E+04
     12.797  0.0000E+00  0.1312E+04
     12.90104124    -45.63426551  301      6.46825493      1.00000000
    -45.634  0.0000E+00  0.0000E+00
    -45.439  0.0000E+00  0.0000E+00
    -45.244  0.0000E+00  0.0000E+00
    -45.049  0.0000E+00  0.0000E+00
    -44.854  0.0000E+00  0.0000E+00
    -44.659  0.0000E+00  0.0000E+00
    -44.464  0.0000E+00  0.0000E+00
    -44.268  0.0000E+00  0.0000E+00
    -44.073  0.7625E-17  0.1488E-17
    -43.878  0.1627E-12  0.3174E-13
    -43.683  0.5377E-09  0.1049E-09
    -43.488  0.2819E-06  0.5511E-07
    -43.293  0.2438E-04  0.4812E-05
    -43.098  0.3770E-03  0.7837E-04
    -42.903  0.1321E-02  0.3361E-03
    -42.708  0.2383E-02  0.8011E-03
    -42.512  0.4725E-02  0.1723E-02
    -42.317  0.7025E-02  0.3094E-02
    -42.122  0.5956E-02  0.4256E-02
    -41.927  0.2805E-02  0.4803E-02
    -41.732  0.2156E-02  0.5224E-02
    -41.537  0.3356E-02  0.5879E-02
    -41.342  0.2263E-02  0.6320E-02
    -41.147  0.3947E-03  0.6397E-02
    -40.951  0.1468E-04  0.6400E-02
    -40.756  0.1031E-06  0.6400E-02
    -40.561  0.1250E-09  0.6400E-02
    -40.366  0.2472E-13  0.6400E-02
    -40.171  0.9104E-18  0.6400E-02
    -39.976  0.0000E+00  0.6400E-02
    -39.781  0.0000E+00  0.6400E-02
    -39.586  0.0000E+00  0.6400E-02
    -39.390  0.0000E+00  0.6400E-02
    -39.195  0.0000E+00  0.6400E-02
    -39.000  0.0000E+00  0.6400E-02
    -38.805  0.0000E+00  0.6400E-02
    -38.610  0.0000E+00  0.6400E-02
    -38.415  0.0000E+00  0.6400E-02
    -38.220  0.0000E+00  0.6400E-02
    -38.025  0.0000E+00  0.6400E-02
    -37.830  0.0000E+00  0.6400E-02
    -37.634  0.0000E+00  0.6400E-02
    -37.439  0.0000E+00  0.6400E-02
    -37.244  0.0000E+00  0.6400E-02
    -37.049  0.0000E+00  0.6400E-02
    -36.854  0.0000E+00  0.6400E-02
    -36.659  0.0000E+00  0.6400E-02
    -36.464  0.0000E+00  0.6400E-02
    -36.269  0.0000E+00  0.6400E-02
    -36.073  0.0000E+00  0.6400E-02
    -35.878  0.0000E+00  0.6400E-02
    -35.683  0.0000E+00  0.6400E-02
    -35.488  0.0000E+00  0.6400E-02
    -35.293  0.0000E+00  0.6400E-02
    -35.098  0.0000E+00  0.6400E-02
    -34.903  0.0000E+00  0.6400E-02
    -34.708  0.0000E+00  0.6400E-02
    -34.513  0.0000E+00  0.6400E-02
    -34.317  0.0000E+00  0.6400E-02
    -34.122  0.0000E+00  0.6400E-02
    -33.927  0.0000E+00  0.6400E-02
    -33.732  0.0000E+00  0.6400E-02
    -33.537  0.0000E+00  0.6400E-02
    -33.342  0.0000E+00  0.6400E-02
    -33.147  0.0000E+00  0.6400E-02
    -32.952  0.0000E+00  0.6400E-02
    -32.756  0.0000E+00  0.6400E-02
    -32.561  0.0000E+00  0.6400E-02
    -32.366  0.0000E+00  0.6400E-02
    -32.171  0.0000E+00  0.6400E-02
    -31.976  0.0000E+00  0.6400E-02
    -31.781  0.0000E+00  0.6400E-02
    -31.586  0.0000E+00  0.6400E-02
    -31.391  0.0000E+00  0.6400E-02
    -31.196  0.0000E+00  0.6400E-02
    -31.000  0.0000E+00  0.6400E-02
    -30.805  0.0000E+00  0.6400E-02
    -30.610  0.0000E+00  0.6400E-02
    -30.415  0.0000E+00  0.6400E-02
    -30.220  0.0000E+00  0.6400E-02
    -30.025  0.0000E+00  0.6400E-02
    -29.830  0.0000E+00  0.6400E-02
    -29.635  0.0000E+00  0.6400E-02
    -29.439  0.0000E+00  0.6400E-02
    -29.244  0.0000E+00  0.6400E-02
    -29.049  0.0000E+00  0.6400E-02
    -28.854  0.0000E+00  0.6400E-02
    -28.659  0.0000E+00  0.6400E-02
    -28.464  0.0000E+00  0.6400E-02
    -28.269  0.0000E+00  0.6400E-02
    -28.074  0.0000E+00  0.6400E-02
    -27.879  0.0000E+00  0.6400E-02
    -27.683  0.0000E+00  0.6400E-02
    -27.488  0.6578E-16  0.6400E-02
    -27.293  0.9621E-12  0.6400E-02
    -27.098  0.2192E-08  0.6400E-02
    -26.903  0.7964E-06  0.6400E-02
    -26.708  0.4805E-04  0.6410E-02
    -26.513  0.5129E-03  0.6510E-02
    -26.318  0.1045E-02  0.6714E-02
    -26.122  0.5411E-03  0.6819E-02
    -25.927  0.8462E-03  0.6984E-02
    -25.732  0.1415E-02  0.7260E-02
    -25.537  0.1523E-02  0.7558E-02
    -25.342  0.2138E-02  0.7975E-02
    -25.147  0.3413E-02  0.8641E-02
    -24.952  0.5875E-02  0.9787E-02
    -24.757  0.1150E-01  0.1203E-01
    -24.562  0.1009E-01  0.1400E-01
    -24.366  0.5780E-02  0.1513E-01
    -24.171  0.3487E-02  0.1581E-01
    -23.976  0.9223E-03  0.1599E-01
    -23.781  0.6138E-04  0.1600E-01
    -23.586  0.8353E-06  0.1600E-01
    -23.391  0.2050E-08  0.1600E-01
    -23.196  0.8375E-12  0.1600E-01
    -23.001  0.5417E-16  0.1600E-01
    -22.805  0.0000E+00  0.1600E-01
    -22.610  0.0000E+00  0.1600E-01
    -22.415  0.0000E+00  0.1600E-01
    -22.220  0.1906E-14  0.1600E-01
    -22.025  0.1577E-10  0.1600E-01
    -21.830  0.2127E-07  0.1600E-01
    -21.635  0.4983E-05  0.1600E-01
    -21.440  0.2273E-03  0.1605E-01
    -21.245  0.2418E-02  0.1652E-01
    -21.049  0.7954E-02  0.1807E-01
    -20.854  0.1323E-01  0.2065E-01
    -20.659  0.1784E-01  0.2413E-01
    -20.464  0.1966E-01  0.2797E-01
    -20.269  0.1399E-01  0.3070E-01
    -20.074  0.8872E-02  0.3243E-01
    -19.879  0.8581E-02  0.3410E-01
    -19.684  0.4869E-02  0.3505E-01
    -19.488  0.7313E-03  0.3520E-01
    -19.293  0.2185E-04  0.3520E-01
    -19.098  0.1150E-06  0.3520E-01
    -18.903  0.1001E-09  0.3520E-01
    -18.708  0.1389E-13  0.3520E-01
    -18.513  0.0000E+00  0.3520E-01
    -18.318  0.0000E+00  0.3520E-01
    -18.123  0.0000E+00  0.3520E-01
    -17.928  0.0000E+00  0.3520E-01
    -17.732  0.0000E+00  0.3520E-01
    -17.537  0.0000E+00  0.3520E-01
    -17.342  0.0000E+00  0.3520E-01
    -17.147  0.0000E+00  0.3520E-01
    -16.952  0.0000E+00  0.3520E-01
    -16.757  0.0000E+00  0.3520E-01
    -16.562  0.0000E+00  0.3520E-01
    -16.367  0.0000E+00  0.3520E-01
    -16.171  0.0000E+00  0.3520E-01
    -15.976  0.0000E+00  0.3520E-01
    -15.781  0.0000E+00  0.3520E-01
    -15.586  0.0000E+00  0.3520E-01
    -15.391  0.0000E+00  0.3520E-01
    -15.196  0.0000E+00  0.3520E-01
    -15.001  0.0000E+00  0.3520E-01
    -14.806  0.0000E+00  0.3520E-01
    -14.611  0.1385E-15  0.3520E-01
    -14.415  0.1772E-11  0.3520E-01
    -14.220  0.3540E-08  0.3520E-01
    -14.025  0.1130E-05  0.3520E-01
    -13.830  0.6018E-04  0.3521E-01
    -13.635  0.5737E-03  0.3532E-01
    -13.440  0.1172E-02  0.3555E-01
    -13.245  0.1337E-02  0.3581E-01
    -13.050  0.2485E-02  0.3630E-01
    -12.854  0.4141E-02  0.3711E-01
    -12.659  0.5068E-02  0.3810E-01
    -12.464  0.8568E-02  0.3977E-01
    -12.269  0.1308E-01  0.4232E-01
    -12.074  0.1425E-01  0.4510E-01
    -11.879  0.1438E-01  0.4790E-01
    -11.684  0.1472E-01  0.5078E-01
    -11.489  0.1635E-01  0.5397E-01
    -11.294  0.1668E-01  0.5722E-01
    -11.098  0.1485E-01  0.6012E-01
    -10.903  0.1430E-01  0.6291E-01
    -10.708  0.1414E-01  0.6567E-01
    -10.513  0.1324E-01  0.6825E-01
    -10.318  0.1100E-01  0.7040E-01
    -10.123  0.8452E-02  0.7205E-01
     -9.928  0.6308E-02  0.7328E-01
     -9.733  0.4166E-02  0.7409E-01
     -9.537  0.2496E-02  0.7458E-01
     -9.342  0.2717E-02  0.7511E-01
     -9.147  0.3599E-02  0.7581E-01
     -8.952  0.4063E-02  0.7661E-01
     -8.757  0.6128E-02  0.7780E-01
     -8.562  0.1042E-01  0.7983E-01
     -8.367  0.1514E-01  0.8279E-01
     -8.172  0.1890E-01  0.8647E-01
     -7.977  0.1783E-01  0.8995E-01
     -7.781  0.1638E-01  0.9315E-01
     -7.586  0.1535E-01  0.9614E-01
     -7.391  0.1163E-01  0.9841E-01
     -7.196  0.9145E-02  0.1002E+00
     -7.001  0.6392E-02  0.1014E+00
     -6.806  0.3366E-02  0.1021E+00
     -6.611  0.1315E-02  0.1024E+00
     -6.416  0.2010E-03  0.1024E+00
     -6.220  0.7003E-05  0.1024E+00
     -6.025  0.4418E-07  0.1024E+00
     -5.830  0.4588E-10  0.1024E+00
     -5.635  0.7525E-14  0.1024E+00
     -5.440  0.2276E-18  0.1024E+00
     -5.245  0.0000E+00  0.1024E+00
     -5.050  0.0000E+00  0.1024E+00
     -4.855  0.0000E+00  0.1024E+00
     -4.660  0.0000E+00  0.1024E+00
     -4.464  0.0000E+00  0.1024E+00
     -4.269  0.0000E+00  0.1024E+00
     -4.074  0.0000E+00  0.1024E+00
     -3.879  0.0000E+00  0.1024E+00
     -3.684  0.0000E+00  0.1024E+00
     -3.489  0.0000E+00  0.1024E+00
     -3.294  0.0000E+00  0.1024E+00
     -3.099  0.0000E+00  0.1024E+00
     -2.903  0.0000E+00  0.1024E+00
     -2.708  0.0000E+00  0.1024E+00
     -2.513  0.0000E+00  0.1024E+00
     -2.318  0.0000E+00  0.1024E+00
     -2.123  0.0000E+00  0.1024E+00
     -1.928  0.0000E+00  0.1024E+00
     -1.733  0.1461E-15  0.1024E+00
     -1.538  0.1853E-11  0.1024E+00
     -1.343  0.3666E-08  0.1024E+00
     -1.147  0.1159E-05  0.1024E+00
     -0.952  0.6114E-04  0.1024E+00
     -0.757  0.5757E-03  0.1025E+00
     -0.562  0.1118E-02  0.1027E+00
     -0.367  0.1041E-02  0.1029E+00
     -0.172  0.1008E-02  0.1031E+00
      0.023  0.2909E-03  0.1032E+00
      0.218  0.3109E-03  0.1033E+00
      0.414  0.1727E-02  0.1036E+00
      0.609  0.3105E-02  0.1042E+00
      0.804  0.3938E-02  0.1050E+00
      0.999  0.6703E-02  0.1063E+00
      1.194  0.1245E-01  0.1087E+00
      1.389  0.1874E-01  0.1124E+00
      1.584  0.2358E-01  0.1170E+00
      1.779  0.2762E-01  0.1224E+00
      1.974  0.3000E-01  0.1282E+00
      2.170  0.2950E-01  0.1340E+00
      2.365  0.3019E-01  0.1399E+00
      2.560  0.3017E-01  0.1457E+00
      2.755  0.2834E-01  0.1513E+00
      2.950  0.2887E-01  0.1569E+00
      3.145  0.3037E-01  0.1628E+00
      3.340  0.3069E-01  0.1688E+00
      3.535  0.3011E-01  0.1747E+00
      3.731  0.3026E-01  0.1806E+00
      3.926  0.3157E-01  0.1868E+00
      4.121  0.3161E-01  0.1929E+00
      4.316  0.3011E-01  0.1988E+00
      4.511  0.2766E-01  0.2042E+00
      4.706  0.2423E-01  0.2089E+00
      4.901  0.2056E-01  0.2129E+00
      5.096  0.1401E-01  0.2157E+00
      5.291  0.6273E-02  0.2169E+00
      5.487  0.2553E-02  0.2174E+00
      5.682  0.9432E-03  0.2176E+00
      5.877  0.1224E-03  0.2176E+00
      6.072  0.3307E-05  0.2176E+00
      6.267  0.1554E-07  0.2176E+00
      6.462  0.1184E-10  0.2176E+00
      6.657  0.1416E-14  0.2176E+00
      6.852  0.0000E+00  0.2176E+00
      7.048  0.2845E-17  0.2176E+00
      7.243  0.7663E-13  0.2176E+00
      7.438  0.3271E-09  0.2176E+00
      7.633  0.2245E-06  0.2176E+00
      7.828  0.2593E-04  0.2176E+00
      8.023  0.5597E-03  0.2177E+00
      8.218  0.3008E-02  0.2183E+00
      8.413  0.6909E-02  0.2196E+00
      8.608  0.9352E-02  0.2215E+00
      8.804  0.1063E-01  0.2235E+00
      8.999  0.1485E-01  0.2264E+00
      9.194  0.2049E-01  0.2304E+00
      9.389  0.2277E-01  0.2349E+00
      9.584  0.2545E-01  0.2399E+00
      9.779  0.3044E-01  0.2458E+00
      9.974  0.3395E-01  0.2524E+00
     10.169  0.3184E-01  0.2586E+00
     10.365  0.1643E-01  0.2618E+00
     10.560  0.2783E-02  0.2624E+00
     10.755  0.1149E-03  0.2624E+00
     10.950  0.9627E-06  0.2624E+00
     11.145  0.1457E-08  0.2624E+00
     11.340  0.3721E-12  0.2624E+00
     11.535  0.1525E-16  0.2624E+00
     11.730  0.0000E+00  0.2624E+00
     11.925  0.0000E+00  0.2624E+00
     12.121  0.0000E+00  0.2624E+00
     12.316  0.0000E+00  0.2624E+00
     12.511  0.0000E+00  0.2624E+00
     12.706  0.0000E+00  0.2624E+00
     12.901  0.0000E+00  0.2624E+00
