 # LLZO_Ia3d_Al40_partial_00.vasp
 
        1472  atoms
           5  atom types
 
      0.000000000000      26.285169601400  xlo xhi
      0.000000000000      26.285169601400  ylo yhi
      0.000000000000      26.285169601400  zlo zhi
 
Masses
 
            1   15.99900000             # O
            2   138.90547000            # La
            3   91.22400000             # Zr
            4   6.94000000              # Li
            5   26.98153860             # Al
 
Atoms # atomic
 
         1    1        1.314258493213       2.570689626445       3.700951853592
         2    1       11.828326005208      10.571894779978       9.441632947108
         3    1        5.257033999136      10.571894779978      10.272244253942
         4    1        7.885551195842       2.570689626445       2.870340546758
         5    1       11.828326005208       9.141982421072       2.870340546758
         6    1        1.314258493213       4.000602773905      10.272244253942
         7    1        7.885551195842       4.000602773905       9.441632947108
         8    1        5.257033999136       9.141982421072       3.700951853592
         9    1        3.700951853592       1.314258493213       2.570689626445
        10    1        9.441632947108      11.828326005208      10.571894779978
        11    1       10.272244253942       5.257033999136      10.571894779978
        12    1        2.870340546758       7.885551195842       2.570689626445
        13    1        2.870340546758      11.828326005208       9.141982421072
        14    1       10.272244253942       1.314258493213       4.000602773905
        15    1        9.441632947108       7.885551195842       4.000602773905
        16    1        3.700951853592       5.257033999136       9.141982421072
        17    1        2.570689626445       3.700951853592       1.314258493213
        18    1       10.571894779978       9.441632947108      11.828326005208
        19    1       10.571894779978      10.272244253942       5.257033999136
        20    1        2.570689626445       2.870340546758       7.885551195842
        21    1        9.141982421072       2.870340546758      11.828326005208
        22    1        4.000602773905      10.272244253942       1.314258493213
        23    1        4.000602773905       9.441632947108       7.885551195842
        24    1        9.141982421072       3.700951853592       5.257033999136
        25    1       12.427628621247       4.599904601389      12.727279147283
        26    1        0.714956573730       8.542679805033       0.415305653417
        27    1        7.286248579803       8.542679805033       6.155986746933
        28    1        5.856335826620       4.599904601389       6.986598053767
        29    1        5.856335826620       1.971387798961       0.415305653417
        30    1        7.286248579803      11.171197396017      12.727279147283
        31    1        0.714956573730      11.171197396017       6.986598053767
        32    1       12.427628621247       1.971387798961       6.155986746933
        33    1       11.171197396017       6.986598053767       0.714956573730
        34    1        1.971387798961       6.155986746933      12.427628621247
        35    1        1.971387798961       0.415305653417       5.856335826620
        36    1       11.171197396017      12.727279147283       7.286248579803
        37    1        8.542679805033       6.155986746933       7.286248579803
        38    1        4.599904601389       6.986598053767       5.856335826620
        39    1        4.599904601389      12.727279147283      12.427628621247
        40    1        8.542679805033       0.415305653417       0.714956573730
        41    1        0.415305653417       5.856335826620       1.971387798961
        42    1       12.727279147283       7.286248579803      11.171197396017
        43    1        6.986598053767       0.714956573730      11.171197396017
        44    1        6.155986746933      12.427628621247       1.971387798961
        45    1       12.727279147283      12.427628621247       4.599904601389
        46    1        0.415305653417       0.714956573730       8.542679805033
        47    1        6.155986746933       7.286248579803       8.542679805033
        48    1        6.986598053767       5.856335826620       4.599904601389
        49    1        7.885551195842       9.141982421072      10.272244253942
        50    1        5.257033999136       4.000602773905       2.870340546758
        51    1       11.828326005208       4.000602773905       3.700951853592
        52    1        1.314258493213       9.141982421072       9.441632947108
        53    1        5.257033999136       2.570689626445       9.441632947108
        54    1        7.885551195842      10.571894779978       3.700951853592
        55    1        1.314258493213      10.571894779978       2.870340546758
        56    1       11.828326005208       2.570689626445      10.272244253942
        57    1       10.272244253942       7.885551195842       9.141982421072
        58    1        2.870340546758       5.257033999136       4.000602773905
        59    1        3.700951853592      11.828326005208       4.000602773905
        60    1        9.441632947108       1.314258493213       9.141982421072
        61    1        9.441632947108       5.257033999136       2.570689626445
        62    1        3.700951853592       7.885551195842      10.571894779978
        63    1        2.870340546758       1.314258493213      10.571894779978
        64    1       10.272244253942      11.828326005208       2.570689626445
        65    1        9.141982421072      10.272244253942       7.885551195842
        66    1        4.000602773905       2.870340546758       5.257033999136
        67    1        4.000602773905       3.700951853592      11.828326005208
        68    1        9.141982421072       9.441632947108       1.314258493213
        69    1        2.570689626445       9.441632947108       5.257033999136
        70    1       10.571894779978       3.700951853592       7.885551195842
        71    1       10.571894779978       2.870340546758       1.314258493213
        72    1        2.570689626445      10.272244253942      11.828326005208
        73    1        5.856335826620      11.171197396017       6.155986746933
        74    1        7.286248579803       1.971387798961       6.986598053767
        75    1        0.714956573730       1.971387798961      12.727279147283
        76    1       12.427628621247      11.171197396017       0.415305653417
        77    1       12.427628621247       8.542679805033       6.986598053767
        78    1        0.714956573730       4.599904601389       6.155986746933
        79    1        7.286248579803       4.599904601389       0.415305653417
        80    1        5.856335826620       8.542679805033      12.727279147283
        81    1        4.599904601389       0.415305653417       7.286248579803
        82    1        8.542679805033      12.727279147283       5.856335826620
        83    1        8.542679805033       6.986598053767      12.427628621247
        84    1        4.599904601389       6.155986746933       0.714956573730
        85    1        1.971387798961      12.727279147283       0.714956573730
        86    1       11.171197396017       0.415305653417      12.427628621247
        87    1       11.171197396017       6.155986746933       5.856335826620
        88    1        1.971387798961       6.986598053767       7.286248579803
        89    1        6.986598053767      12.427628621247       8.542679805033
        90    1        6.155986746933       0.714956573730       4.599904601389
        91    1        0.415305653417       7.286248579803       4.599904601389
        92    1       12.727279147283       5.856335826620       8.542679805033
        93    1        6.155986746933       5.856335826620      11.171197396017
        94    1        6.986598053767       7.286248579803       1.971387798961
        95    1       12.727279147283       0.714956573730       1.971387798961
        96    1        0.415305653417      12.427628621247      11.171197396017
        97    1        1.314258493213       2.570689626445      16.843536654292
        98    1       11.828326005208      10.571894779978      22.584217747808
        99    1        5.257033999136      10.571894779978      23.414829054642
       100    1        7.885551195842       2.570689626445      16.012925347458
       101    1       11.828326005208       9.141982421072      16.012925347458
       102    1        1.314258493213       4.000602773905      23.414829054642
       103    1        7.885551195842       4.000602773905      22.584217747808
       104    1        5.257033999136       9.141982421072      16.843536654292
       105    1        3.700951853592       1.314258493213      15.713274427145
       106    1        9.441632947108      11.828326005208      23.714479580678
       107    1       10.272244253942       5.257033999136      23.714479580678
       108    1        2.870340546758       7.885551195842      15.713274427145
       109    1        2.870340546758      11.828326005208      22.284567221772
       110    1       10.272244253942       1.314258493213      17.143187574605
       111    1        9.441632947108       7.885551195842      17.143187574605
       112    1        3.700951853592       5.257033999136      22.284567221772
       113    1        2.570689626445       3.700951853592      14.456843293913
       114    1       10.571894779978       9.441632947108      24.970910805908
       115    1       10.571894779978      10.272244253942      18.399618799836
       116    1        2.570689626445       2.870340546758      21.028135996542
       117    1        9.141982421072       2.870340546758      24.970910805908
       118    1        4.000602773905      10.272244253942      14.456843293913
       119    1        4.000602773905       9.441632947108      21.028135996542
       120    1        9.141982421072       3.700951853592      18.399618799836
       121    1       12.427628621247       4.599904601389      25.869863947983
       122    1        0.714956573730       8.542679805033      13.557890454117
       123    1        7.286248579803       8.542679805033      19.298571547633
       124    1        5.856335826620       4.599904601389      20.129182854467
       125    1        5.856335826620       1.971387798961      13.557890454117
       126    1        7.286248579803      11.171197396017      25.869863947983
       127    1        0.714956573730      11.171197396017      20.129182854467
       128    1       12.427628621247       1.971387798961      19.298571547633
       129    1       11.171197396017       6.986598053767      13.857541374430
       130    1        1.971387798961       6.155986746933      25.570213421947
       131    1        1.971387798961       0.415305653417      18.998920627320
       132    1       11.171197396017      12.727279147283      20.428833380503
       133    1        8.542679805033       6.155986746933      20.428833380503
       134    1        4.599904601389       6.986598053767      18.998920627320
       135    1        4.599904601389      12.727279147283      25.570213421947
       136    1        8.542679805033       0.415305653417      13.857541374430
       137    1        0.415305653417       5.856335826620      15.113972599661
       138    1       12.727279147283       7.286248579803      24.313782196717
       139    1        6.986598053767       0.714956573730      24.313782196717
       140    1        6.155986746933      12.427628621247      15.113972599661
       141    1       12.727279147283      12.427628621247      17.742489402089
       142    1        0.415305653417       0.714956573730      21.685264605733
       143    1        6.155986746933       7.286248579803      21.685264605733
       144    1        6.986598053767       5.856335826620      17.742489402089
       145    1        7.885551195842       9.141982421072      23.414829054642
       146    1        5.257033999136       4.000602773905      16.012925347458
       147    1       11.828326005208       4.000602773905      16.843536654292
       148    1        1.314258493213       9.141982421072      22.584217747808
       149    1        5.257033999136       2.570689626445      22.584217747808
       150    1        7.885551195842      10.571894779978      16.843536654292
       151    1        1.314258493213      10.571894779978      16.012925347458
       152    1       11.828326005208       2.570689626445      23.414829054642
       153    1       10.272244253942       7.885551195842      22.284567221772
       154    1        2.870340546758       5.257033999136      17.143187574605
       155    1        3.700951853592      11.828326005208      17.143187574605
       156    1        9.441632947108       1.314258493213      22.284567221772
       157    1        9.441632947108       5.257033999136      15.713274427145
       158    1        3.700951853592       7.885551195842      23.714479580678
       159    1        2.870340546758       1.314258493213      23.714479580678
       160    1       10.272244253942      11.828326005208      15.713274427145
       161    1        9.141982421072      10.272244253942      21.028135996542
       162    1        4.000602773905       2.870340546758      18.399618799836
       163    1        4.000602773905       3.700951853592      24.970910805908
       164    1        9.141982421072       9.441632947108      14.456843293913
       165    1        2.570689626445       9.441632947108      18.399618799836
       166    1       10.571894779978       3.700951853592      21.028135996542
       167    1       10.571894779978       2.870340546758      14.456843293913
       168    1        2.570689626445      10.272244253942      24.970910805908
       169    1        5.856335826620      11.171197396017      19.298571547633
       170    1        7.286248579803       1.971387798961      20.129182854467
       171    1        0.714956573730       1.971387798961      25.869863947983
       172    1       12.427628621247      11.171197396017      13.557890454117
       173    1       12.427628621247       8.542679805033      20.129182854467
       174    1        0.714956573730       4.599904601389      19.298571547633
       175    1        7.286248579803       4.599904601389      13.557890454117
       176    1        5.856335826620       8.542679805033      25.869863947983
       177    1        4.599904601389       0.415305653417      20.428833380503
       178    1        8.542679805033      12.727279147283      18.998920627320
       179    1        8.542679805033       6.986598053767      25.570213421947
       180    1        4.599904601389       6.155986746933      13.857541374430
       181    1        1.971387798961      12.727279147283      13.857541374430
       182    1       11.171197396017       0.415305653417      25.570213421947
       183    1       11.171197396017       6.155986746933      18.998920627320
       184    1        1.971387798961       6.986598053767      20.428833380503
       185    1        6.986598053767      12.427628621247      21.685264605733
       186    1        6.155986746933       0.714956573730      17.742489402089
       187    1        0.415305653417       7.286248579803      17.742489402089
       188    1       12.727279147283       5.856335826620      21.685264605733
       189    1        6.155986746933       5.856335826620      24.313782196717
       190    1        6.986598053767       7.286248579803      15.113972599661
       191    1       12.727279147283       0.714956573730      15.113972599661
       192    1        0.415305653417      12.427628621247      24.313782196717
       193    1        1.314258493213      15.713274427145       3.700951853592
       194    1       11.828326005208      23.714479580678       9.441632947108
       195    1        5.257033999136      23.714479580678      10.272244253942
       196    1        7.885551195842      15.713274427145       2.870340546758
       197    1       11.828326005208      22.284567221772       2.870340546758
       198    1        1.314258493213      17.143187574605      10.272244253942
       199    1        7.885551195842      17.143187574605       9.441632947108
       200    1        5.257033999136      22.284567221772       3.700951853592
       201    1        3.700951853592      14.456843293913       2.570689626445
       202    1        9.441632947108      24.970910805908      10.571894779978
       203    1       10.272244253942      18.399618799836      10.571894779978
       204    1        2.870340546758      21.028135996542       2.570689626445
       205    1        2.870340546758      24.970910805908       9.141982421072
       206    1       10.272244253942      14.456843293913       4.000602773905
       207    1        9.441632947108      21.028135996542       4.000602773905
       208    1        3.700951853592      18.399618799836       9.141982421072
       209    1        2.570689626445      16.843536654292       1.314258493213
       210    1       10.571894779978      22.584217747808      11.828326005208
       211    1       10.571894779978      23.414829054642       5.257033999136
       212    1        2.570689626445      16.012925347458       7.885551195842
       213    1        9.141982421072      16.012925347458      11.828326005208
       214    1        4.000602773905      23.414829054642       1.314258493213
       215    1        4.000602773905      22.584217747808       7.885551195842
       216    1        9.141982421072      16.843536654292       5.257033999136
       217    1       12.427628621247      17.742489402089      12.727279147283
       218    1        0.714956573730      21.685264605733       0.415305653417
       219    1        7.286248579803      21.685264605733       6.155986746933
       220    1        5.856335826620      17.742489402089       6.986598053767
       221    1        5.856335826620      15.113972599661       0.415305653417
       222    1        7.286248579803      24.313782196717      12.727279147283
       223    1        0.714956573730      24.313782196717       6.986598053767
       224    1       12.427628621247      15.113972599661       6.155986746933
       225    1       11.171197396017      20.129182854467       0.714956573730
       226    1        1.971387798961      19.298571547633      12.427628621247
       227    1        1.971387798961      13.557890454117       5.856335826620
       228    1       11.171197396017      25.869863947983       7.286248579803
       229    1        8.542679805033      19.298571547633       7.286248579803
       230    1        4.599904601389      20.129182854467       5.856335826620
       231    1        4.599904601389      25.869863947983      12.427628621247
       232    1        8.542679805033      13.557890454117       0.714956573730
       233    1        0.415305653417      18.998920627320       1.971387798961
       234    1       12.727279147283      20.428833380503      11.171197396017
       235    1        6.986598053767      13.857541374430      11.171197396017
       236    1        6.155986746933      25.570213421947       1.971387798961
       237    1       12.727279147283      25.570213421947       4.599904601389
       238    1        0.415305653417      13.857541374430       8.542679805033
       239    1        6.155986746933      20.428833380503       8.542679805033
       240    1        6.986598053767      18.998920627320       4.599904601389
       241    1        7.885551195842      22.284567221772      10.272244253942
       242    1        5.257033999136      17.143187574605       2.870340546758
       243    1       11.828326005208      17.143187574605       3.700951853592
       244    1        1.314258493213      22.284567221772       9.441632947108
       245    1        5.257033999136      15.713274427145       9.441632947108
       246    1        7.885551195842      23.714479580678       3.700951853592
       247    1        1.314258493213      23.714479580678       2.870340546758
       248    1       11.828326005208      15.713274427145      10.272244253942
       249    1       10.272244253942      21.028135996542       9.141982421072
       250    1        2.870340546758      18.399618799836       4.000602773905
       251    1        3.700951853592      24.970910805908       4.000602773905
       252    1        9.441632947108      14.456843293913       9.141982421072
       253    1        9.441632947108      18.399618799836       2.570689626445
       254    1        3.700951853592      21.028135996542      10.571894779978
       255    1        2.870340546758      14.456843293913      10.571894779978
       256    1       10.272244253942      24.970910805908       2.570689626445
       257    1        9.141982421072      23.414829054642       7.885551195842
       258    1        4.000602773905      16.012925347458       5.257033999136
       259    1        4.000602773905      16.843536654292      11.828326005208
       260    1        9.141982421072      22.584217747808       1.314258493213
       261    1        2.570689626445      22.584217747808       5.257033999136
       262    1       10.571894779978      16.843536654292       7.885551195842
       263    1       10.571894779978      16.012925347458       1.314258493213
       264    1        2.570689626445      23.414829054642      11.828326005208
       265    1        5.856335826620      24.313782196717       6.155986746933
       266    1        7.286248579803      15.113972599661       6.986598053767
       267    1        0.714956573730      15.113972599661      12.727279147283
       268    1       12.427628621247      24.313782196717       0.415305653417
       269    1       12.427628621247      21.685264605733       6.986598053767
       270    1        0.714956573730      17.742489402089       6.155986746933
       271    1        7.286248579803      17.742489402089       0.415305653417
       272    1        5.856335826620      21.685264605733      12.727279147283
       273    1        4.599904601389      13.557890454117       7.286248579803
       274    1        8.542679805033      25.869863947983       5.856335826620
       275    1        8.542679805033      20.129182854467      12.427628621247
       276    1        4.599904601389      19.298571547633       0.714956573730
       277    1        1.971387798961      25.869863947983       0.714956573730
       278    1       11.171197396017      13.557890454117      12.427628621247
       279    1       11.171197396017      19.298571547633       5.856335826620
       280    1        1.971387798961      20.129182854467       7.286248579803
       281    1        6.986598053767      25.570213421947       8.542679805033
       282    1        6.155986746933      13.857541374430       4.599904601389
       283    1        0.415305653417      20.428833380503       4.599904601389
       284    1       12.727279147283      18.998920627320       8.542679805033
       285    1        6.155986746933      18.998920627320      11.171197396017
       286    1        6.986598053767      20.428833380503       1.971387798961
       287    1       12.727279147283      13.857541374430       1.971387798961
       288    1        0.415305653417      25.570213421947      11.171197396017
       289    1        1.314258493213      15.713274427145      16.843536654292
       290    1       11.828326005208      23.714479580678      22.584217747808
       291    1        5.257033999136      23.714479580678      23.414829054642
       292    1        7.885551195842      15.713274427145      16.012925347458
       293    1       11.828326005208      22.284567221772      16.012925347458
       294    1        1.314258493213      17.143187574605      23.414829054642
       295    1        7.885551195842      17.143187574605      22.584217747808
       296    1        5.257033999136      22.284567221772      16.843536654292
       297    1        3.700951853592      14.456843293913      15.713274427145
       298    1        9.441632947108      24.970910805908      23.714479580678
       299    1       10.272244253942      18.399618799836      23.714479580678
       300    1        2.870340546758      21.028135996542      15.713274427145
       301    1        2.870340546758      24.970910805908      22.284567221772
       302    1       10.272244253942      14.456843293913      17.143187574605
       303    1        9.441632947108      21.028135996542      17.143187574605
       304    1        3.700951853592      18.399618799836      22.284567221772
       305    1        2.570689626445      16.843536654292      14.456843293913
       306    1       10.571894779978      22.584217747808      24.970910805908
       307    1       10.571894779978      23.414829054642      18.399618799836
       308    1        2.570689626445      16.012925347458      21.028135996542
       309    1        9.141982421072      16.012925347458      24.970910805908
       310    1        4.000602773905      23.414829054642      14.456843293913
       311    1        4.000602773905      22.584217747808      21.028135996542
       312    1        9.141982421072      16.843536654292      18.399618799836
       313    1       12.427628621247      17.742489402089      25.869863947983
       314    1        0.714956573730      21.685264605733      13.557890454117
       315    1        7.286248579803      21.685264605733      19.298571547633
       316    1        5.856335826620      17.742489402089      20.129182854467
       317    1        5.856335826620      15.113972599661      13.557890454117
       318    1        7.286248579803      24.313782196717      25.869863947983
       319    1        0.714956573730      24.313782196717      20.129182854467
       320    1       12.427628621247      15.113972599661      19.298571547633
       321    1       11.171197396017      20.129182854467      13.857541374430
       322    1        1.971387798961      19.298571547633      25.570213421947
       323    1        1.971387798961      13.557890454117      18.998920627320
       324    1       11.171197396017      25.869863947983      20.428833380503
       325    1        8.542679805033      19.298571547633      20.428833380503
       326    1        4.599904601389      20.129182854467      18.998920627320
       327    1        4.599904601389      25.869863947983      25.570213421947
       328    1        8.542679805033      13.557890454117      13.857541374430
       329    1        0.415305653417      18.998920627320      15.113972599661
       330    1       12.727279147283      20.428833380503      24.313782196717
       331    1        6.986598053767      13.857541374430      24.313782196717
       332    1        6.155986746933      25.570213421947      15.113972599661
       333    1       12.727279147283      25.570213421947      17.742489402089
       334    1        0.415305653417      13.857541374430      21.685264605733
       335    1        6.155986746933      20.428833380503      21.685264605733
       336    1        6.986598053767      18.998920627320      17.742489402089
       337    1        7.885551195842      22.284567221772      23.414829054642
       338    1        5.257033999136      17.143187574605      16.012925347458
       339    1       11.828326005208      17.143187574605      16.843536654292
       340    1        1.314258493213      22.284567221772      22.584217747808
       341    1        5.257033999136      15.713274427145      22.584217747808
       342    1        7.885551195842      23.714479580678      16.843536654292
       343    1        1.314258493213      23.714479580678      16.012925347458
       344    1       11.828326005208      15.713274427145      23.414829054642
       345    1       10.272244253942      21.028135996542      22.284567221772
       346    1        2.870340546758      18.399618799836      17.143187574605
       347    1        3.700951853592      24.970910805908      17.143187574605
       348    1        9.441632947108      14.456843293913      22.284567221772
       349    1        9.441632947108      18.399618799836      15.713274427145
       350    1        3.700951853592      21.028135996542      23.714479580678
       351    1        2.870340546758      14.456843293913      23.714479580678
       352    1       10.272244253942      24.970910805908      15.713274427145
       353    1        9.141982421072      23.414829054642      21.028135996542
       354    1        4.000602773905      16.012925347458      18.399618799836
       355    1        4.000602773905      16.843536654292      24.970910805908
       356    1        9.141982421072      22.584217747808      14.456843293913
       357    1        2.570689626445      22.584217747808      18.399618799836
       358    1       10.571894779978      16.843536654292      21.028135996542
       359    1       10.571894779978      16.012925347458      14.456843293913
       360    1        2.570689626445      23.414829054642      24.970910805908
       361    1        5.856335826620      24.313782196717      19.298571547633
       362    1        7.286248579803      15.113972599661      20.129182854467
       363    1        0.714956573730      15.113972599661      25.869863947983
       364    1       12.427628621247      24.313782196717      13.557890454117
       365    1       12.427628621247      21.685264605733      20.129182854467
       366    1        0.714956573730      17.742489402089      19.298571547633
       367    1        7.286248579803      17.742489402089      13.557890454117
       368    1        5.856335826620      21.685264605733      25.869863947983