 running on  160 total cores
 distrk:  each k-point on  160 cores,    1 groups
 distr:  one band on   20 cores,    8 groups
 using from now: INCAR     
 vasp.5.4.4.18Apr17-6-g9f103f2a35 (build May 01 2020 14:22:42) gamma-only       
  
 POSCAR found type information on POSCAR  O  La Zr Li Al
 POSCAR found :  5 types and     192 ions
 scaLAPACK will be used
 LDA part: xc-table for Pade appr. of Perdew
 POSCAR, INCAR and KPOINTS ok, starting setup
 FFT: planning ...
 WAVECAR not read
 WARNING: random wavefunctions but no delay for mixing, default for NELMDL
 entering main loop
       N       E                     dE             d eps       ncg     rms          rms(c)
DAV:   1     0.254812152746E+05    0.25481E+05   -0.41941E+05  1584   0.253E+03
DAV:   2     0.950982230936E+04   -0.15971E+05   -0.14770E+05  1416   0.709E+02
DAV:   3     0.271962660964E+04   -0.67902E+04   -0.61717E+04  1496   0.357E+02
DAV:   4    -0.389609156673E+03   -0.31092E+04   -0.29036E+04  2056   0.224E+02
DAV:   5    -0.143179998056E+04   -0.10422E+04   -0.10056E+04  2536   0.142E+02    0.116E+02
DAV:   6    -0.131077741236E+04    0.12102E+03   -0.14180E+03  2432   0.658E+01    0.504E+01
DAV:   7    -0.133472198187E+04   -0.23945E+02   -0.38877E+02  2560   0.338E+01    0.243E+01
DAV:   8    -0.134667887052E+04   -0.11957E+02   -0.28262E+02  2544   0.275E+01    0.279E+01
DAV:   9    -0.133727620229E+04    0.94027E+01   -0.67429E+01  2472   0.159E+01    0.802E+00
DAV:  10    -0.133867013055E+04   -0.13939E+01   -0.16188E+01  2600   0.880E+00    0.898E+00
DAV:  11    -0.133863788393E+04    0.32247E-01   -0.80607E+00  2616   0.474E+00    0.446E+00
DAV:  12    -0.133852302927E+04    0.11485E+00   -0.28227E+00  2576   0.381E+00    0.315E+00
DAV:  13    -0.133861504275E+04   -0.92013E-01   -0.98415E-01  2576   0.183E+00    0.234E+00
DAV:  14    -0.133858443184E+04    0.30611E-01   -0.41156E-01  2576   0.126E+00    0.125E+00
DAV:  15    -0.133859661762E+04   -0.12186E-01   -0.13299E-01  2576   0.702E-01    0.107E+00
DAV:  16    -0.133859658781E+04    0.29811E-04   -0.41882E-02  2616   0.408E-01    0.762E-01
DAV:  17    -0.133859277656E+04    0.38112E-02   -0.32829E-02  2480   0.348E-01    0.322E-01
DAV:  18    -0.133859320255E+04   -0.42598E-03   -0.63307E-03  2544   0.174E-01    0.193E-01
DAV:  19    -0.133859302836E+04    0.17419E-03   -0.39406E-03  2544   0.115E-01    0.127E-01
DAV:  20    -0.133859309965E+04   -0.71294E-04   -0.80662E-04  2600   0.586E-02    0.339E-02
DAV:  21    -0.133859310943E+04   -0.97784E-05   -0.20467E-04  2624   0.284E-02    0.373E-02
DAV:  22    -0.133859312520E+04   -0.15765E-04   -0.81041E-05  2488   0.164E-02    0.138E-02
DAV:  23    -0.133859312284E+04    0.23596E-05   -0.32083E-05  2112   0.108E-02    0.764E-03
DAV:  24    -0.133859312634E+04   -0.35017E-05   -0.12916E-05  1680   0.879E-03    0.222E-03
DAV:  25    -0.133859312685E+04   -0.50833E-06   -0.34747E-06  1040   0.500E-03
   1 F= -.13385931E+04 E0= -.13385931E+04  d E =-.133859E+04
 BRION: g(F)=  0.410E+02 g(S)=  0.000E+00
 bond charge predicted
       N       E                     dE             d eps       ncg     rms          rms(c)
DAV:   1    -0.132248290544E+04    0.16110E+02   -0.52523E+03  1624   0.108E+02    0.210E+01
DAV:   2    -0.135799170385E+04   -0.35509E+02   -0.41879E+02  2584   0.475E+01    0.108E+01
DAV:   3    -0.135748936944E+04    0.50233E+00   -0.24904E+01  2608   0.126E+01    0.746E+00
DAV:   4    -0.135618396190E+04    0.13054E+01   -0.52914E+00  2544   0.509E+00    0.392E+00
DAV:   5    -0.135578475723E+04    0.39920E+00   -0.19843E+00  2376   0.350E+00    0.220E+00
DAV:   6    -0.135579107594E+04   -0.63187E-02   -0.22321E+00  2528   0.278E+00    0.126E+00
DAV:   7    -0.135579978763E+04   -0.87117E-02   -0.42030E-01  2504   0.139E+00    0.106E+00
DAV:   8    -0.135579667294E+04    0.31147E-02   -0.20316E-01  2600   0.720E-01    0.458E-01
DAV:   9    -0.135579705951E+04   -0.38658E-03   -0.23860E-02  2624   0.410E-01    0.335E-01
DAV:  10    -0.135579583121E+04    0.12283E-02   -0.16345E-02  2584   0.288E-01    0.143E-01
DAV:  11    -0.135579668087E+04   -0.84966E-03   -0.10231E-02  2584   0.198E-01    0.135E-01
DAV:  12    -0.135579663972E+04    0.41145E-04   -0.17064E-03  2608   0.831E-02    0.694E-02
DAV:  13    -0.135579662339E+04    0.16331E-04   -0.10477E-03  2592   0.599E-02    0.249E-02
DAV:  14    -0.135579663186E+04   -0.84696E-05   -0.24981E-04  2600   0.362E-02    0.162E-02
DAV:  15    -0.135579663891E+04   -0.70421E-05   -0.53232E-05  2616   0.166E-02    0.144E-02
DAV:  16    -0.135579663703E+04    0.18783E-05   -0.13259E-05  1912   0.827E-03    0.110E-02
DAV:  17    -0.135579663808E+04   -0.10544E-05   -0.26438E-05  1960   0.845E-03    0.643E-03
DAV:  18    -0.135579663761E+04    0.47508E-06   -0.14507E-06   992   0.511E-03
   2 F= -.13557966E+04 E0= -.13557966E+04  d E =-.172035E+02
 BRION: g(F)=  0.178E+02 g(S)=  0.000E+00 retain N=  1 mean eig= 0.66
 eig:   0.660
 bond charge predicted
       N       E                     dE             d eps       ncg     rms          rms(c)
DAV:   1    -0.135071654599E+04    0.50801E+01   -0.16035E+03  1416   0.560E+01    0.114E+01
DAV:   2    -0.136084329314E+04   -0.10127E+02   -0.12413E+02  2528   0.250E+01    0.968E+00
DAV:   3    -0.136120213654E+04   -0.35884E+00   -0.92431E+00  2544   0.718E+00    0.765E+00
DAV:   4    -0.136088597080E+04    0.31617E+00   -0.24398E+00  2536   0.323E+00    0.422E+00
DAV:   5    -0.136077863396E+04    0.10734E+00   -0.10228E+00  2136   0.252E+00    0.255E+00
DAV:   6    -0.136072833283E+04    0.50301E-01   -0.11773E+00  2512   0.191E+00    0.121E+00
DAV:   7    -0.136073708648E+04   -0.87537E-02   -0.26118E-01  2512   0.104E+00    0.747E-01
DAV:   8    -0.136073636913E+04    0.71735E-03   -0.43291E-02  2624   0.422E-01    0.515E-01
DAV:   9    -0.136073599205E+04    0.37708E-03   -0.15157E-02  2608   0.258E-01    0.355E-01
DAV:  10    -0.136073492151E+04    0.10705E-02   -0.70877E-03  2528   0.177E-01    0.196E-01
DAV:  11    -0.136073494466E+04   -0.23154E-04   -0.58112E-03  2448   0.131E-01    0.681E-02
DAV:  12    -0.136073492557E+04    0.19089E-04   -0.70748E-04  2584   0.646E-02    0.315E-02
DAV:  13    -0.136073495675E+04   -0.31178E-04   -0.29085E-04  2560   0.322E-02    0.216E-02
DAV:  14    -0.136073495647E+04    0.28279E-06   -0.72596E-05  2600   0.188E-02    0.943E-03
DAV:  15    -0.136073495994E+04   -0.34695E-05   -0.34845E-05  2456   0.117E-02    0.796E-03
DAV:  16    -0.136073495976E+04    0.18119E-06   -0.26484E-06  1040   0.587E-03
   3 F= -.13607350E+04 E0= -.13607350E+04  d E =-.493832E+01
 BRION: g(F)=  0.418E+01 g(S)=  0.000E+00 retain N=  2 mean eig= 0.77
 eig:   0.429  1.103
 bond charge predicted
       N       E                     dE             d eps       ncg     rms          rms(c)
DAV:   1    -0.136173788332E+04   -0.10029E+01   -0.34499E+02  1360   0.270E+01    0.540E+00
DAV:   2    -0.136339172701E+04   -0.16538E+01   -0.18830E+01  2304   0.102E+01    0.227E+00
DAV:   3    -0.136344566587E+04   -0.53939E-01   -0.16166E+00  2600   0.243E+00    0.190E+00
DAV:   4    -0.136339590884E+04    0.49757E-01   -0.29884E-01  2592   0.120E+00    0.990E-01
DAV:   5    -0.136338573643E+04    0.10172E-01   -0.13986E-01  2240   0.744E-01    0.571E-01
DAV:   6    -0.136338477577E+04    0.96066E-03   -0.67975E-02  2568   0.516E-01    0.354E-01
DAV:   7    -0.136338482874E+04   -0.52970E-04   -0.29163E-02  2480   0.314E-01    0.235E-01
DAV:   8    -0.136338458422E+04    0.24452E-03   -0.62251E-03  2624   0.157E-01    0.132E-01
DAV:   9    -0.136338453464E+04    0.49578E-04   -0.21399E-03  2616   0.964E-02    0.805E-02
DAV:  10    -0.136338462818E+04   -0.93545E-04   -0.13219E-03  2272   0.654E-02    0.840E-02
DAV:  11    -0.136338454617E+04    0.82018E-04   -0.73879E-04  2408   0.498E-02    0.341E-02
DAV:  12    -0.136338455432E+04   -0.81588E-05   -0.37970E-04  2504   0.342E-02    0.246E-02
DAV:  13    -0.136338455149E+04    0.28314E-05   -0.71886E-05  2568   0.190E-02    0.155E-02
DAV:  14    -0.136338455178E+04   -0.28286E-06   -0.35639E-05  2280   0.103E-02    0.621E-03
DAV:  15    -0.136338455164E+04    0.13511E-06   -0.45314E-06  1272   0.623E-03
   4 F= -.13633846E+04 E0= -.13633846E+04  d E =-.264959E+01
 BRION: g(F)=  0.119E+01 g(S)=  0.000E+00 retain N=  3 mean eig= 1.35
 eig:   0.723  1.661  1.661
 bond charge predicted
       N       E                     dE             d eps       ncg     rms          rms(c)
DAV:   1    -0.136400103062E+04   -0.61648E+00   -0.16965E+02  1360   0.188E+01    0.253E+00
DAV:   2    -0.136482538508E+04   -0.82435E+00   -0.87766E+00  2296   0.709E+00    0.122E+00
DAV:   3    -0.136486545144E+04   -0.40066E-01   -0.67358E-01  2600   0.144E+00    0.101E+00
DAV:   4    -0.136485075522E+04    0.14696E-01   -0.87995E-02  2608   0.660E-01    0.619E-01
DAV:   5    -0.136484387712E+04    0.68781E-02   -0.45073E-02  2312   0.416E-01    0.277E-01
DAV:   6    -0.136484489332E+04   -0.10162E-02   -0.20058E-02  2544   0.286E-01    0.247E-01
DAV:   7    -0.136484445091E+04    0.44241E-03   -0.11905E-02  2416   0.200E-01    0.149E-01
DAV:   8    -0.136484446072E+04   -0.98073E-05   -0.45476E-03  2576   0.127E-01    0.894E-02
DAV:   9    -0.136484441958E+04    0.41143E-04   -0.70489E-04  2560   0.607E-02    0.673E-02
DAV:  10    -0.136484442566E+04   -0.60847E-05   -0.73493E-04  2328   0.440E-02    0.427E-02
DAV:  11    -0.136484441040E+04    0.15261E-04   -0.22860E-04  2504   0.341E-02    0.174E-02
DAV:  12    -0.136484441753E+04   -0.71267E-05   -0.11744E-04  2448   0.207E-02    0.183E-02
DAV:  13    -0.136484441405E+04    0.34746E-05   -0.32639E-05  2280   0.116E-02    0.879E-03
DAV:  14    -0.136484441417E+04   -0.11348E-06   -0.14236E-05  1776   0.707E-03    0.406E-03
DAV:  15    -0.136484441428E+04   -0.11438E-06   -0.14261E-06   992   0.449E-03
   5 F= -.13648444E+04 E0= -.13648444E+04  d E =-.145986E+01
 BRION: g(F)=  0.657E+00 g(S)=  0.000E+00 retain N=  4 mean eig= 1.73
 eig:   2.374  2.374  1.082  1.082
 bond charge predicted
       N       E                     dE             d eps       ncg     rms          rms(c)
DAV:   1    -0.136524585925E+04   -0.40145E+00   -0.81443E+01  1360   0.131E+01    0.163E+00
DAV:   2    -0.136564669175E+04   -0.40083E+00   -0.43004E+00  2304   0.506E+00    0.830E-01
DAV:   3    -0.136566942270E+04   -0.22731E-01   -0.34955E-01  2600   0.103E+00    0.677E-01
DAV:   4    -0.136566337199E+04    0.60507E-02   -0.37555E-02  2600   0.457E-01    0.454E-01
DAV:   5    -0.136565927702E+04    0.40950E-02   -0.25120E-02  2176   0.300E-01    0.194E-01
DAV:   6    -0.136565988441E+04   -0.60739E-03   -0.12225E-02  2504   0.217E-01    0.193E-01
DAV:   7    -0.136565970302E+04    0.18139E-03   -0.70840E-03  2480   0.150E-01    0.114E-01
DAV:   8    -0.136565964461E+04    0.58407E-04   -0.19757E-03  2584   0.878E-02    0.560E-02
DAV:   9    -0.136565963717E+04    0.74467E-05   -0.31295E-04  2560   0.410E-02    0.415E-02
DAV:  10    -0.136565965689E+04   -0.19725E-04   -0.37142E-04  2304   0.321E-02    0.319E-02
DAV:  11    -0.136565964017E+04    0.16720E-04   -0.10262E-04  2496   0.250E-02    0.138E-02
DAV:  12    -0.136565964605E+04   -0.58755E-05   -0.10236E-04  2336   0.166E-02    0.152E-02
DAV:  13    -0.136565964242E+04    0.36284E-05   -0.18385E-05  1984   0.940E-03    0.724E-03
DAV:  14    -0.136565964226E+04    0.16142E-06   -0.83418E-06  1696   0.635E-03
   6 F= -.13656596E+04 E0= -.13656596E+04  d E =-.815228E+00
 BRION: g(F)=  0.436E+00 g(S)=  0.000E+00 retain N=  5 mean eig= 2.30
 eig:   3.806  3.806  1.518  1.518  0.852
 bond charge predicted
       N       E                     dE             d eps       ncg     rms          rms(c)
DAV:   1    -0.136584873360E+04   -0.18909E+00   -0.14262E+02  1384   0.171E+01    0.202E+00
DAV:   2    -0.136656599063E+04   -0.71726E+00   -0.75521E+00  2296   0.677E+00    0.102E+00
DAV:   3    -0.136660770793E+04   -0.41717E-01   -0.58820E-01  2600   0.127E+00    0.821E-01
DAV:   4    -0.136659856946E+04    0.91385E-02   -0.57326E-02  2616   0.567E-01    0.553E-01
DAV:   5    -0.136659194257E+04    0.66269E-02   -0.32595E-02  2320   0.366E-01    0.218E-01
DAV:   6    -0.136659311494E+04   -0.11724E-02   -0.18390E-02  2488   0.262E-01    0.201E-01
DAV:   7    -0.136659292901E+04    0.18593E-03   -0.82407E-03  2488   0.171E-01    0.134E-01
DAV:   8    -0.136659288225E+04    0.46763E-04   -0.31128E-03  2608   0.108E-01    0.728E-02
DAV:   9    -0.136659285338E+04    0.28873E-04   -0.55208E-04  2472   0.517E-02    0.533E-02
DAV:  10    -0.136659285891E+04   -0.55313E-05   -0.38762E-04  2432   0.352E-02    0.284E-02
DAV:  11    -0.136659285887E+04    0.43801E-07   -0.11148E-04  2480   0.248E-02    0.139E-02
DAV:  12    -0.136659286233E+04   -0.34686E-05   -0.58611E-05  2368   0.153E-02    0.150E-02
DAV:  13    -0.136659285977E+04    0.25604E-05   -0.26715E-05  2136   0.987E-03    0.696E-03
DAV:  14    -0.136659285990E+04   -0.12419E-06   -0.93218E-06  1744   0.623E-03
   7 F= -.13665929E+04 E0= -.13665929E+04  d E =-.933218E+00
 BRION: g(F)=  0.274E+00 g(S)=  0.000E+00 retain N=  6 mean eig= 3.04
 eig:   5.522  5.522  2.515  2.515  1.098  1.098
 bond charge predicted
       N       E                     dE             d eps       ncg     rms          rms(c)
DAV:   1    -0.136676551803E+04   -0.17266E+00   -0.88962E+01  1368   0.134E+01    0.164E+00
DAV:   2    -0.136719703995E+04   -0.43152E+00   -0.45400E+00  2304   0.513E+00    0.799E-01
DAV:   3    -0.136722068418E+04   -0.23644E-01   -0.34536E-01  2600   0.978E-01    0.630E-01
DAV:   4    -0.136721436879E+04    0.63154E-02   -0.37031E-02  2584   0.438E-01    0.392E-01
DAV:   5    -0.136721138088E+04    0.29879E-02   -0.18905E-02  2336   0.279E-01    0.152E-01
DAV:   6    -0.136721205611E+04   -0.67523E-03   -0.82021E-03  2560   0.176E-01    0.133E-01
DAV:   7    -0.136721197987E+04    0.76246E-04   -0.28394E-03  2600   0.105E-01    0.837E-02
DAV:   8    -0.136721196293E+04    0.16934E-04   -0.11749E-03  2592   0.665E-02    0.456E-02
DAV:   9    -0.136721195974E+04    0.31961E-05   -0.19943E-04  2568   0.332E-02    0.347E-02
DAV:  10    -0.136721196220E+04   -0.24670E-05   -0.16377E-04  2520   0.229E-02    0.177E-02
DAV:  11    -0.136721196118E+04    0.10231E-05   -0.40106E-05  2432   0.145E-02    0.831E-03
DAV:  12    -0.136721196271E+04   -0.15288E-05   -0.20409E-05  2216   0.865E-03    0.773E-03
DAV:  13    -0.136721196176E+04    0.95193E-06   -0.27952E-06  1088   0.565E-03
   8 F= -.13672120E+04 E0= -.13672120E+04  d E =-.619102E+00
 BRION: g(F)=  0.196E+00 g(S)=  0.000E+00 retain N=  4 mean eig= 4.67
 eig:   7.286  7.286  2.059  2.059
 bond charge predicted
       N       E                     dE             d eps       ncg     rms          rms(c)
DAV:   1    -0.136736887638E+04   -0.15691E+00   -0.59184E+01  1360   0.109E+01    0.132E+00
DAV:   2    -0.136765573428E+04   -0.28686E+00   -0.30316E+00  2296   0.417E+00    0.646E-01
DAV:   3    -0.136767207756E+04   -0.16343E-01   -0.23571E-01  2592   0.795E-01    0.514E-01
DAV:   4    -0.136766801537E+04    0.40622E-02   -0.24266E-02  2544   0.360E-01    0.324E-01
DAV:   5    -0.136766589630E+04    0.21191E-02   -0.12779E-02  2352   0.232E-01    0.123E-01
DAV:   6    -0.136766637439E+04   -0.47809E-03   -0.59240E-03  2544   0.147E-01    0.114E-01
DAV:   7    -0.136766631415E+04    0.60235E-04   -0.19869E-03  2616   0.892E-02    0.739E-02
DAV:   8    -0.136766629310E+04    0.21056E-04   -0.84434E-04  2592   0.553E-02    0.386E-02
DAV:   9    -0.136766629038E+04    0.27211E-05   -0.13259E-04  2504   0.269E-02    0.289E-02
DAV:  10    -0.136766629187E+04   -0.14930E-05   -0.10215E-04  2432   0.189E-02    0.155E-02
DAV:  11    -0.136766629111E+04    0.75786E-06   -0.27834E-05  2344   0.121E-02    0.736E-03
DAV:  12    -0.136766629196E+04   -0.84663E-06   -0.12819E-05  1792   0.740E-03    0.620E-03
DAV:  13    -0.136766629140E+04    0.55754E-06   -0.16685E-06   992   0.533E-03
   9 F= -.13676663E+04 E0= -.13676663E+04  d E =-.454330E+00
 BRION: g(F)=  0.158E+00 g(S)=  0.000E+00 retain N=  3 mean eig= 5.02
 eig:   6.316  6.316  2.420
 bond charge predicted
       N       E                     dE             d eps       ncg     rms          rms(c)
DAV:   1    -0.136778997088E+04   -0.12368E+00   -0.44741E+01  1360   0.963E+00    0.111E+00
DAV:   2    -0.136801402210E+04   -0.22405E+00   -0.23793E+00  2280   0.371E+00    0.554E-01
DAV:   3    -0.136802739782E+04   -0.13376E-01   -0.18998E-01  2592   0.739E-01    0.443E-01
DAV:   4    -0.136802462495E+04    0.27729E-02   -0.18122E-02  2600   0.315E-01    0.305E-01
DAV:   5    -0.136802236042E+04    0.22645E-02   -0.99689E-03  2296   0.199E-01    0.117E-01
DAV:   6    -0.136802263759E+04   -0.27716E-03   -0.54558E-03  2464   0.140E-01    0.104E-01
DAV:   7    -0.136802262973E+04    0.78560E-05   -0.23715E-03  2464   0.915E-02    0.689E-02
DAV:   8    -0.136802261767E+04    0.12057E-04   -0.84324E-04  2600   0.570E-02    0.385E-02
DAV:   9    -0.136802261390E+04    0.37712E-05   -0.15705E-04  2472   0.282E-02    0.288E-02
DAV:  10    -0.136802261510E+04   -0.11984E-05   -0.10689E-04  2448   0.188E-02    0.152E-02
DAV:  11    -0.136802261499E+04    0.11320E-06   -0.31601E-05  2392   0.132E-02    0.712E-03
DAV:  12    -0.136802261581E+04   -0.82102E-06   -0.15068E-05  1928   0.823E-03    0.696E-03
DAV:  13    -0.136802261507E+04    0.74138E-06   -0.22927E-06  1024   0.546E-03
  10 F= -.13680226E+04 E0= -.13680226E+04  d E =-.356324E+00
 BRION: g(F)=  0.133E+00 g(S)=  0.000E+00 retain N=  3 mean eig= 5.73
 eig:   7.518  7.518  2.166
 bond charge predicted
       N       E                     dE             d eps       ncg     rms          rms(c)
DAV:   1    -0.136811095488E+04   -0.88339E-01   -0.48234E+01  1368   0.993E+00    0.116E+00
DAV:   2    -0.136835301383E+04   -0.24206E+00   -0.25643E+00  2296   0.384E+00    0.576E-01
DAV:   3    -0.136836775340E+04   -0.14740E-01   -0.20412E-01  2584   0.750E-01    0.463E-01
DAV:   4    -0.136836504722E+04    0.27062E-02   -0.19849E-02  2608   0.327E-01    0.317E-01
DAV:   5    -0.136836276248E+04    0.22847E-02   -0.98451E-03  2328   0.202E-01    0.121E-01
DAV:   6    -0.136836308604E+04   -0.32356E-03   -0.55350E-03  2480   0.141E-01    0.103E-01
DAV:   7    -0.136836305811E+04    0.27932E-04   -0.22415E-03  2480   0.908E-02    0.688E-02
DAV:   8    -0.136836305043E+04    0.76801E-05   -0.85704E-04  2560   0.571E-02    0.402E-02
DAV:   9    -0.136836304569E+04    0.47383E-05   -0.17507E-04  2544   0.286E-02    0.292E-02
DAV:  10    -0.136836304708E+04   -0.13859E-05   -0.78928E-05  2592   0.170E-02    0.163E-02
DAV:  11    -0.136836304748E+04   -0.40507E-06   -0.29274E-05  2392   0.117E-02    0.938E-03
DAV:  12    -0.136836304695E+04    0.52799E-06   -0.11729E-05  1816   0.836E-03    0.686E-03
DAV:  13    -0.136836304707E+04   -0.11745E-06   -0.10649E-05  1712   0.612E-03    0.404E-03
DAV:  14    -0.136836304687E+04    0.19798E-06   -0.12374E-06   984   0.436E-03
  11 F= -.13683630E+04 E0= -.13683630E+04  d E =-.340432E+00
 BRION: g(F)=  0.112E+00 g(S)=  0.000E+00 retain N=  2 mean eig= 3.96
 eig:   3.959  3.959
 bond charge predicted
       N       E                     dE             d eps       ncg     rms          rms(c)
DAV:   1    -0.136845648061E+04   -0.93434E-01   -0.25482E+01  1368   0.729E+00    0.837E-01
DAV:   2    -0.136858660268E+04   -0.13012E+00   -0.13787E+00  2304   0.285E+00    0.419E-01
DAV:   3    -0.136859448702E+04   -0.78843E-02   -0.10973E-01  2568   0.556E-01    0.333E-01
DAV:   4    -0.136859293553E+04    0.15515E-02   -0.10283E-02  2576   0.240E-01    0.234E-01
DAV:   5    -0.136859154197E+04    0.13936E-02   -0.55945E-03  2296   0.149E-01    0.880E-02
DAV:   6    -0.136859171020E+04   -0.16823E-03   -0.33423E-03  2424   0.107E-01    0.746E-02
DAV:   7    -0.136859171160E+04   -0.13990E-05   -0.13823E-03  2416   0.690E-02    0.509E-02
DAV:   8    -0.136859170550E+04    0.60980E-05   -0.45210E-04  2592   0.419E-02    0.286E-02
DAV:   9    -0.136859170290E+04    0.26022E-05   -0.90096E-05  2528   0.211E-02    0.209E-02
DAV:  10    -0.136859170410E+04   -0.12009E-05   -0.51820E-05  2512   0.132E-02    0.114E-02
DAV:  11    -0.136859170418E+04   -0.77562E-07   -0.16075E-05  2088   0.923E-03    0.580E-03
DAV:  12    -0.136859170446E+04   -0.27986E-06   -0.77807E-06  1712   0.624E-03
  12 F= -.13685917E+04 E0= -.13685917E+04  d E =-.228658E+00
 BRION: g(F)=  0.996E-01 g(S)=  0.000E+00 retain N=  3 mean eig= 4.81
 eig:   6.287  6.287  1.848
 bond charge predicted
       N       E                     dE             d eps       ncg     rms          rms(c)
DAV:   1    -0.136865580559E+04   -0.64101E-01   -0.34643E+01  1376   0.847E+00    0.964E-01
DAV:   2    -0.136883525223E+04   -0.17945E+00   -0.19020E+00  2312   0.334E+00    0.485E-01
DAV:   3    -0.136884642081E+04   -0.11169E-01   -0.15206E-01  2584   0.643E-01    0.390E-01
DAV:   4    -0.136884463383E+04    0.17870E-02   -0.13917E-02  2600   0.280E-01    0.281E-01
DAV:   5    -0.136884273344E+04    0.19004E-02   -0.69360E-03  2336   0.166E-01    0.115E-01
DAV:   6    -0.136884286056E+04   -0.12712E-03   -0.44870E-03  2392   0.125E-01    0.850E-02
DAV:   7    -0.136884287766E+04   -0.17101E-04   -0.21810E-03  2432   0.854E-02    0.617E-02
DAV:   8    -0.136884287125E+04    0.64104E-05   -0.69754E-04  2608   0.532E-02    0.401E-02
DAV:   9    -0.136884286222E+04    0.90263E-05   -0.17929E-04  2544   0.274E-02    0.264E-02
DAV:  10    -0.136884286413E+04   -0.19097E-05   -0.68036E-05  2576   0.157E-02    0.150E-02
DAV:  11    -0.136884286556E+04   -0.14315E-05   -0.22716E-05  2280   0.105E-02    0.103E-02
DAV:  12    -0.136884286458E+04    0.97860E-06   -0.15071E-05  2024   0.861E-03    0.757E-03
DAV:  13    -0.136884286446E+04    0.11972E-06   -0.92097E-06  1792   0.592E-03
  13 F= -.13688429E+04 E0= -.13688429E+04  d E =-.251160E+00
 BRION: g(F)=  0.881E-01 g(S)=  0.000E+00 retain N=  2 mean eig= 3.86
 eig:   3.862  3.862
 bond charge predicted
       N       E                     dE             d eps       ncg     rms          rms(c)
DAV:   1    -0.136890750650E+04   -0.64642E-01   -0.27693E+01  1376   0.754E+00    0.843E-01
DAV:   2    -0.136904990619E+04   -0.14240E+00   -0.14979E+00  2296   0.297E+00    0.424E-01
DAV:   3    -0.136905889979E+04   -0.89936E-02   -0.11978E-01  2584   0.568E-01    0.340E-01
DAV:   4    -0.136905760819E+04    0.12916E-02   -0.10472E-02  2624   0.242E-01    0.251E-01
DAV:   5    -0.136905603124E+04    0.15769E-02   -0.46973E-03  2320   0.144E-01    0.111E-01
DAV:   6    -0.136905603601E+04   -0.47717E-05   -0.39142E-03  2296   0.118E-01    0.697E-02
DAV:   7    -0.136905609144E+04   -0.55426E-04   -0.20289E-03  2448   0.801E-02    0.604E-02
DAV:   8    -0.136905607635E+04    0.15092E-04   -0.49535E-04  2560   0.464E-02    0.395E-02
DAV:   9    -0.136905606183E+04    0.14519E-04   -0.19587E-04  2464   0.266E-02    0.216E-02
DAV:  10    -0.136905606671E+04   -0.48833E-05   -0.77786E-05  2496   0.166E-02    0.147E-02
DAV:  11    -0.136905606705E+04   -0.33724E-06   -0.23816E-05  2224   0.106E-02    0.101E-02
DAV:  12    -0.136905606607E+04    0.97598E-06   -0.18283E-05  2016   0.904E-03    0.812E-03
DAV:  13    -0.136905606573E+04    0.33891E-06   -0.10135E-05  1776   0.656E-03    0.528E-03
DAV:  14    -0.136905606536E+04    0.37417E-06   -0.19993E-06   976   0.446E-03
  14 F= -.13690561E+04 E0= -.13690561E+04  d E =-.213201E+00
 BRION: g(F)=  0.793E-01 g(S)=  0.000E+00 retain N=  2 mean eig= 4.69
 eig:   4.693  4.693
 bond charge predicted
       N       E                     dE             d eps       ncg     rms          rms(c)
DAV:   1    -0.136912147383E+04   -0.65408E-01   -0.19389E+01  1384   0.635E+00    0.706E-01
DAV:   2    -0.136922204485E+04   -0.10057E+00   -0.10602E+00  2288   0.253E+00    0.358E-01
DAV:   3    -0.136922842251E+04   -0.63777E-02   -0.85872E-02  2576   0.485E-01    0.287E-01
DAV:   4    -0.136922742844E+04    0.99407E-03   -0.75313E-03  2584   0.208E-01    0.212E-01
DAV:   5    -0.136922631494E+04    0.11135E-02   -0.38784E-03  2344   0.125E-01    0.908E-02
DAV:   6    -0.136922634247E+04   -0.27533E-04   -0.27296E-03  2312   0.990E-02    0.660E-02
DAV:   7    -0.136922637047E+04   -0.28000E-04   -0.15236E-03  2424   0.695E-02    0.522E-02
DAV:   8    -0.136922635800E+04    0.12471E-04   -0.42565E-04  2576   0.421E-02    0.330E-02
DAV:   9    -0.136922634937E+04    0.86301E-05   -0.13452E-04  2504   0.226E-02    0.196E-02
DAV:  10    -0.136922635150E+04   -0.21242E-05   -0.53022E-05  2528   0.138E-02    0.125E-02
DAV:  11    -0.136922635191E+04   -0.41598E-06   -0.18631E-05  2032   0.950E-03    0.875E-03
DAV:  12    -0.136922635120E+04    0.71272E-06   -0.11769E-05  1752   0.782E-03    0.710E-03
DAV:  13    -0.136922635093E+04    0.27043E-06   -0.69736E-06  1576   0.589E-03
  15 F= -.13692264E+04 E0= -.13692264E+04  d E =-.170286E+00
 BRION: g(F)=  0.734E-01 g(S)=  0.000E+00 retain N=  3 mean eig= 5.49
 eig:   7.176  7.176  2.129
 bond charge predicted
       N       E                     dE             d eps       ncg     rms          rms(c)
DAV:   1    -0.136924922962E+04   -0.22878E-01   -0.37788E+01  1360   0.878E+00    0.973E-01
DAV:   2    -0.136944448415E+04   -0.19525E+00   -0.20518E+00  2304   0.347E+00    0.496E-01
DAV:   3    -0.136945698540E+04   -0.12501E-01   -0.16470E-01  2568   0.656E-01    0.400E-01
DAV:   4    -0.136945545601E+04    0.15294E-02   -0.14458E-02  2608   0.282E-01    0.301E-01
DAV:   5    -0.136945337153E+04    0.20845E-02   -0.61418E-03  2384   0.165E-01    0.146E-01
DAV:   6    -0.136945322201E+04    0.14952E-03   -0.56333E-03  2232   0.145E-01    0.837E-02
DAV:   7    -0.136945333728E+04   -0.11527E-03   -0.33670E-03  2440   0.102E-01    0.815E-02
DAV:   8    -0.136945331696E+04    0.20325E-04   -0.75727E-04  2584   0.582E-02    0.623E-02
DAV:   9    -0.136945326698E+04    0.49982E-04   -0.37006E-04  2440   0.356E-02    0.302E-02
DAV:  10    -0.136945327693E+04   -0.99477E-05   -0.18595E-04  2440   0.242E-02    0.187E-02
DAV:  11    -0.136945328035E+04   -0.34237E-05   -0.43232E-05  2192   0.140E-02    0.156E-02
DAV:  12    -0.136945327646E+04    0.38904E-05   -0.41077E-05  2136   0.133E-02    0.123E-02
DAV:  13    -0.136945327586E+04    0.59934E-06   -0.25953E-05  2224   0.936E-03    0.902E-03
DAV:  14    -0.136945327496E+04    0.90408E-06   -0.52496E-06  1368   0.557E-03
  16 F= -.13694533E+04 E0= -.13694533E+04  d E =-.226924E+00
 BRION: g(F)=  0.652E-01 g(S)=  0.000E+00 retain N=  2 mean eig= 4.28
 eig:   4.277  4.277
 bond charge predicted
       N       E                     dE             d eps       ncg     rms          rms(c)
DAV:   1    -0.136949698546E+04   -0.43710E-01   -0.25228E+01  1376   0.715E+00    0.781E-01
DAV:   2    -0.136962303331E+04   -0.12605E+00   -0.13193E+00  2312   0.277E+00    0.398E-01
DAV:   3    -0.136963071060E+04   -0.76773E-02   -0.10426E-01  2552   0.522E-01    0.312E-01
DAV:   4    -0.136962950041E+04    0.12102E-02   -0.94299E-03  2568   0.224E-01    0.230E-01
DAV:   5    -0.136962814397E+04    0.13564E-02   -0.42007E-03  2368   0.137E-01    0.105E-01
DAV:   6    -0.136962807176E+04    0.72201E-04   -0.33545E-03  2256   0.116E-01    0.645E-02
DAV:   7    -0.136962815278E+04   -0.81014E-04   -0.20180E-03  2464   0.794E-02    0.619E-02
DAV:   8    -0.136962813389E+04    0.18885E-04   -0.43147E-04  2592   0.440E-02    0.427E-02
DAV:   9    -0.136962811210E+04    0.21794E-04   -0.22483E-04  2400   0.279E-02    0.204E-02
DAV:  10    -0.136962811942E+04   -0.73238E-05   -0.10886E-04  2344   0.189E-02    0.160E-02
DAV:  11    -0.136962811828E+04    0.11424E-05   -0.26517E-05  2208   0.112E-02    0.102E-02
DAV:  12    -0.136962811712E+04    0.11652E-05   -0.23038E-05  1896   0.977E-03    0.844E-03
DAV:  13    -0.136962811683E+04    0.28385E-06   -0.12280E-05  1800   0.713E-03    0.629E-03
DAV:  14    -0.136962811631E+04    0.52646E-06   -0.19141E-06   976   0.453E-03
  17 F= -.13696281E+04 E0= -.13696281E+04  d E =-.174841E+00
 BRION: g(F)=  0.595E-01 g(S)=  0.000E+00 retain N=  3 mean eig= 5.67
 eig:   7.478  7.478  2.049
 bond charge predicted
       N       E                     dE             d eps       ncg     rms          rms(c)
DAV:   1    -0.136967264097E+04   -0.44524E-01   -0.19444E+01  1360   0.628E+00    0.687E-01
DAV:   2    -0.136977060258E+04   -0.97962E-01   -0.10285E+00  2304   0.244E+00    0.352E-01
DAV:   3    -0.136977682907E+04   -0.62265E-02   -0.82900E-02  2560   0.465E-01    0.282E-01
DAV:   4    -0.136977602110E+04    0.80796E-03   -0.74120E-03  2592   0.200E-01    0.209E-01
DAV:   5    -0.136977500069E+04    0.10204E-02   -0.31956E-03  2416   0.119E-01    0.102E-01
DAV:   6    -0.136977490961E+04    0.91074E-04   -0.26794E-03  2216   0.102E-01    0.606E-02
DAV:   7    -0.136977496989E+04   -0.60273E-04   -0.16926E-03  2432   0.730E-02    0.593E-02
DAV:   8    -0.136977495838E+04    0.11510E-04   -0.39172E-04  2552   0.415E-02    0.454E-02
DAV:   9    -0.136977493057E+04    0.27810E-04   -0.20003E-04  2384   0.265E-02    0.215E-02
DAV:  10    -0.136977493644E+04   -0.58733E-05   -0.10831E-04  2400   0.183E-02    0.141E-02
DAV:  11    -0.136977493769E+04   -0.12500E-05   -0.22355E-05  1960   0.103E-02    0.114E-02
DAV:  12    -0.136977493550E+04    0.21917E-05   -0.23591E-05  1968   0.999E-03    0.893E-03
DAV:  13    -0.136977493518E+04    0.31485E-06   -0.12950E-05  1864   0.724E-03    0.681E-03
DAV:  14    -0.136977493457E+04    0.61322E-06   -0.17950E-06   952   0.445E-03
  18 F= -.13697749E+04 E0= -.13697749E+04  d E =-.146818E+00
 BRION: g(F)=  0.542E-01 g(S)=  0.000E+00 retain N=  2 mean eig= 4.85
 eig:   4.845  4.845
 bond charge predicted
       N       E                     dE             d eps       ncg     rms          rms(c)
DAV:   1    -0.136976255388E+04    0.12381E-01   -0.41597E+01  1360   0.911E+00    0.981E-01
DAV:   2    -0.136996688359E+04   -0.20433E+00   -0.21329E+00  2304   0.348E+00    0.502E-01
DAV:   3    -0.136997957643E+04   -0.12693E-01   -0.16973E-01  2576   0.666E-01    0.397E-01
DAV:   4    -0.136997790562E+04    0.16708E-02   -0.14426E-02  2600   0.277E-01    0.297E-01
DAV:   5    -0.136997568796E+04    0.22177E-02   -0.58193E-03  2416   0.166E-01    0.153E-01
DAV:   6    -0.136997531882E+04    0.36914E-03   -0.57922E-03  2168   0.155E-01    0.801E-02
DAV:   7    -0.136997551559E+04   -0.19677E-03   -0.40196E-03  2424   0.110E-01    0.888E-02
DAV:   8    -0.136997550010E+04    0.15486E-04   -0.72386E-04  2488   0.595E-02    0.738E-02
DAV:   9    -0.136997541506E+04    0.85039E-04   -0.42115E-04  2344   0.389E-02    0.361E-02
DAV:  10    -0.136997543020E+04   -0.15135E-04   -0.35828E-04  2320   0.314E-02    0.202E-02
DAV:  11    -0.136997543284E+04   -0.26393E-05   -0.62532E-05  2072   0.169E-02    0.152E-02
DAV:  12    -0.136997542919E+04    0.36487E-05   -0.55668E-05  2168   0.150E-02    0.139E-02
DAV:  13    -0.136997542736E+04    0.18284E-05   -0.35289E-05  2240   0.114E-02    0.965E-03
DAV:  14    -0.136997542673E+04    0.62682E-06   -0.53096E-06  1384   0.655E-03
  19 F= -.13699754E+04 E0= -.13699754E+04  d E =-.200492E+00
 BRION: g(F)=  0.477E-01 g(S)=  0.000E+00 retain N=  2 mean eig= 6.73
 eig:   6.734  6.734
 bond charge predicted
       N       E                     dE             d eps       ncg     rms          rms(c)
DAV:   1    -0.136999061169E+04   -0.15184E-01   -0.27049E+01  1352   0.734E+00    0.793E-01
DAV:   2    -0.137012142820E+04   -0.13082E+00   -0.13658E+00  2304   0.278E+00    0.403E-01
DAV:   3    -0.137012886179E+04   -0.74336E-02   -0.10370E-01  2568   0.537E-01    0.315E-01
DAV:   4    -0.137012758044E+04    0.12813E-02   -0.95334E-03  2568   0.223E-01    0.229E-01
DAV:   5    -0.137012613386E+04    0.14466E-02   -0.41795E-03  2408   0.141E-01    0.107E-01
DAV:   6    -0.137012603277E+04    0.10109E-03   -0.35149E-03  2264   0.120E-01    0.652E-02
DAV:   7    -0.137012611680E+04   -0.84032E-04   -0.20323E-03  2416   0.813E-02    0.652E-02
DAV:   8    -0.137012609744E+04    0.19359E-04   -0.46843E-04  2584   0.447E-02    0.458E-02
DAV:   9    -0.137012607011E+04    0.27331E-04   -0.24478E-04  2456   0.295E-02    0.214E-02
DAV:  10    -0.137012607827E+04   -0.81634E-05   -0.13315E-04  2424   0.206E-02    0.165E-02
DAV:  11    -0.137012607659E+04    0.16830E-05   -0.24842E-05  2144   0.115E-02    0.102E-02
DAV:  12    -0.137012607547E+04    0.11197E-05   -0.23892E-05  1880   0.989E-03    0.829E-03
DAV:  13    -0.137012607515E+04    0.32451E-06   -0.12003E-05  1784   0.707E-03    0.587E-03
DAV:  14    -0.137012607472E+04    0.43168E-06   -0.18078E-06   984   0.458E-03
  20 F= -.13701261E+04 E0= -.13701261E+04  d E =-.150648E+00
 BRION: g(F)=  0.426E-01 g(S)=  0.000E+00 retain N=  1 mean eig= 4.65
 eig:   4.647
