 running on  160 total cores
 distrk:  each k-point on  160 cores,    1 groups
 distr:  one band on   20 cores,    8 groups
 using from now: INCAR     
 vasp.5.4.4.18Apr17-6-g9f103f2a35 (build May 01 2020 14:22:42) gamma-only       
  
 POSCAR found type information on POSCAR  O  La Zr Li Al
 POSCAR found :  5 types and     192 ions
 scaLAPACK will be used
 LDA part: xc-table for Pade appr. of Perdew
 POSCAR, INCAR and KPOINTS ok, starting setup
 FFT: planning ...
 WAVECAR not read
 WARNING: random wavefunctions but no delay for mixing, default for NELMDL
 entering main loop
       N       E                     dE             d eps       ncg     rms          rms(c)
DAV:   1     0.253546389801E+05    0.25355E+05   -0.41947E+05  1568   0.253E+03
DAV:   2     0.936449062601E+04   -0.15990E+05   -0.14745E+05  1432   0.706E+02
DAV:   3     0.265846334350E+04   -0.67060E+04   -0.61094E+04  1504   0.358E+02
DAV:   4    -0.396512742385E+03   -0.30550E+04   -0.28559E+04  2048   0.221E+02
DAV:   5    -0.143065090550E+04   -0.10341E+04   -0.99492E+03  2528   0.139E+02    0.117E+02
DAV:   6    -0.131348296536E+04    0.11717E+03   -0.14496E+03  2440   0.656E+01    0.504E+01
DAV:   7    -0.133626101374E+04   -0.22778E+02   -0.38349E+02  2560   0.334E+01    0.246E+01
DAV:   8    -0.134807434980E+04   -0.11813E+02   -0.29330E+02  2520   0.279E+01    0.284E+01
DAV:   9    -0.133840928916E+04    0.96651E+01   -0.70283E+01  2448   0.160E+01    0.781E+00
DAV:  10    -0.133993192973E+04   -0.15226E+01   -0.16058E+01  2592   0.897E+00    0.914E+00
DAV:  11    -0.133990744199E+04    0.24488E-01   -0.92214E+00  2616   0.499E+00    0.435E+00
DAV:  12    -0.133978076675E+04    0.12668E+00   -0.29938E+00  2608   0.402E+00    0.298E+00
DAV:  13    -0.133988403362E+04   -0.10327E+00   -0.11852E+00  2592   0.198E+00    0.245E+00
DAV:  14    -0.133984629547E+04    0.37738E-01   -0.47611E-01  2584   0.138E+00    0.122E+00
DAV:  15    -0.133986061122E+04   -0.14316E-01   -0.16039E-01  2528   0.797E-01    0.116E+00
DAV:  16    -0.133986034018E+04    0.27104E-03   -0.49662E-02  2624   0.450E-01    0.754E-01
DAV:  17    -0.133985563519E+04    0.47050E-02   -0.32850E-02  2472   0.361E-01    0.342E-01
DAV:  18    -0.133985614777E+04   -0.51259E-03   -0.70270E-03  2448   0.183E-01    0.220E-01
DAV:  19    -0.133985583293E+04    0.31484E-03   -0.40460E-03  2496   0.117E-01    0.152E-01
DAV:  20    -0.133985586183E+04   -0.28895E-04   -0.12318E-03  2600   0.694E-02    0.457E-02
DAV:  21    -0.133985587121E+04   -0.93768E-05   -0.30073E-04  2616   0.374E-02    0.450E-02
DAV:  22    -0.133985589069E+04   -0.19485E-04   -0.99583E-05  2504   0.206E-02    0.176E-02
DAV:  23    -0.133985588944E+04    0.12482E-05   -0.31377E-05  2152   0.114E-02    0.114E-02
DAV:  24    -0.133985589390E+04   -0.44569E-05   -0.21311E-05  2032   0.102E-02    0.595E-03
DAV:  25    -0.133985589325E+04    0.64574E-06   -0.35712E-06  1032   0.523E-03
   1 F= -.13398559E+04 E0= -.13398559E+04  d E =-.133986E+04
 BRION: g(F)=  0.385E+02 g(S)=  0.000E+00
 bond charge predicted
       N       E                     dE             d eps       ncg     rms          rms(c)
DAV:   1    -0.132944019432E+04    0.10416E+02   -0.44571E+03  1624   0.101E+02    0.186E+01
DAV:   2    -0.135788823787E+04   -0.28448E+02   -0.33731E+02  2560   0.440E+01    0.963E+00
DAV:   3    -0.135758718996E+04    0.30105E+00   -0.22154E+01  2616   0.121E+01    0.691E+00
DAV:   4    -0.135658579809E+04    0.10014E+01   -0.49307E+00  2576   0.479E+00    0.372E+00
DAV:   5    -0.135621694794E+04    0.36885E+00   -0.15706E+00  2400   0.328E+00    0.207E+00
DAV:   6    -0.135618500903E+04    0.31939E-01   -0.17345E+00  2448   0.263E+00    0.987E-01
DAV:   7    -0.135621901247E+04   -0.34003E-01   -0.54668E-01  2392   0.146E+00    0.110E+00
DAV:   8    -0.135621475345E+04    0.42590E-02   -0.10629E-01  2624   0.575E-01    0.668E-01
DAV:   9    -0.135621212416E+04    0.26293E-02   -0.65575E-02  2624   0.470E-01    0.327E-01
DAV:  10    -0.135621208552E+04    0.38636E-04   -0.14673E-02  2528   0.289E-01    0.215E-01
DAV:  11    -0.135621181789E+04    0.26764E-03   -0.94504E-03  2600   0.198E-01    0.113E-01
DAV:  12    -0.135621206397E+04   -0.24609E-03   -0.40423E-03  2592   0.116E-01    0.974E-02
DAV:  13    -0.135621199800E+04    0.65971E-04   -0.14460E-03  2600   0.711E-02    0.349E-02
DAV:  14    -0.135621201176E+04   -0.13762E-04   -0.40847E-04  2616   0.439E-02    0.197E-02
DAV:  15    -0.135621201753E+04   -0.57636E-05   -0.11100E-04  2624   0.234E-02    0.115E-02
DAV:  16    -0.135621201827E+04   -0.74030E-06   -0.33404E-05  2520   0.104E-02    0.562E-03
DAV:  17    -0.135621201840E+04   -0.13741E-06   -0.44893E-06  1272   0.689E-03
   2 F= -.13562120E+04 E0= -.13562120E+04  d E =-.163561E+02
 BRION: g(F)=  0.159E+02 g(S)=  0.000E+00 retain N=  1 mean eig= 0.67
 eig:   0.671
 bond charge predicted
       N       E                     dE             d eps       ncg     rms          rms(c)
DAV:   1    -0.135163317628E+04    0.45788E+01   -0.14814E+03  1392   0.540E+01    0.107E+01
DAV:   2    -0.136083540841E+04   -0.92022E+01   -0.11316E+02  2464   0.239E+01    0.893E+00
DAV:   3    -0.136128561804E+04   -0.45021E+00   -0.97055E+00  2552   0.717E+00    0.716E+00
DAV:   4    -0.136099783676E+04    0.28778E+00   -0.20822E+00  2536   0.310E+00    0.413E+00
DAV:   5    -0.136091088512E+04    0.86952E-01   -0.11295E+00  2128   0.240E+00    0.250E+00
DAV:   6    -0.136085617677E+04    0.54708E-01   -0.94253E-01  2512   0.179E+00    0.138E+00
DAV:   7    -0.136085842877E+04   -0.22520E-02   -0.31918E-01  2512   0.107E+00    0.721E-01
DAV:   8    -0.136085791942E+04    0.50935E-03   -0.37944E-02  2624   0.424E-01    0.516E-01
DAV:   9    -0.136085755000E+04    0.36941E-03   -0.17914E-02  2520   0.261E-01    0.357E-01
DAV:  10    -0.136085641179E+04    0.11382E-02   -0.52323E-03  2480   0.177E-01    0.235E-01
DAV:  11    -0.136085627150E+04    0.14030E-03   -0.10246E-02  2408   0.156E-01    0.758E-02
DAV:  12    -0.136085622562E+04    0.45873E-04   -0.11484E-03  2488   0.850E-02    0.318E-02
DAV:  13    -0.136085626153E+04   -0.35901E-04   -0.37925E-04  2520   0.385E-02    0.219E-02
DAV:  14    -0.136085626129E+04    0.23746E-06   -0.72833E-05  2624   0.209E-02    0.916E-03
DAV:  15    -0.136085626474E+04   -0.34501E-05   -0.42123E-05  2320   0.116E-02    0.824E-03
DAV:  16    -0.136085626506E+04   -0.32168E-06   -0.35606E-06  1064   0.577E-03
   3 F= -.13608563E+04 E0= -.13608563E+04  d E =-.464425E+01
 BRION: g(F)=  0.369E+01 g(S)=  0.000E+00 retain N=  2 mean eig= 0.71
 eig:   0.428  0.986
 bond charge predicted
       N       E                     dE             d eps       ncg     rms          rms(c)
DAV:   1    -0.136166676192E+04   -0.81050E+00   -0.34089E+02  1376   0.271E+01    0.500E+00
DAV:   2    -0.136331266657E+04   -0.16459E+01   -0.18339E+01  2288   0.104E+01    0.217E+00
DAV:   3    -0.136337607907E+04   -0.63412E-01   -0.15649E+00  2608   0.229E+00    0.183E+00
DAV:   4    -0.136332849145E+04    0.47588E-01   -0.27710E-01  2600   0.118E+00    0.985E-01
DAV:   5    -0.136331796361E+04    0.10528E-01   -0.14215E-01  2256   0.752E-01    0.563E-01
DAV:   6    -0.136331769341E+04    0.27020E-03   -0.67252E-02  2568   0.514E-01    0.388E-01
DAV:   7    -0.136331730937E+04    0.38404E-03   -0.31204E-02  2472   0.324E-01    0.241E-01
DAV:   8    -0.136331702813E+04    0.28125E-03   -0.63898E-03  2616   0.162E-01    0.135E-01
DAV:   9    -0.136331697707E+04    0.51059E-04   -0.18303E-03  2608   0.903E-02    0.833E-02
DAV:  10    -0.136331709468E+04   -0.11762E-03   -0.14913E-03  2256   0.643E-02    0.842E-02
DAV:  11    -0.136331699953E+04    0.95151E-04   -0.59980E-04  2528   0.490E-02    0.345E-02
DAV:  12    -0.136331700865E+04   -0.91195E-05   -0.37086E-04  2528   0.333E-02    0.257E-02
DAV:  13    -0.136331700407E+04    0.45839E-05   -0.68386E-05  2544   0.184E-02    0.133E-02
DAV:  14    -0.136331700523E+04   -0.11671E-05   -0.29025E-05  2392   0.939E-03    0.512E-03
DAV:  15    -0.136331700528E+04   -0.49273E-07   -0.23562E-06  1080   0.531E-03
   4 F= -.13633170E+04 E0= -.13633170E+04  d E =-.246074E+01
 BRION: g(F)=  0.107E+01 g(S)=  0.000E+00 retain N=  3 mean eig= 1.42
 eig:   0.755  1.748  1.748
 bond charge predicted
       N       E                     dE             d eps       ncg     rms          rms(c)
DAV:   1    -0.136374717443E+04   -0.43017E+00   -0.18758E+02  1360   0.197E+01    0.243E+00
DAV:   2    -0.136464707593E+04   -0.89990E+00   -0.94662E+00  2288   0.728E+00    0.120E+00
DAV:   3    -0.136469361187E+04   -0.46536E-01   -0.71444E-01  2592   0.147E+00    0.991E-01
DAV:   4    -0.136468016522E+04    0.13447E-01   -0.75082E-02  2592   0.634E-01    0.666E-01
DAV:   5    -0.136467035198E+04    0.98132E-02   -0.48541E-02  2200   0.425E-01    0.257E-01
DAV:   6    -0.136467207575E+04   -0.17238E-02   -0.25223E-02  2496   0.297E-01    0.271E-01
DAV:   7    -0.136467154887E+04    0.52689E-03   -0.11563E-02  2488   0.199E-01    0.168E-01
DAV:   8    -0.136467134199E+04    0.20688E-03   -0.42162E-03  2584   0.125E-01    0.790E-02
DAV:   9    -0.136467133305E+04    0.89421E-05   -0.63039E-04  2512   0.563E-02    0.564E-02
DAV:  10    -0.136467135089E+04   -0.17840E-04   -0.44479E-04  2360   0.380E-02    0.319E-02
DAV:  11    -0.136467134252E+04    0.83701E-05   -0.10740E-04  2504   0.268E-02    0.156E-02
DAV:  12    -0.136467135146E+04   -0.89468E-05   -0.12283E-04  2336   0.179E-02    0.200E-02
DAV:  13    -0.136467134561E+04    0.58546E-05   -0.27413E-05  2104   0.110E-02    0.935E-03
DAV:  14    -0.136467134556E+04    0.51121E-07   -0.83806E-06  1744   0.658E-03
   5 F= -.13646713E+04 E0= -.13646713E+04  d E =-.135434E+01
 BRION: g(F)=  0.570E+00 g(S)=  0.000E+00 retain N=  4 mean eig= 1.81
 eig:   2.459  2.459  1.171  1.171
 bond charge predicted
       N       E                     dE             d eps       ncg     rms          rms(c)
DAV:   1    -0.136498859602E+04   -0.31725E+00   -0.87155E+01  1368   0.136E+01    0.166E+00
DAV:   2    -0.136542440324E+04   -0.43581E+00   -0.46577E+00  2288   0.526E+00    0.838E-01
DAV:   3    -0.136545212300E+04   -0.27720E-01   -0.38588E-01  2584   0.108E+00    0.694E-01
DAV:   4    -0.136544712339E+04    0.49996E-02   -0.39196E-02  2600   0.469E-01    0.495E-01
DAV:   5    -0.136544276907E+04    0.43543E-02   -0.28261E-02  2264   0.315E-01    0.212E-01
DAV:   6    -0.136544339805E+04   -0.62899E-03   -0.13031E-02  2552   0.232E-01    0.218E-01
DAV:   7    -0.136544308606E+04    0.31199E-03   -0.89804E-03  2512   0.170E-01    0.124E-01
DAV:   8    -0.136544304042E+04    0.45640E-04   -0.25832E-03  2560   0.102E-01    0.662E-02
DAV:   9    -0.136544303513E+04    0.52933E-05   -0.36348E-04  2576   0.434E-02    0.465E-02
DAV:  10    -0.136544303887E+04   -0.37388E-05   -0.30505E-04  2320   0.304E-02    0.212E-02
DAV:  11    -0.136544303844E+04    0.42153E-06   -0.62278E-05  2480   0.214E-02    0.945E-03
DAV:  12    -0.136544304258E+04   -0.41395E-05   -0.57768E-05  2360   0.128E-02    0.129E-02
DAV:  13    -0.136544303974E+04    0.28471E-05   -0.13642E-05  1856   0.815E-03    0.574E-03
DAV:  14    -0.136544303960E+04    0.13299E-06   -0.31684E-06  1120   0.558E-03
   6 F= -.13654430E+04 E0= -.13654430E+04  d E =-.771694E+00
 BRION: g(F)=  0.376E+00 g(S)=  0.000E+00 retain N=  5 mean eig= 2.30
 eig:   3.631  3.631  1.656  1.656  0.902
 bond charge predicted
       N       E                     dE             d eps       ncg     rms          rms(c)
DAV:   1    -0.136568623345E+04   -0.24319E+00   -0.89581E+01  1376   0.136E+01    0.162E+00
DAV:   2    -0.136614496780E+04   -0.45873E+00   -0.48510E+00  2304   0.530E+00    0.811E-01
DAV:   3    -0.136617331747E+04   -0.28350E-01   -0.38642E-01  2576   0.103E+00    0.663E-01
DAV:   4    -0.136616823362E+04    0.50839E-02   -0.37107E-02  2608   0.463E-01    0.472E-01
DAV:   5    -0.136616320905E+04    0.50246E-02   -0.22606E-02  2328   0.309E-01    0.190E-01
DAV:   6    -0.136616399208E+04   -0.78303E-03   -0.14742E-02  2472   0.235E-01    0.184E-01
DAV:   7    -0.136616382384E+04    0.16824E-03   -0.65868E-03  2488   0.153E-01    0.125E-01
DAV:   8    -0.136616374652E+04    0.77321E-04   -0.23963E-03  2592   0.947E-02    0.605E-02
DAV:   9    -0.136616372002E+04    0.26506E-04   -0.45082E-04  2304   0.446E-02    0.412E-02
DAV:  10    -0.136616372556E+04   -0.55390E-05   -0.20988E-04  2392   0.271E-02    0.231E-02
DAV:  11    -0.136616372548E+04    0.76776E-07   -0.61860E-05  2464   0.184E-02    0.130E-02
DAV:  12    -0.136616372732E+04   -0.18358E-05   -0.38861E-05  2336   0.123E-02    0.137E-02
DAV:  13    -0.136616372519E+04    0.21278E-05   -0.20115E-05  1920   0.848E-03    0.617E-03
DAV:  14    -0.136616372508E+04    0.11000E-06   -0.31120E-06  1184   0.538E-03
   7 F= -.13661637E+04 E0= -.13661637E+04  d E =-.720685E+00
 BRION: g(F)=  0.256E+00 g(S)=  0.000E+00 retain N=  6 mean eig= 3.16
 eig:   6.020  6.020  2.315  2.315  1.135  1.135
 bond charge predicted
       N       E                     dE             d eps       ncg     rms          rms(c)
DAV:   1    -0.136637277850E+04   -0.20905E+00   -0.62602E+01  1392   0.114E+01    0.139E+00
DAV:   2    -0.136670556249E+04   -0.33278E+00   -0.35362E+00  2296   0.460E+00    0.687E-01
DAV:   3    -0.136672602721E+04   -0.20465E-01   -0.28090E-01  2576   0.877E-01    0.565E-01
DAV:   4    -0.136672224361E+04    0.37836E-02   -0.27708E-02  2616   0.400E-01    0.401E-01
DAV:   5    -0.136671862897E+04    0.36146E-02   -0.16107E-02  2312   0.266E-01    0.158E-01
DAV:   6    -0.136671924083E+04   -0.61186E-03   -0.10359E-02  2432   0.194E-01    0.150E-01
DAV:   7    -0.136671914809E+04    0.92743E-04   -0.41287E-03  2512   0.122E-01    0.104E-01
DAV:   8    -0.136671908792E+04    0.60168E-04   -0.16100E-03  2576   0.765E-02    0.507E-02
DAV:   9    -0.136671906750E+04    0.20421E-04   -0.33157E-04  2288   0.384E-02    0.340E-02
DAV:  10    -0.136671907288E+04   -0.53792E-05   -0.15085E-04  2392   0.234E-02    0.192E-02
DAV:  11    -0.136671907185E+04    0.10317E-05   -0.38397E-05  2408   0.148E-02    0.107E-02
DAV:  12    -0.136671907352E+04   -0.16726E-05   -0.28033E-05  2312   0.100E-02    0.106E-02
DAV:  13    -0.136671907218E+04    0.13386E-05   -0.10601E-05  1712   0.682E-03    0.459E-03
DAV:  14    -0.136671907211E+04    0.68569E-07   -0.22811E-06  1040   0.500E-03
   8 F= -.13667191E+04 E0= -.13667191E+04  d E =-.555347E+00
 BRION: g(F)=  0.196E+00 g(S)=  0.000E+00 retain N=  5 mean eig= 4.16
 eig:   7.646  7.646  2.206  2.206  1.093
 bond charge predicted
       N       E                     dE             d eps       ncg     rms          rms(c)
DAV:   1    -0.136688816729E+04   -0.16910E+00   -0.61469E+01  1400   0.112E+01    0.133E+00
DAV:   2    -0.136722034042E+04   -0.33217E+00   -0.35413E+00  2296   0.463E+00    0.662E-01
DAV:   3    -0.136724156800E+04   -0.21228E-01   -0.28578E-01  2576   0.875E-01    0.549E-01
DAV:   4    -0.136723825308E+04    0.33149E-02   -0.25761E-02  2616   0.392E-01    0.408E-01
DAV:   5    -0.136723403415E+04    0.42189E-02   -0.14850E-02  2296   0.259E-01    0.167E-01
DAV:   6    -0.136723446806E+04   -0.43391E-03   -0.11693E-02  2376   0.202E-01    0.147E-01
DAV:   7    -0.136723441052E+04    0.57538E-04   -0.45269E-03  2448   0.124E-01    0.108E-01
DAV:   8    -0.136723436407E+04    0.46451E-04   -0.17228E-03  2592   0.796E-02    0.551E-02
DAV:   9    -0.136723432341E+04    0.40662E-04   -0.44426E-04  2288   0.420E-02    0.336E-02
DAV:  10    -0.136723433264E+04   -0.92280E-05   -0.16343E-04  2416   0.241E-02    0.230E-02
DAV:  11    -0.136723432904E+04    0.35988E-05   -0.52784E-05  2424   0.158E-02    0.126E-02
DAV:  12    -0.136723433005E+04   -0.10057E-05   -0.26872E-05  2304   0.106E-02    0.112E-02
DAV:  13    -0.136723432881E+04    0.12338E-05   -0.13354E-05  1752   0.690E-03    0.507E-03
DAV:  14    -0.136723432869E+04    0.12123E-06   -0.28638E-06  1136   0.497E-03
   9 F= -.13672343E+04 E0= -.13672343E+04  d E =-.515257E+00
 BRION: g(F)=  0.161E+00 g(S)=  0.000E+00 retain N=  3 mean eig= 5.49
 eig:   2.346  7.060  7.060
 bond charge predicted
       N       E                     dE             d eps       ncg     rms          rms(c)
DAV:   1    -0.136741448420E+04   -0.18016E+00   -0.36489E+01  1384   0.865E+00    0.103E+00
DAV:   2    -0.136761136486E+04   -0.19688E+00   -0.20961E+00  2296   0.352E+00    0.510E-01
DAV:   3    -0.136762334793E+04   -0.11983E-01   -0.16604E-01  2576   0.670E-01    0.417E-01
DAV:   4    -0.136762117752E+04    0.21704E-02   -0.15458E-02  2616   0.298E-01    0.305E-01
DAV:   5    -0.136761857743E+04    0.26001E-02   -0.83813E-03  2288   0.191E-01    0.120E-01
DAV:   6    -0.136761881617E+04   -0.23874E-03   -0.64311E-03  2384   0.146E-01    0.997E-02
DAV:   7    -0.136761881105E+04    0.51183E-05   -0.22449E-03  2464   0.873E-02    0.761E-02
DAV:   8    -0.136761878579E+04    0.25258E-04   -0.83318E-04  2576   0.554E-02    0.403E-02
DAV:   9    -0.136761876587E+04    0.19927E-04   -0.23566E-04  2280   0.304E-02    0.245E-02
DAV:  10    -0.136761877134E+04   -0.54721E-05   -0.87764E-05  2496   0.178E-02    0.174E-02
DAV:  11    -0.136761876873E+04    0.26085E-05   -0.30366E-05  2312   0.120E-02    0.814E-03
DAV:  12    -0.136761876950E+04   -0.77307E-06   -0.13116E-05  1800   0.776E-03    0.707E-03
DAV:  13    -0.136761876878E+04    0.72633E-06   -0.22282E-06  1008   0.520E-03
  10 F= -.13676188E+04 E0= -.13676188E+04  d E =-.384440E+00
 BRION: g(F)=  0.146E+00 g(S)=  0.000E+00 retain N=  3 mean eig= 5.97
 eig:   7.651  7.651  2.620
 bond charge predicted
       N       E                     dE             d eps       ncg     rms          rms(c)
DAV:   1    -0.136778295211E+04   -0.16418E+00   -0.23960E+01  1400   0.700E+00    0.825E-01
DAV:   2    -0.136791495101E+04   -0.13200E+00   -0.14081E+00  2296   0.290E+00    0.411E-01
DAV:   3    -0.136792341053E+04   -0.84595E-02   -0.11566E-01  2584   0.555E-01    0.344E-01
DAV:   4    -0.136792204690E+04    0.13636E-02   -0.10183E-02  2616   0.248E-01    0.260E-01
DAV:   5    -0.136792018312E+04    0.18638E-02   -0.60255E-03  2304   0.157E-01    0.108E-01
DAV:   6    -0.136792028077E+04   -0.97653E-04   -0.46361E-03  2288   0.124E-01    0.900E-02
DAV:   7    -0.136792027488E+04    0.58875E-05   -0.22044E-03  2448   0.840E-02    0.678E-02
DAV:   8    -0.136792025512E+04    0.19766E-04   -0.69651E-04  2560   0.535E-02    0.383E-02
DAV:   9    -0.136792023876E+04    0.16355E-04   -0.19564E-04  2360   0.273E-02    0.227E-02
DAV:  10    -0.136792024367E+04   -0.49084E-05   -0.81485E-05  2432   0.166E-02    0.146E-02
DAV:  11    -0.136792024397E+04   -0.29385E-06   -0.30933E-05  2296   0.117E-02    0.110E-02
DAV:  12    -0.136792024331E+04    0.65673E-06   -0.13457E-05  1920   0.849E-03    0.984E-03
DAV:  13    -0.136792024236E+04    0.94717E-06   -0.11547E-05  1752   0.649E-03    0.471E-03
DAV:  14    -0.136792024207E+04    0.28840E-06   -0.19278E-06   960   0.453E-03
  11 F= -.13679202E+04 E0= -.13679202E+04  d E =-.301473E+00
 BRION: g(F)=  0.136E+00 g(S)=  0.000E+00 retain N=  3 mean eig= 5.93
 eig:   7.686  7.686  2.412
 bond charge predicted
       N       E                     dE             d eps       ncg     rms          rms(c)
DAV:   1    -0.136807967773E+04   -0.15944E+00   -0.23427E+01  1376   0.689E+00    0.797E-01
DAV:   2    -0.136820463980E+04   -0.12496E+00   -0.13230E+00  2280   0.277E+00    0.399E-01
DAV:   3    -0.136821233567E+04   -0.76959E-02   -0.10625E-01  2584   0.542E-01    0.328E-01
DAV:   4    -0.136821103668E+04    0.12990E-02   -0.92530E-03  2616   0.231E-01    0.246E-01
DAV:   5    -0.136820920166E+04    0.18350E-02   -0.50145E-03  2272   0.148E-01    0.103E-01
DAV:   6    -0.136820926390E+04   -0.62242E-04   -0.44263E-03  2280   0.122E-01    0.772E-02
DAV:   7    -0.136820929031E+04   -0.26416E-04   -0.18880E-03  2400   0.763E-02    0.638E-02
DAV:   8    -0.136820927294E+04    0.17371E-04   -0.51263E-04  2560   0.462E-02    0.363E-02
DAV:   9    -0.136820925340E+04    0.19539E-04   -0.20460E-04  2384   0.273E-02    0.197E-02
DAV:  10    -0.136820925928E+04   -0.58800E-05   -0.72794E-05  2392   0.167E-02    0.158E-02
DAV:  11    -0.136820925718E+04    0.21051E-05   -0.28768E-05  2208   0.110E-02    0.879E-03
DAV:  12    -0.136820925710E+04    0.79744E-07   -0.11385E-05  1760   0.765E-03    0.752E-03
DAV:  13    -0.136820925672E+04    0.38274E-06   -0.77573E-06  1600   0.557E-03
  12 F= -.13682093E+04 E0= -.13682093E+04  d E =-.289015E+00
 BRION: g(F)=  0.129E+00 g(S)=  0.000E+00 retain N=  3 mean eig= 5.17
 eig:   6.704  6.704  2.109
 bond charge predicted
       N       E                     dE             d eps       ncg     rms          rms(c)
DAV:   1    -0.136835858428E+04   -0.14933E+00   -0.22849E+01  1376   0.681E+00    0.784E-01
DAV:   2    -0.136848164683E+04   -0.12306E+00   -0.13008E+00  2296   0.276E+00    0.396E-01
DAV:   3    -0.136848908959E+04   -0.74428E-02   -0.10345E-01  2584   0.526E-01    0.323E-01
DAV:   4    -0.136848774077E+04    0.13488E-02   -0.90801E-03  2608   0.231E-01    0.241E-01
DAV:   5    -0.136848595587E+04    0.17849E-02   -0.51544E-03  2280   0.146E-01    0.964E-02
DAV:   6    -0.136848604816E+04   -0.92291E-04   -0.40567E-03  2320   0.114E-01    0.749E-02
DAV:   7    -0.136848606578E+04   -0.17617E-04   -0.16812E-03  2432   0.728E-02    0.590E-02
DAV:   8    -0.136848604854E+04    0.17244E-04   -0.47499E-04  2592   0.448E-02    0.327E-02
DAV:   9    -0.136848603532E+04    0.13217E-04   -0.15992E-04  2304   0.246E-02    0.191E-02
DAV:  10    -0.136848603965E+04   -0.43327E-05   -0.59306E-05  2312   0.144E-02    0.134E-02
DAV:  11    -0.136848603822E+04    0.14370E-05   -0.19543E-05  2128   0.975E-03    0.700E-03
DAV:  12    -0.136848603862E+04   -0.40751E-06   -0.10637E-05  1728   0.699E-03    0.668E-03
DAV:  13    -0.136848603802E+04    0.60898E-06   -0.17057E-06   960   0.469E-03
  13 F= -.13684860E+04 E0= -.13684860E+04  d E =-.276781E+00
 BRION: g(F)=  0.121E+00 g(S)=  0.000E+00 retain N=  3 mean eig= 4.92
 eig:   6.399  6.399  1.951
 bond charge predicted
       N       E                     dE             d eps       ncg     rms          rms(c)
DAV:   1    -0.136863187109E+04   -0.14583E+00   -0.28493E+01  1376   0.758E+00    0.858E-01
DAV:   2    -0.136878257142E+04   -0.15070E+00   -0.15886E+00  2288   0.303E+00    0.435E-01
DAV:   3    -0.136879198165E+04   -0.94102E-02   -0.12857E-01  2584   0.586E-01    0.355E-01
DAV:   4    -0.136879047194E+04    0.15097E-02   -0.10840E-02  2600   0.252E-01    0.267E-01
DAV:   5    -0.136878833016E+04    0.21418E-02   -0.59401E-03  2288   0.158E-01    0.113E-01
DAV:   6    -0.136878837603E+04   -0.45866E-04   -0.50533E-03  2288   0.129E-01    0.832E-02
DAV:   7    -0.136878840345E+04   -0.27419E-04   -0.22086E-03  2456   0.844E-02    0.673E-02
DAV:   8    -0.136878838281E+04    0.20638E-04   -0.61042E-04  2576   0.509E-02    0.385E-02
DAV:   9    -0.136878836307E+04    0.19733E-04   -0.22096E-04  2368   0.285E-02    0.216E-02
DAV:  10    -0.136878836895E+04   -0.58714E-05   -0.83269E-05  2392   0.172E-02    0.154E-02
DAV:  11    -0.136878836773E+04    0.12185E-05   -0.29423E-05  2240   0.114E-02    0.914E-03
DAV:  12    -0.136878836757E+04    0.15651E-06   -0.11647E-05  1760   0.777E-03    0.808E-03
DAV:  13    -0.136878836701E+04    0.56197E-06   -0.88985E-06  1568   0.590E-03
  14 F= -.13687884E+04 E0= -.13687884E+04  d E =-.302329E+00
 BRION: g(F)=  0.114E+00 g(S)=  0.000E+00 retain N=  3 mean eig= 5.97
 eig:   7.936  7.936  2.028
 bond charge predicted
       N       E                     dE             d eps       ncg     rms          rms(c)
DAV:   1    -0.136892571557E+04   -0.13735E+00   -0.32285E+01  1368   0.804E+00    0.903E-01
DAV:   2    -0.136909207259E+04   -0.16636E+00   -0.17476E+00  2304   0.315E+00    0.460E-01
DAV:   3    -0.136910221596E+04   -0.10143E-01   -0.13971E-01  2592   0.611E-01    0.371E-01
DAV:   4    -0.136910049662E+04    0.17193E-02   -0.11747E-02  2608   0.258E-01    0.277E-01
DAV:   5    -0.136909809913E+04    0.23975E-02   -0.64128E-03  2312   0.166E-01    0.113E-01
DAV:   6    -0.136909818217E+04   -0.83040E-04   -0.53806E-03  2336   0.132E-01    0.815E-02
DAV:   7    -0.136909820585E+04   -0.23681E-04   -0.19628E-03  2456   0.812E-02    0.656E-02
DAV:   8    -0.136909818668E+04    0.19171E-04   -0.58846E-04  2576   0.482E-02    0.367E-02
DAV:   9    -0.136909816843E+04    0.18254E-04   -0.21240E-04  2296   0.283E-02    0.209E-02
DAV:  10    -0.136909817405E+04   -0.56181E-05   -0.73760E-05  2368   0.163E-02    0.158E-02
DAV:  11    -0.136909817169E+04    0.23587E-05   -0.25934E-05  2192   0.108E-02    0.696E-03
DAV:  12    -0.136909817230E+04   -0.60778E-06   -0.11846E-05  1784   0.740E-03    0.640E-03
DAV:  13    -0.136909817168E+04    0.61085E-06   -0.24811E-06  1048   0.508E-03
  15 F= -.13690982E+04 E0= -.13690982E+04  d E =-.309805E+00
 BRION: g(F)=  0.105E+00 g(S)=  0.000E+00 retain N=  2 mean eig= 4.69
 eig:   4.694  4.694
 bond charge predicted
       N       E                     dE             d eps       ncg     rms          rms(c)
DAV:   1    -0.136921422045E+04   -0.11605E+00   -0.35361E+01  1376   0.843E+00    0.947E-01
DAV:   2    -0.136939845830E+04   -0.18424E+00   -0.19372E+00  2288   0.332E+00    0.481E-01
DAV:   3    -0.136941001423E+04   -0.11556E-01   -0.15817E-01  2568   0.647E-01    0.388E-01
DAV:   4    -0.136940810825E+04    0.19060E-02   -0.13703E-02  2576   0.281E-01    0.290E-01
DAV:   5    -0.136940560119E+04    0.25071E-02   -0.73471E-03  2320   0.173E-01    0.121E-01
DAV:   6    -0.136940563175E+04   -0.30560E-04   -0.55780E-03  2296   0.138E-01    0.876E-02
DAV:   7    -0.136940568369E+04   -0.51933E-04   -0.26880E-03  2488   0.928E-02    0.723E-02
DAV:   8    -0.136940564979E+04    0.33892E-04   -0.72144E-04  2568   0.564E-02    0.423E-02
DAV:   9    -0.136940563345E+04    0.16340E-04   -0.25439E-04  2416   0.305E-02    0.240E-02
DAV:  10    -0.136940563943E+04   -0.59701E-05   -0.94357E-05  2448   0.181E-02    0.164E-02
DAV:  11    -0.136940563893E+04    0.49702E-06   -0.31999E-05  2352   0.123E-02    0.104E-02
DAV:  12    -0.136940563850E+04    0.43144E-06   -0.18727E-05  2072   0.927E-03    0.928E-03
DAV:  13    -0.136940563784E+04    0.65791E-06   -0.10193E-05  1776   0.645E-03    0.521E-03
DAV:  14    -0.136940563746E+04    0.37649E-06   -0.20269E-06   968   0.457E-03
  16 F= -.13694056E+04 E0= -.13694056E+04  d E =-.307466E+00
 BRION: g(F)=  0.954E-01 g(S)=  0.000E+00 retain N=  2 mean eig= 5.21
 eig:   5.210  5.210
 bond charge predicted
       N       E                     dE             d eps       ncg     rms          rms(c)
DAV:   1    -0.136949402530E+04   -0.88387E-01   -0.43597E+01  1368   0.932E+00    0.103E+00
DAV:   2    -0.136971448261E+04   -0.22046E+00   -0.23135E+00  2288   0.359E+00    0.528E-01
DAV:   3    -0.136972823508E+04   -0.13752E-01   -0.18864E-01  2592   0.712E-01    0.425E-01
DAV:   4    -0.136972599381E+04    0.22413E-02   -0.15731E-02  2608   0.298E-01    0.315E-01
DAV:   5    -0.136972291872E+04    0.30751E-02   -0.79489E-03  2272   0.186E-01    0.137E-01
DAV:   6    -0.136972290165E+04    0.17077E-04   -0.70192E-03  2280   0.153E-01    0.932E-02
DAV:   7    -0.136972296584E+04   -0.64197E-04   -0.30641E-03  2416   0.997E-02    0.790E-02
DAV:   8    -0.136972293253E+04    0.33314E-04   -0.83637E-04  2552   0.590E-02    0.468E-02
DAV:   9    -0.136972290740E+04    0.25127E-04   -0.33843E-04  2400   0.350E-02    0.254E-02
DAV:  10    -0.136972291642E+04   -0.90180E-05   -0.12373E-04  2416   0.210E-02    0.191E-02
DAV:  11    -0.136972291406E+04    0.23603E-05   -0.40054E-05  2360   0.136E-02    0.105E-02
DAV:  12    -0.136972291419E+04   -0.12817E-06   -0.22359E-05  2128   0.975E-03    0.965E-03
DAV:  13    -0.136972291337E+04    0.81449E-06   -0.11745E-05  1760   0.677E-03    0.517E-03
DAV:  14    -0.136972291311E+04    0.26735E-06   -0.27185E-06  1056   0.478E-03
  17 F= -.13697229E+04 E0= -.13697229E+04  d E =-.317276E+00
 BRION: g(F)=  0.838E-01 g(S)=  0.000E+00 retain N=  2 mean eig= 6.02
 eig:   6.015  6.015
 bond charge predicted
       N       E                     dE             d eps       ncg     rms          rms(c)
DAV:   1    -0.136980756551E+04   -0.84652E-01   -0.28803E+01  1360   0.759E+00    0.846E-01
DAV:   2    -0.136995272633E+04   -0.14516E+00   -0.15215E+00  2288   0.289E+00    0.429E-01
DAV:   3    -0.136996158914E+04   -0.88628E-02   -0.12331E-01  2576   0.575E-01    0.341E-01
DAV:   4    -0.136995995406E+04    0.16351E-02   -0.10582E-02  2592   0.243E-01    0.251E-01
DAV:   5    -0.136995791379E+04    0.20403E-02   -0.54477E-03  2280   0.154E-01    0.105E-01
DAV:   6    -0.136995792704E+04   -0.13251E-04   -0.45195E-03  2288   0.123E-01    0.758E-02
DAV:   7    -0.136995797599E+04   -0.48955E-04   -0.19784E-03  2400   0.796E-02    0.639E-02
DAV:   8    -0.136995795113E+04    0.24862E-04   -0.56132E-04  2568   0.474E-02    0.362E-02
DAV:   9    -0.136995793629E+04    0.14845E-04   -0.19989E-04  2296   0.276E-02    0.206E-02
DAV:  10    -0.136995794126E+04   -0.49672E-05   -0.83838E-05  2352   0.171E-02    0.149E-02
DAV:  11    -0.136995793949E+04    0.17654E-05   -0.24035E-05  2232   0.111E-02    0.728E-03
DAV:  12    -0.136995793997E+04   -0.48231E-06   -0.14062E-05  1880   0.774E-03    0.713E-03
DAV:  13    -0.136995793927E+04    0.70715E-06   -0.38932E-06  1232   0.542E-03
  18 F= -.13699579E+04 E0= -.13699579E+04  d E =-.235026E+00
 BRION: g(F)=  0.752E-01 g(S)=  0.000E+00 retain N=  2 mean eig= 6.33
 eig:   6.331  6.331
 bond charge predicted
       N       E                     dE             d eps       ncg     rms          rms(c)
DAV:   1    -0.137002510675E+04   -0.67167E-01   -0.30256E+01  1360   0.773E+00    0.853E-01
DAV:   2    -0.137017570053E+04   -0.15059E+00   -0.15775E+00  2288   0.292E+00    0.436E-01
DAV:   3    -0.137018494573E+04   -0.92452E-02   -0.12768E-01  2576   0.581E-01    0.350E-01
DAV:   4    -0.137018344662E+04    0.14991E-02   -0.10927E-02  2592   0.242E-01    0.260E-01
DAV:   5    -0.137018132628E+04    0.21203E-02   -0.54304E-03  2304   0.153E-01    0.114E-01
DAV:   6    -0.137018127991E+04    0.46370E-04   -0.47911E-03  2272   0.127E-01    0.763E-02
DAV:   7    -0.137018133379E+04   -0.53887E-04   -0.21688E-03  2408   0.847E-02    0.667E-02
DAV:   8    -0.137018130855E+04    0.25249E-04   -0.61095E-04  2560   0.498E-02    0.408E-02
DAV:   9    -0.137018129016E+04    0.18382E-04   -0.23066E-04  2408   0.287E-02    0.223E-02
DAV:  10    -0.137018129566E+04   -0.54930E-05   -0.95326E-05  2448   0.179E-02    0.154E-02
DAV:  11    -0.137018129489E+04    0.76636E-06   -0.25516E-05  2248   0.113E-02    0.974E-03
DAV:  12    -0.137018129458E+04    0.30664E-06   -0.19004E-05  2048   0.901E-03    0.876E-03
DAV:  13    -0.137018129392E+04    0.66469E-06   -0.93238E-06  1760   0.641E-03
  19 F= -.13701813E+04 E0= -.13701813E+04  d E =-.223355E+00
 BRION: g(F)=  0.674E-01 g(S)=  0.000E+00 retain N=  2 mean eig= 6.33
 eig:   6.334  6.334
 bond charge predicted
       N       E                     dE             d eps       ncg     rms          rms(c)
DAV:   1    -0.137022262069E+04   -0.41326E-01   -0.34156E+01  1360   0.819E+00    0.901E-01
DAV:   2    -0.137039026066E+04   -0.16764E+00   -0.17528E+00  2288   0.307E+00    0.460E-01
DAV:   3    -0.137040021072E+04   -0.99501E-02   -0.13944E-01  2584   0.608E-01    0.369E-01
DAV:   4    -0.137039849035E+04    0.17204E-02   -0.11724E-02  2592   0.249E-01    0.273E-01
DAV:   5    -0.137039599167E+04    0.24987E-02   -0.58633E-03  2264   0.163E-01    0.120E-01
DAV:   6    -0.137039594646E+04    0.45218E-04   -0.56803E-03  2256   0.135E-01    0.801E-02
DAV:   7    -0.137039601425E+04   -0.67795E-04   -0.22576E-03  2376   0.857E-02    0.715E-02
DAV:   8    -0.137039598753E+04    0.26718E-04   -0.66498E-04  2520   0.501E-02    0.418E-02
DAV:   9    -0.137039596120E+04    0.26332E-04   -0.26825E-04  2304   0.314E-02    0.222E-02
DAV:  10    -0.137039596880E+04   -0.76019E-05   -0.11900E-04  2304   0.199E-02    0.168E-02
DAV:  11    -0.137039596551E+04    0.32912E-05   -0.28210E-05  2192   0.119E-02    0.691E-03
DAV:  12    -0.137039596646E+04   -0.94726E-06   -0.18445E-05  2016   0.819E-03    0.682E-03
DAV:  13    -0.137039596566E+04    0.79897E-06   -0.30248E-06  1096   0.566E-03
  20 F= -.13703960E+04 E0= -.13703960E+04  d E =-.214672E+00
 BRION: g(F)=  0.596E-01 g(S)=  0.000E+00 retain N=  2 mean eig= 7.46
 eig:   7.459  7.459
