 running on  160 total cores
 distrk:  each k-point on  160 cores,    1 groups
 distr:  one band on   20 cores,    8 groups
 using from now: INCAR     
 vasp.5.4.4.18Apr17-6-g9f103f2a35 (build May 01 2020 14:22:42) gamma-only       
  
 POSCAR found type information on POSCAR  O  La Zr Li Al
 POSCAR found :  5 types and     192 ions
 scaLAPACK will be used
 LDA part: xc-table for Pade appr. of Perdew
 POSCAR, INCAR and KPOINTS ok, starting setup
 FFT: planning ...
 WAVECAR not read
 WARNING: random wavefunctions but no delay for mixing, default for NELMDL
 entering main loop
       N       E                     dE             d eps       ncg     rms          rms(c)
DAV:   1     0.254718375592E+05    0.25472E+05   -0.41998E+05  1576   0.253E+03
DAV:   2     0.947472786697E+04   -0.15997E+05   -0.14822E+05  1448   0.708E+02
DAV:   3     0.269625590136E+04   -0.67785E+04   -0.61765E+04  1512   0.358E+02
DAV:   4    -0.403339129873E+03   -0.30996E+04   -0.28946E+04  2080   0.224E+02
DAV:   5    -0.143767328135E+04   -0.10343E+04   -0.99920E+03  2528   0.141E+02    0.117E+02
DAV:   6    -0.131049889650E+04    0.12717E+03   -0.13875E+03  2440   0.653E+01    0.504E+01
DAV:   7    -0.133377361031E+04   -0.23275E+02   -0.37923E+02  2552   0.336E+01    0.238E+01
DAV:   8    -0.134384323625E+04   -0.10070E+02   -0.24491E+02  2552   0.262E+01    0.257E+01
DAV:   9    -0.133673448085E+04    0.71088E+01   -0.58934E+01  2464   0.150E+01    0.717E+00
DAV:  10    -0.133803593098E+04   -0.13015E+01   -0.14949E+01  2608   0.838E+00    0.824E+00
DAV:  11    -0.133814824828E+04   -0.11232E+00   -0.65504E+00  2624   0.449E+00    0.402E+00
DAV:  12    -0.133806183678E+04    0.86411E-01   -0.25020E+00  2576   0.352E+00    0.307E+00
DAV:  13    -0.133815400870E+04   -0.92172E-01   -0.94142E-01  2568   0.180E+00    0.247E+00
DAV:  14    -0.133811825415E+04    0.35755E-01   -0.40774E-01  2576   0.124E+00    0.126E+00
DAV:  15    -0.133812884357E+04   -0.10589E-01   -0.12411E-01  2560   0.700E-01    0.109E+00
DAV:  16    -0.133812870710E+04    0.13647E-03   -0.41917E-02  2608   0.394E-01    0.687E-01
DAV:  17    -0.133812579478E+04    0.29123E-02   -0.28569E-02  2472   0.336E-01    0.301E-01
DAV:  18    -0.133812628260E+04   -0.48782E-03   -0.60911E-03  2440   0.167E-01    0.192E-01
DAV:  19    -0.133812606567E+04    0.21693E-03   -0.34210E-03  2520   0.112E-01    0.124E-01
DAV:  20    -0.133812610698E+04   -0.41310E-04   -0.10550E-03  2552   0.634E-02    0.364E-02
DAV:  21    -0.133812611393E+04   -0.69471E-05   -0.29902E-04  2584   0.376E-02    0.413E-02
DAV:  22    -0.133812613779E+04   -0.23863E-04   -0.95074E-05  2472   0.220E-02    0.170E-02
DAV:  23    -0.133812613069E+04    0.70959E-05   -0.48630E-05  2424   0.137E-02    0.136E-02
DAV:  24    -0.133812613663E+04   -0.59344E-05   -0.17865E-05  1928   0.996E-03    0.365E-03
DAV:  25    -0.133812613646E+04    0.16634E-06   -0.39898E-06  1056   0.579E-03
   1 F= -.13381261E+04 E0= -.13381261E+04  d E =-.133813E+04
 BRION: g(F)=  0.431E+02 g(S)=  0.000E+00
 bond charge predicted
       N       E                     dE             d eps       ncg     rms          rms(c)
DAV:   1    -0.132487874182E+04    0.13247E+02   -0.52528E+03  1656   0.111E+02    0.191E+01
DAV:   2    -0.135885301960E+04   -0.33974E+02   -0.40537E+02  2576   0.470E+01    0.107E+01
DAV:   3    -0.135832438644E+04    0.52863E+00   -0.25625E+01  2608   0.129E+01    0.758E+00
DAV:   4    -0.135686222675E+04    0.14622E+01   -0.57646E+00  2512   0.550E+00    0.405E+00
DAV:   5    -0.135634328062E+04    0.51895E+00   -0.24342E+00  2336   0.419E+00    0.242E+00
DAV:   6    -0.135634252331E+04    0.75731E-03   -0.30954E+00  2464   0.338E+00    0.147E+00
DAV:   7    -0.135636395781E+04   -0.21434E-01   -0.65743E-01  2472   0.172E+00    0.142E+00
DAV:   8    -0.135635599253E+04    0.79653E-02   -0.20420E-01  2624   0.759E-01    0.709E-01
DAV:   9    -0.135635285775E+04    0.31348E-02   -0.45607E-02  2624   0.464E-01    0.331E-01
DAV:  10    -0.135635203603E+04    0.82172E-03   -0.10713E-02  2408   0.295E-01    0.178E-01
DAV:  11    -0.135635270894E+04   -0.67291E-03   -0.11193E-02  2616   0.189E-01    0.112E-01
DAV:  12    -0.135635273833E+04   -0.29394E-04   -0.17699E-03  2616   0.932E-02    0.687E-02
DAV:  13    -0.135635279721E+04   -0.58877E-04   -0.86642E-04  2624   0.510E-02    0.363E-02
DAV:  14    -0.135635280009E+04   -0.28793E-05   -0.12987E-04  2624   0.295E-02    0.209E-02
DAV:  15    -0.135635280232E+04   -0.22314E-05   -0.69311E-05  2600   0.151E-02    0.156E-02
DAV:  16    -0.135635280199E+04    0.33055E-06   -0.13858E-05  2064   0.942E-03    0.122E-02
DAV:  17    -0.135635280080E+04    0.11878E-05   -0.88987E-06  1696   0.610E-03    0.697E-03
DAV:  18    -0.135635280060E+04    0.20189E-06   -0.49901E-06  1392   0.551E-03
   2 F= -.13563528E+04 E0= -.13563528E+04  d E =-.182267E+02
 BRION: g(F)=  0.175E+02 g(S)=  0.000E+00 retain N=  1 mean eig= 0.67
 eig:   0.672
 bond charge predicted
       N       E                     dE             d eps       ncg     rms          rms(c)
DAV:   1    -0.135162085954E+04    0.47319E+01   -0.16079E+03  1456   0.571E+01    0.105E+01
DAV:   2    -0.136157749276E+04   -0.99566E+01   -0.12131E+02  2512   0.253E+01    0.921E+00
DAV:   3    -0.136189946887E+04   -0.32198E+00   -0.94716E+00  2592   0.726E+00    0.721E+00
DAV:   4    -0.136153977090E+04    0.35970E+00   -0.24611E+00  2568   0.331E+00    0.427E+00
DAV:   5    -0.136136613242E+04    0.17364E+00   -0.11111E+00  2176   0.291E+00    0.253E+00
DAV:   6    -0.136132761887E+04    0.38514E-01   -0.13894E+00  2480   0.218E+00    0.136E+00
DAV:   7    -0.136133925406E+04   -0.11635E-01   -0.35048E-01  2520   0.114E+00    0.915E-01
DAV:   8    -0.136133673348E+04    0.25206E-02   -0.55507E-02  2624   0.487E-01    0.638E-01
DAV:   9    -0.136133536862E+04    0.13649E-02   -0.28106E-02  2592   0.319E-01    0.449E-01
DAV:  10    -0.136133340249E+04    0.19661E-02   -0.94315E-03  2336   0.232E-01    0.307E-01
DAV:  11    -0.136133321013E+04    0.19236E-03   -0.14555E-02  2368   0.185E-01    0.114E-01
DAV:  12    -0.136133306423E+04    0.14589E-03   -0.16642E-03  2480   0.100E-01    0.552E-02
DAV:  13    -0.136133311998E+04   -0.55748E-04   -0.79151E-04  2488   0.527E-02    0.377E-02
DAV:  14    -0.136133310909E+04    0.10893E-04   -0.15157E-04  2432   0.322E-02    0.190E-02
DAV:  15    -0.136133311907E+04   -0.99789E-05   -0.16322E-04  2400   0.205E-02    0.162E-02
DAV:  16    -0.136133311592E+04    0.31470E-05   -0.23890E-05  2168   0.117E-02    0.962E-03
DAV:  17    -0.136133311565E+04    0.26745E-06   -0.19069E-05  1992   0.838E-03    0.327E-03
DAV:  18    -0.136133311584E+04   -0.18731E-06   -0.27642E-06  1128   0.528E-03
   3 F= -.13613331E+04 E0= -.13613331E+04  d E =-.498032E+01
 BRION: g(F)=  0.396E+01 g(S)=  0.000E+00 retain N=  2 mean eig= 0.69
 eig:   0.430  0.945
 bond charge predicted
       N       E                     dE             d eps       ncg     rms          rms(c)
DAV:   1    -0.136231672099E+04   -0.98361E+00   -0.34124E+02  1376   0.268E+01    0.503E+00
DAV:   2    -0.136396687314E+04   -0.16502E+01   -0.18635E+01  2320   0.102E+01    0.217E+00
DAV:   3    -0.136401630443E+04   -0.49431E-01   -0.15128E+00  2600   0.232E+00    0.183E+00
DAV:   4    -0.136396648492E+04    0.49820E-01   -0.31381E-01  2608   0.121E+00    0.962E-01
DAV:   5    -0.136395332704E+04    0.13158E-01   -0.13373E-01  2328   0.777E-01    0.575E-01
DAV:   6    -0.136395321159E+04    0.11545E-03   -0.77504E-02  2584   0.553E-01    0.406E-01
DAV:   7    -0.136395283405E+04    0.37754E-03   -0.32755E-02  2400   0.327E-01    0.268E-01
DAV:   8    -0.136395255964E+04    0.27441E-03   -0.90251E-03  2608   0.175E-01    0.142E-01
DAV:   9    -0.136395242762E+04    0.13202E-03   -0.19560E-03  2608   0.999E-02    0.904E-02
DAV:  10    -0.136395256428E+04   -0.13666E-03   -0.21428E-03  2248   0.773E-02    0.972E-02
DAV:  11    -0.136395244950E+04    0.11477E-03   -0.85140E-04  2528   0.586E-02    0.385E-02
DAV:  12    -0.136395246448E+04   -0.14980E-04   -0.45767E-04  2528   0.373E-02    0.294E-02
DAV:  13    -0.136395245760E+04    0.68847E-05   -0.10050E-04  2520   0.205E-02    0.127E-02
DAV:  14    -0.136395245955E+04   -0.19488E-05   -0.17656E-05  2120   0.908E-03    0.814E-03
DAV:  15    -0.136395245960E+04   -0.46173E-07   -0.81546E-06  1648   0.601E-03
   4 F= -.13639525E+04 E0= -.13639525E+04  d E =-.261934E+01
 BRION: g(F)=  0.119E+01 g(S)=  0.000E+00 retain N=  3 mean eig= 1.31
 eig:   0.763  1.581  1.581
 bond charge predicted
       N       E                     dE             d eps       ncg     rms          rms(c)
DAV:   1    -0.136455921488E+04   -0.60676E+00   -0.17050E+02  1360   0.188E+01    0.238E+00
DAV:   2    -0.136537379512E+04   -0.81458E+00   -0.86043E+00  2296   0.695E+00    0.119E+00
DAV:   3    -0.136541245479E+04   -0.38660E-01   -0.63208E-01  2584   0.141E+00    0.990E-01
DAV:   4    -0.136539914425E+04    0.13311E-01   -0.79177E-02  2576   0.632E-01    0.640E-01
DAV:   5    -0.136539065523E+04    0.84890E-02   -0.46301E-02  2232   0.427E-01    0.268E-01
DAV:   6    -0.136539229957E+04   -0.16443E-02   -0.24700E-02  2520   0.307E-01    0.283E-01
DAV:   7    -0.136539158164E+04    0.71793E-03   -0.12316E-02  2456   0.205E-01    0.178E-01
DAV:   8    -0.136539141207E+04    0.16957E-03   -0.49403E-03  2576   0.132E-01    0.816E-02
DAV:   9    -0.136539139216E+04    0.19911E-04   -0.72317E-04  2528   0.596E-02    0.596E-02
DAV:  10    -0.136539140994E+04   -0.17786E-04   -0.50022E-04  2320   0.392E-02    0.397E-02
DAV:  11    -0.136539139273E+04    0.17211E-04   -0.18411E-04  2480   0.308E-02    0.176E-02
DAV:  12    -0.136539140115E+04   -0.84173E-05   -0.12359E-04  2408   0.202E-02    0.221E-02
DAV:  13    -0.136539139480E+04    0.63527E-05   -0.41049E-05  2184   0.126E-02    0.981E-03
DAV:  14    -0.136539139498E+04   -0.18564E-06   -0.10724E-05  1792   0.721E-03    0.454E-03
DAV:  15    -0.136539139501E+04   -0.24127E-07   -0.19333E-06  1008   0.446E-03
   5 F= -.13653914E+04 E0= -.13653914E+04  d E =-.143894E+01
 BRION: g(F)=  0.688E+00 g(S)=  0.000E+00 retain N=  4 mean eig= 1.64
 eig:   2.185  2.185  1.097  1.097
 bond charge predicted
       N       E                     dE             d eps       ncg     rms          rms(c)
DAV:   1    -0.136578005647E+04   -0.38866E+00   -0.10526E+02  1368   0.149E+01    0.185E+00
DAV:   2    -0.136630505292E+04   -0.52500E+00   -0.55709E+00  2288   0.563E+00    0.931E-01
DAV:   3    -0.136633653008E+04   -0.31477E-01   -0.44947E-01  2568   0.117E+00    0.770E-01
DAV:   4    -0.136632978825E+04    0.67418E-02   -0.50198E-02  2600   0.518E-01    0.529E-01
DAV:   5    -0.136632417352E+04    0.56147E-02   -0.30189E-02  2288   0.348E-01    0.225E-01
DAV:   6    -0.136632511475E+04   -0.94123E-03   -0.17260E-02  2480   0.267E-01    0.235E-01
DAV:   7    -0.136632473790E+04    0.37684E-03   -0.10029E-02  2432   0.185E-01    0.152E-01
DAV:   8    -0.136632464488E+04    0.93020E-04   -0.38825E-03  2568   0.118E-01    0.772E-02
DAV:   9    -0.136632461663E+04    0.28252E-04   -0.57688E-04  2520   0.547E-02    0.555E-02
DAV:  10    -0.136632461707E+04   -0.43714E-06   -0.42440E-04  2376   0.356E-02    0.288E-02
DAV:  11    -0.136632461587E+04    0.11964E-05   -0.10112E-04  2472   0.249E-02    0.153E-02
DAV:  12    -0.136632461987E+04   -0.40027E-05   -0.68351E-05  2352   0.160E-02    0.177E-02
DAV:  13    -0.136632461577E+04    0.41043E-05   -0.31125E-05  2168   0.109E-02    0.815E-03
DAV:  14    -0.136632461582E+04   -0.51208E-07   -0.10699E-05  1760   0.687E-03    0.319E-03
DAV:  15    -0.136632461591E+04   -0.89523E-07   -0.14668E-06   992   0.422E-03
   6 F= -.13663246E+04 E0= -.13663246E+04  d E =-.933221E+00
 BRION: g(F)=  0.443E+00 g(S)=  0.000E+00 retain N=  5 mean eig= 2.14
 eig:   3.382  3.382  1.534  1.534  0.892
 bond charge predicted
       N       E                     dE             d eps       ncg     rms          rms(c)
DAV:   1    -0.136655395822E+04   -0.22934E+00   -0.13541E+02  1368   0.166E+01    0.199E+00
DAV:   2    -0.136722252848E+04   -0.66857E+00   -0.70308E+00  2288   0.627E+00    0.100E+00
DAV:   3    -0.136725985803E+04   -0.37330E-01   -0.54452E-01  2584   0.124E+00    0.817E-01
DAV:   4    -0.136725062053E+04    0.92375E-02   -0.58274E-02  2600   0.555E-01    0.546E-01
DAV:   5    -0.136724363794E+04    0.69826E-02   -0.32622E-02  2312   0.360E-01    0.218E-01
DAV:   6    -0.136724482893E+04   -0.11910E-02   -0.18823E-02  2472   0.263E-01    0.213E-01
DAV:   7    -0.136724448516E+04    0.34377E-03   -0.81138E-03  2432   0.169E-01    0.143E-01
DAV:   8    -0.136724441301E+04    0.72150E-04   -0.36160E-03  2560   0.111E-01    0.732E-02
DAV:   9    -0.136724438314E+04    0.29867E-04   -0.57209E-04  2448   0.527E-02    0.535E-02
DAV:  10    -0.136724438532E+04   -0.21747E-05   -0.36812E-04  2456   0.336E-02    0.299E-02
DAV:  11    -0.136724438409E+04    0.12265E-05   -0.11052E-04  2496   0.237E-02    0.162E-02
DAV:  12    -0.136724438645E+04   -0.23566E-05   -0.61019E-05  2384   0.156E-02    0.167E-02
DAV:  13    -0.136724438351E+04    0.29317E-05   -0.32704E-05  2168   0.106E-02    0.792E-03
DAV:  14    -0.136724438358E+04   -0.66371E-07   -0.10326E-05  1784   0.648E-03    0.346E-03
DAV:  15    -0.136724438373E+04   -0.15246E-06   -0.11688E-06   992   0.384E-03
   7 F= -.13672444E+04 E0= -.13672444E+04  d E =-.919768E+00
 BRION: g(F)=  0.275E+00 g(S)=  0.000E+00 retain N=  6 mean eig= 3.03
 eig:   5.853  5.853  2.132  2.132  1.119  1.119
 bond charge predicted
       N       E                     dE             d eps       ncg     rms          rms(c)
DAV:   1    -0.136747474463E+04   -0.23036E+00   -0.69576E+01  1360   0.118E+01    0.149E+00
DAV:   2    -0.136781519700E+04   -0.34045E+00   -0.35904E+00  2296   0.455E+00    0.731E-01
DAV:   3    -0.136783257019E+04   -0.17373E-01   -0.27101E-01  2584   0.872E-01    0.576E-01
DAV:   4    -0.136782637300E+04    0.61972E-02   -0.34061E-02  2536   0.412E-01    0.338E-01
DAV:   5    -0.136782419910E+04    0.21739E-02   -0.16327E-02  2376   0.267E-01    0.146E-01
DAV:   6    -0.136782471649E+04   -0.51740E-03   -0.71660E-03  2560   0.162E-01    0.121E-01
DAV:   7    -0.136782462931E+04    0.87180E-04   -0.20700E-03  2600   0.926E-02    0.778E-02
DAV:   8    -0.136782461684E+04    0.12476E-04   -0.91487E-04  2568   0.564E-02    0.407E-02
DAV:   9    -0.136782461070E+04    0.61410E-05   -0.14715E-04  2552   0.289E-02    0.271E-02
DAV:  10    -0.136782461369E+04   -0.29881E-05   -0.10310E-04  2344   0.189E-02    0.164E-02
DAV:  11    -0.136782461311E+04    0.57441E-06   -0.30204E-05  2448   0.124E-02    0.759E-03
DAV:  12    -0.136782461374E+04   -0.63296E-06   -0.13012E-05  1864   0.739E-03    0.681E-03
DAV:  13    -0.136782461323E+04    0.50945E-06   -0.33015E-06  1136   0.564E-03
   8 F= -.13678246E+04 E0= -.13678246E+04  d E =-.580230E+00
 BRION: g(F)=  0.198E+00 g(S)=  0.000E+00 retain N=  4 mean eig= 4.78
 eig:   7.495  7.495  2.058  2.058
 bond charge predicted
       N       E                     dE             d eps       ncg     rms          rms(c)
DAV:   1    -0.136800971727E+04   -0.18510E+00   -0.56028E+01  1368   0.106E+01    0.132E+00
DAV:   2    -0.136829258414E+04   -0.28287E+00   -0.30144E+00  2288   0.413E+00    0.652E-01
DAV:   3    -0.136830868546E+04   -0.16101E-01   -0.24002E-01  2592   0.816E-01    0.526E-01
DAV:   4    -0.136830435815E+04    0.43273E-02   -0.26223E-02  2568   0.374E-01    0.334E-01
DAV:   5    -0.136830199785E+04    0.23603E-02   -0.13695E-02  2336   0.230E-01    0.131E-01
DAV:   6    -0.136830241044E+04   -0.41258E-03   -0.58010E-03  2536   0.146E-01    0.115E-01
DAV:   7    -0.136830235393E+04    0.56506E-04   -0.23699E-03  2576   0.932E-02    0.706E-02
DAV:   8    -0.136830234304E+04    0.10886E-04   -0.85001E-04  2592   0.574E-02    0.411E-02
DAV:   9    -0.136830233857E+04    0.44798E-05   -0.15849E-04  2536   0.278E-02    0.299E-02
DAV:  10    -0.136830234138E+04   -0.28188E-05   -0.10603E-04  2520   0.186E-02    0.162E-02
DAV:  11    -0.136830234018E+04    0.12085E-05   -0.32962E-05  2328   0.130E-02    0.741E-03
DAV:  12    -0.136830234089E+04   -0.71285E-06   -0.12708E-05  1832   0.818E-03    0.633E-03
DAV:  13    -0.136830234053E+04    0.35371E-06   -0.33871E-06  1168   0.540E-03
   9 F= -.13683023E+04 E0= -.13683023E+04  d E =-.477727E+00
 BRION: g(F)=  0.157E+00 g(S)=  0.000E+00 retain N=  3 mean eig= 5.10
 eig:   6.490  6.490  2.312
 bond charge predicted
       N       E                     dE             d eps       ncg     rms          rms(c)
DAV:   1    -0.136846740692E+04   -0.16507E+00   -0.35546E+01  1368   0.853E+00    0.102E+00
DAV:   2    -0.136864794955E+04   -0.18054E+00   -0.19275E+00  2296   0.333E+00    0.509E-01
DAV:   3    -0.136865788123E+04   -0.99317E-02   -0.15181E-01  2576   0.657E-01    0.403E-01
DAV:   4    -0.136865497927E+04    0.29020E-02   -0.16214E-02  2592   0.295E-01    0.265E-01
DAV:   5    -0.136865294796E+04    0.20313E-02   -0.82748E-03  2312   0.193E-01    0.995E-02
DAV:   6    -0.136865321457E+04   -0.26660E-03   -0.50464E-03  2472   0.135E-01    0.915E-02
DAV:   7    -0.136865320199E+04    0.12578E-04   -0.16685E-03  2448   0.782E-02    0.661E-02
DAV:   8    -0.136865318908E+04    0.12905E-04   -0.72063E-04  2576   0.482E-02    0.326E-02
DAV:   9    -0.136865318264E+04    0.64436E-05   -0.13465E-04  2416   0.260E-02    0.242E-02
DAV:  10    -0.136865318166E+04    0.97968E-06   -0.67297E-05  2440   0.165E-02    0.146E-02
DAV:  11    -0.136865318146E+04    0.19606E-06   -0.29549E-05  2304   0.113E-02    0.640E-03
DAV:  12    -0.136865318206E+04   -0.59295E-06   -0.93448E-06  1760   0.698E-03
  10 F= -.13686532E+04 E0= -.13686532E+04  d E =-.350842E+00
 BRION: g(F)=  0.135E+00 g(S)=  0.000E+00 retain N=  3 mean eig= 5.49
 eig:   7.166  7.166  2.148
 bond charge predicted
       N       E                     dE             d eps       ncg     rms          rms(c)
DAV:   1    -0.136879619958E+04   -0.14302E+00   -0.29576E+01  1376   0.777E+00    0.957E-01
DAV:   2    -0.136894903580E+04   -0.15284E+00   -0.16352E+00  2296   0.307E+00    0.470E-01
DAV:   3    -0.136895799422E+04   -0.89584E-02   -0.13169E-01  2576   0.609E-01    0.379E-01
DAV:   4    -0.136895574915E+04    0.22451E-02   -0.13686E-02  2560   0.275E-01    0.249E-01
DAV:   5    -0.136895425350E+04    0.14957E-02   -0.74254E-03  2312   0.173E-01    0.937E-02
DAV:   6    -0.136895449530E+04   -0.24180E-03   -0.36644E-03  2512   0.114E-01    0.857E-02
DAV:   7    -0.136895447549E+04    0.19808E-04   -0.12648E-03  2544   0.686E-02    0.552E-02
DAV:   8    -0.136895446510E+04    0.10387E-04   -0.49699E-04  2576   0.428E-02    0.289E-02
DAV:   9    -0.136895446394E+04    0.11591E-05   -0.82498E-05  2496   0.212E-02    0.221E-02
DAV:  10    -0.136895446480E+04   -0.85880E-06   -0.57246E-05  2488   0.142E-02    0.112E-02
DAV:  11    -0.136895446464E+04    0.15726E-06   -0.14932E-05  2040   0.932E-03    0.534E-03
DAV:  12    -0.136895446529E+04   -0.64635E-06   -0.84475E-06  1680   0.603E-03
  11 F= -.13689545E+04 E0= -.13689545E+04  d E =-.301283E+00
 BRION: g(F)=  0.119E+00 g(S)=  0.000E+00 retain N=  3 mean eig= 5.87
 eig:   7.793  7.793  2.012
 bond charge predicted
       N       E                     dE             d eps       ncg     rms          rms(c)
DAV:   1    -0.136908067099E+04   -0.12621E+00   -0.22309E+01  1368   0.679E+00    0.803E-01
DAV:   2    -0.136919690207E+04   -0.11623E+00   -0.12397E+00  2288   0.268E+00    0.398E-01
DAV:   3    -0.136920395028E+04   -0.70482E-02   -0.10043E-01  2576   0.536E-01    0.321E-01
DAV:   4    -0.136920244394E+04    0.15063E-02   -0.94704E-03  2584   0.233E-01    0.225E-01
DAV:   5    -0.136920105209E+04    0.13919E-02   -0.55033E-03  2280   0.149E-01    0.835E-02
DAV:   6    -0.136920122418E+04   -0.17209E-03   -0.32160E-03  2432   0.105E-01    0.778E-02
DAV:   7    -0.136920120848E+04    0.15703E-04   -0.11458E-03  2480   0.636E-02    0.523E-02
DAV:   8    -0.136920119683E+04    0.11642E-04   -0.46479E-04  2560   0.410E-02    0.269E-02
DAV:   9    -0.136920119369E+04    0.31473E-05   -0.83862E-05  2312   0.205E-02    0.198E-02
DAV:  10    -0.136920119394E+04   -0.25901E-06   -0.43728E-05  2392   0.128E-02    0.972E-03
DAV:  11    -0.136920119402E+04   -0.79308E-07   -0.10292E-05  1808   0.816E-03    0.496E-03
DAV:  12    -0.136920119468E+04   -0.65906E-06   -0.92241E-06  1616   0.581E-03
  12 F= -.13692012E+04 E0= -.13692012E+04  d E =-.246729E+00
 BRION: g(F)=  0.109E+00 g(S)=  0.000E+00 retain N=  3 mean eig= 4.96
 eig:   6.501  6.501  1.870
 bond charge predicted
       N       E                     dE             d eps       ncg     rms          rms(c)
DAV:   1    -0.136931976455E+04   -0.11857E+00   -0.22798E+01  1368   0.685E+00    0.799E-01
DAV:   2    -0.136943711942E+04   -0.11735E+00   -0.12469E+00  2288   0.269E+00    0.394E-01
DAV:   3    -0.136944413382E+04   -0.70144E-02   -0.99710E-02  2576   0.536E-01    0.315E-01
DAV:   4    -0.136944264271E+04    0.14911E-02   -0.91810E-03  2584   0.228E-01    0.222E-01
DAV:   5    -0.136944120810E+04    0.14346E-02   -0.51463E-03  2264   0.147E-01    0.812E-02
DAV:   6    -0.136944137730E+04   -0.16920E-03   -0.32899E-03  2432   0.105E-01    0.728E-02
DAV:   7    -0.136944137645E+04    0.85143E-06   -0.10430E-03  2456   0.599E-02    0.514E-02
DAV:   8    -0.136944136425E+04    0.12204E-04   -0.39932E-04  2584   0.382E-02    0.262E-02
DAV:   9    -0.136944136045E+04    0.38004E-05   -0.81968E-05  2296   0.199E-02    0.183E-02
DAV:  10    -0.136944136100E+04   -0.54826E-06   -0.30310E-05  2432   0.114E-02    0.947E-03
DAV:  11    -0.136944136089E+04    0.11048E-06   -0.92051E-06  1712   0.721E-03
  13 F= -.13694414E+04 E0= -.13694414E+04  d E =-.240166E+00
 BRION: g(F)=  0.103E+00 g(S)=  0.000E+00 retain N=  3 mean eig= 5.36
 eig:   7.100  7.100  1.879
 bond charge predicted
       N       E                     dE             d eps       ncg     rms          rms(c)
DAV:   1    -0.136955311741E+04   -0.11176E+00   -0.17790E+01  1368   0.605E+00    0.693E-01
DAV:   2    -0.136964510283E+04   -0.91985E-01   -0.97460E-01  2296   0.237E+00    0.344E-01
DAV:   3    -0.136965074857E+04   -0.56457E-02   -0.77801E-02  2568   0.464E-01    0.277E-01
DAV:   4    -0.136964976287E+04    0.98570E-03   -0.70116E-03  2584   0.199E-01    0.202E-01
DAV:   5    -0.136964862167E+04    0.11412E-02   -0.40271E-03  2280   0.128E-01    0.771E-02
DAV:   6    -0.136964873823E+04   -0.11656E-03   -0.26411E-03  2416   0.942E-02    0.678E-02
DAV:   7    -0.136964873053E+04    0.76922E-05   -0.96093E-04  2456   0.573E-02    0.469E-02
DAV:   8    -0.136964872031E+04    0.10222E-04   -0.35820E-04  2552   0.368E-02    0.252E-02
DAV:   9    -0.136964871635E+04    0.39650E-05   -0.74643E-05  2264   0.186E-02    0.174E-02
DAV:  10    -0.136964871727E+04   -0.92674E-06   -0.33536E-05  2328   0.111E-02    0.906E-03
DAV:  11    -0.136964871697E+04    0.30367E-06   -0.45106E-06  1248   0.703E-03
  14 F= -.13696487E+04 E0= -.13696487E+04  d E =-.207356E+00
 BRION: g(F)=  0.983E-01 g(S)=  0.000E+00 retain N=  3 mean eig= 4.98
 eig:   6.545  6.545  1.861
 bond charge predicted
       N       E                     dE             d eps       ncg     rms          rms(c)
DAV:   1    -0.136975070048E+04   -0.10198E+00   -0.10354E+01  1368   0.462E+00    0.521E-01
DAV:   2    -0.136980315941E+04   -0.52459E-01   -0.55347E-01  2288   0.179E+00    0.260E-01
DAV:   3    -0.136980636470E+04   -0.32053E-02   -0.43860E-02  2568   0.349E-01    0.206E-01
DAV:   4    -0.136980579564E+04    0.56906E-03   -0.38481E-03  2576   0.146E-01    0.150E-01
DAV:   5    -0.136980514892E+04    0.64672E-03   -0.22496E-03  2216   0.970E-02    0.547E-02
DAV:   6    -0.136980523267E+04   -0.83752E-04   -0.15070E-03  2416   0.696E-02    0.499E-02
DAV:   7    -0.136980523104E+04    0.16339E-05   -0.46523E-04  2464   0.400E-02    0.355E-02
DAV:   8    -0.136980522297E+04    0.80703E-05   -0.17450E-04  2560   0.254E-02    0.181E-02
DAV:   9    -0.136980522064E+04    0.23248E-05   -0.37670E-05  2192   0.133E-02    0.119E-02
DAV:  10    -0.136980522078E+04   -0.13917E-06   -0.11423E-05  2056   0.736E-03    0.566E-03
DAV:  11    -0.136980522063E+04    0.15032E-06   -0.15681E-06   992   0.466E-03
  15 F= -.13698052E+04 E0= -.13698052E+04  d E =-.156504E+00
 BRION: g(F)=  0.968E-01 g(S)=  0.000E+00 retain N=  3 mean eig= 3.68
 eig:   4.749  4.749  1.554
 bond charge predicted
       N       E                     dE             d eps       ncg     rms          rms(c)
DAV:   1    -0.136989738748E+04   -0.92167E-01   -0.67711E+00  1368   0.371E+00    0.417E-01
DAV:   2    -0.136993181780E+04   -0.34430E-01   -0.36317E-01  2288   0.144E+00    0.207E-01
DAV:   3    -0.136993399610E+04   -0.21783E-02   -0.29230E-02  2576   0.282E-01    0.166E-01
DAV:   4    -0.136993366037E+04    0.33573E-03   -0.24483E-03  2592   0.118E-01    0.123E-01
DAV:   5    -0.136993323874E+04    0.42163E-03   -0.14307E-03  2264   0.759E-02    0.475E-02
DAV:   6    -0.136993327980E+04   -0.41062E-04   -0.98319E-04  2392   0.572E-02    0.409E-02
DAV:   7    -0.136993327791E+04    0.18961E-05   -0.37300E-04  2416   0.350E-02    0.288E-02
DAV:   8    -0.136993327367E+04    0.42349E-05   -0.12933E-04  2536   0.225E-02    0.155E-02
DAV:   9    -0.136993327198E+04    0.16933E-05   -0.29297E-05  2152   0.115E-02    0.104E-02
DAV:  10    -0.136993327228E+04   -0.30101E-06   -0.10523E-05  1792   0.676E-03    0.546E-03
DAV:  11    -0.136993327205E+04    0.23466E-06   -0.12729E-06   992   0.491E-03
  16 F= -.13699333E+04 E0= -.13699333E+04  d E =-.128051E+00
 BRION: g(F)=  0.960E-01 g(S)=  0.000E+00 retain N=  3 mean eig= 2.77
 eig:   3.518  3.518  1.283
 bond charge predicted
       N       E                     dE             d eps       ncg     rms          rms(c)
DAV:   1    -0.137000282293E+04   -0.69551E-01   -0.28418E+00  1384   0.241E+00    0.266E-01
DAV:   2    -0.137001710675E+04   -0.14284E-01   -0.15028E-01  2296   0.929E-01    0.133E-01
DAV:   3    -0.137001796872E+04   -0.86197E-03   -0.11691E-02  2584   0.182E-01    0.106E-01
DAV:   4    -0.137001782132E+04    0.14740E-03   -0.10012E-03  2600   0.745E-02    0.766E-02
DAV:   5    -0.137001765727E+04    0.16405E-03   -0.56896E-04  2264   0.489E-02    0.280E-02
DAV:   6    -0.137001767839E+04   -0.21124E-04   -0.37840E-04  2424   0.350E-02    0.247E-02
DAV:   7    -0.137001767798E+04    0.41357E-06   -0.11618E-04  2424   0.203E-02    0.178E-02
DAV:   8    -0.137001767616E+04    0.18141E-05   -0.44852E-05  2568   0.129E-02    0.917E-03
DAV:   9    -0.137001767552E+04    0.64400E-06   -0.95028E-06  1912   0.686E-03
  17 F= -.13700177E+04 E0= -.13700177E+04  d E =-.844035E-01
 BRION: g(F)=  0.963E-01 g(S)=  0.000E+00 retain N=  4 mean eig= 3.27
 eig:   5.809  5.809  1.240  0.225
 bond charge predicted
       N       E                     dE             d eps       ncg     rms          rms(c)
DAV:   1    -0.137001695539E+04    0.72078E-03   -0.39179E-04  1624   0.282E-02    0.426E-03
DAV:   2    -0.137001695730E+04   -0.19121E-05   -0.21917E-05  1992   0.121E-02    0.207E-03
DAV:   3    -0.137001695734E+04   -0.37355E-07   -0.94184E-07   936   0.389E-03
  18 F= -.13700170E+04 E0= -.13700170E+04  d E =0.718182E-03
 BRION: g(F)=  0.964E-01 g(S)=  0.000E+00 retain N=  5 mean eig= 2.73
 eig:   5.541  5.541  1.526  0.294  0.737
 bond charge predicted
       N       E                     dE             d eps       ncg     rms          rms(c)
DAV:   1    -0.137002737228E+04   -0.10415E-01   -0.87635E-01  1496   0.141E+00    0.185E-01
DAV:   2    -0.137003299343E+04   -0.56211E-02   -0.61612E-02  2472   0.652E-01    0.985E-02
DAV:   3    -0.137003326235E+04   -0.26892E-03   -0.40536E-03  2608   0.145E-01    0.816E-02
DAV:   4    -0.137003320940E+04    0.52953E-04   -0.59912E-04  2624   0.548E-02    0.566E-02
DAV:   5    -0.137003317580E+04    0.33601E-04   -0.32050E-04  2416   0.348E-02    0.254E-02
DAV:   6    -0.137003318491E+04   -0.91094E-05   -0.14738E-04  2496   0.227E-02    0.231E-02
DAV:   7    -0.137003318284E+04    0.20636E-05   -0.89062E-05  2472   0.177E-02    0.139E-02
DAV:   8    -0.137003318266E+04    0.18167E-06   -0.31187E-05  2512   0.107E-02    0.674E-03
DAV:   9    -0.137003318259E+04    0.75786E-07   -0.27467E-06  1160   0.513E-03
  19 F= -.13700332E+04 E0= -.13700332E+04  d E =-.162252E-01
 BRION: g(F)=  0.977E-01 g(S)=  0.000E+00 retain N=  6 mean eig= 2.61
 eig:   5.488  5.488  1.883  1.883  0.230  0.686
 bond charge predicted
       N       E                     dE             d eps       ncg     rms          rms(c)
DAV:   1    -0.137000603963E+04    0.27143E-01   -0.47454E+00  1640   0.331E+00    0.456E-01
DAV:   2    -0.137003563399E+04   -0.29594E-01   -0.32122E-01  2480   0.143E+00    0.230E-01
DAV:   3    -0.137003696015E+04   -0.13262E-02   -0.18893E-02  2624   0.334E-01    0.182E-01
DAV:   4    -0.137003675714E+04    0.20301E-03   -0.32675E-03  2600   0.127E-01    0.125E-01
DAV:   5    -0.137003670212E+04    0.55017E-04   -0.14671E-03  2496   0.771E-02    0.547E-02
DAV:   6    -0.137003678369E+04   -0.81564E-04   -0.76316E-04  2520   0.454E-02    0.397E-02
DAV:   7    -0.137003678610E+04   -0.24105E-05   -0.31080E-04  2600   0.359E-02    0.270E-02
DAV:   8    -0.137003678815E+04   -0.20482E-05   -0.14684E-04  2544   0.215E-02    0.129E-02
DAV:   9    -0.137003678948E+04   -0.13335E-05   -0.25311E-05  2256   0.112E-02    0.896E-03
DAV:  10    -0.137003678970E+04   -0.21668E-06   -0.50045E-06  1408   0.646E-03
  20 F= -.13700368E+04 E0= -.13700368E+04  d E =-.360711E-02
 BRION: g(F)=  0.104E+00 g(S)=  0.000E+00 retain N=  2 mean eig= 2.15
 eig:   2.145  2.145
