 running on  160 total cores
 distrk:  each k-point on  160 cores,    1 groups
 distr:  one band on   20 cores,    8 groups
 using from now: INCAR     
 vasp.5.4.4.18Apr17-6-g9f103f2a35 (build May 01 2020 14:22:42) gamma-only       
  
 POSCAR found type information on POSCAR  O  La Zr Li Al
 POSCAR found :  5 types and     192 ions
 scaLAPACK will be used
 LDA part: xc-table for Pade appr. of Perdew
 POSCAR, INCAR and KPOINTS ok, starting setup
 FFT: planning ...
 WAVECAR not read
 WARNING: random wavefunctions but no delay for mixing, default for NELMDL
 entering main loop
       N       E                     dE             d eps       ncg     rms          rms(c)
DAV:   1     0.254270279364E+05    0.25427E+05   -0.41950E+05  1552   0.253E+03
DAV:   2     0.940021832156E+04   -0.16027E+05   -0.14776E+05  1424   0.707E+02
DAV:   3     0.265876934005E+04   -0.67414E+04   -0.61417E+04  1504   0.358E+02
DAV:   4    -0.385110256185E+03   -0.30439E+04   -0.28459E+04  2056   0.222E+02
DAV:   5    -0.142806731444E+04   -0.10430E+04   -0.10046E+04  2528   0.139E+02    0.117E+02
DAV:   6    -0.130988166598E+04    0.11819E+03   -0.14293E+03  2432   0.662E+01    0.502E+01
DAV:   7    -0.133439969819E+04   -0.24518E+02   -0.40668E+02  2552   0.337E+01    0.247E+01
DAV:   8    -0.134443391394E+04   -0.10034E+02   -0.26963E+02  2520   0.276E+01    0.264E+01
DAV:   9    -0.133691998103E+04    0.75139E+01   -0.61875E+01  2496   0.153E+01    0.744E+00
DAV:  10    -0.133827480585E+04   -0.13548E+01   -0.15864E+01  2608   0.867E+00    0.837E+00
DAV:  11    -0.133837826953E+04   -0.10346E+00   -0.78182E+00  2616   0.480E+00    0.422E+00
DAV:  12    -0.133825256685E+04    0.12570E+00   -0.28188E+00  2592   0.374E+00    0.273E+00
DAV:  13    -0.133833792208E+04   -0.85355E-01   -0.97506E-01  2560   0.183E+00    0.215E+00
DAV:  14    -0.133831394966E+04    0.23972E-01   -0.38440E-01  2600   0.124E+00    0.111E+00
DAV:  15    -0.133832498800E+04   -0.11038E-01   -0.11833E-01  2568   0.669E-01    0.957E-01
DAV:  16    -0.133832422056E+04    0.76744E-03   -0.38991E-02  2600   0.392E-01    0.664E-01
DAV:  17    -0.133832203065E+04    0.21899E-02   -0.28902E-02  2448   0.321E-01    0.294E-01
DAV:  18    -0.133832250139E+04   -0.47073E-03   -0.55240E-03  2520   0.162E-01    0.185E-01
DAV:  19    -0.133832231053E+04    0.19085E-03   -0.33698E-03  2536   0.111E-01    0.131E-01
DAV:  20    -0.133832234677E+04   -0.36235E-04   -0.83300E-04  2608   0.594E-02    0.308E-02
DAV:  21    -0.133832235904E+04   -0.12274E-04   -0.25480E-04  2616   0.324E-02    0.484E-02
DAV:  22    -0.133832238393E+04   -0.24890E-04   -0.10189E-04  2440   0.221E-02    0.183E-02
DAV:  23    -0.133832237528E+04    0.86545E-05   -0.45297E-05  2384   0.134E-02    0.170E-02
DAV:  24    -0.133832238211E+04   -0.68366E-05   -0.20638E-05  2096   0.999E-03    0.418E-03
DAV:  25    -0.133832238196E+04    0.15729E-06   -0.34371E-06  1040   0.566E-03
   1 F= -.13383224E+04 E0= -.13383224E+04  d E =-.133832E+04
 BRION: g(F)=  0.413E+02 g(S)=  0.000E+00
 bond charge predicted
       N       E                     dE             d eps       ncg     rms          rms(c)
DAV:   1    -0.132221137230E+04    0.16111E+02   -0.51926E+03  1656   0.108E+02    0.225E+01
DAV:   2    -0.135773747209E+04   -0.35526E+02   -0.42045E+02  2584   0.482E+01    0.108E+01
DAV:   3    -0.135688915470E+04    0.84832E+00   -0.25348E+01  2624   0.126E+01    0.747E+00
DAV:   4    -0.135538488402E+04    0.15043E+01   -0.64116E+00  2472   0.580E+00    0.362E+00
DAV:   5    -0.135510315544E+04    0.28173E+00   -0.27072E+00  2496   0.393E+00    0.227E+00
DAV:   6    -0.135513091037E+04   -0.27755E-01   -0.22774E+00  2536   0.269E+00    0.157E+00
DAV:   7    -0.135510547686E+04    0.25434E-01   -0.42089E-01  2528   0.140E+00    0.735E-01
DAV:   8    -0.135511136872E+04   -0.58919E-02   -0.20056E-01  2592   0.798E-01    0.598E-01
DAV:   9    -0.135510713077E+04    0.42379E-02   -0.30074E-02  2616   0.466E-01    0.391E-01
DAV:  10    -0.135510812751E+04   -0.99673E-03   -0.64649E-02  2344   0.421E-01    0.309E-01
DAV:  11    -0.135510814391E+04   -0.16408E-04   -0.12235E-02  2408   0.254E-01    0.279E-01
DAV:  12    -0.135510725904E+04    0.88487E-03   -0.67285E-03  2488   0.134E-01    0.968E-02
DAV:  13    -0.135510726556E+04   -0.65197E-05   -0.18310E-03  2568   0.769E-02    0.254E-02
DAV:  14    -0.135510731148E+04   -0.45914E-04   -0.48382E-04  2608   0.446E-02    0.364E-02
DAV:  15    -0.135510729111E+04    0.20364E-04   -0.10572E-04  2584   0.259E-02    0.211E-02
DAV:  16    -0.135510729156E+04   -0.45140E-06   -0.87827E-05  2544   0.150E-02    0.700E-03
DAV:  17    -0.135510729170E+04   -0.13541E-06   -0.53195E-06  1384   0.717E-03
   2 F= -.13551073E+04 E0= -.13551073E+04  d E =-.167849E+02
 BRION: g(F)=  0.199E+02 g(S)=  0.000E+00 retain N=  1 mean eig= 0.64
 eig:   0.638
 bond charge predicted
       N       E                     dE             d eps       ncg     rms          rms(c)
DAV:   1    -0.134790211326E+04    0.72052E+01   -0.17823E+03  1408   0.569E+01    0.123E+01
DAV:   2    -0.136036378771E+04   -0.12462E+02   -0.14827E+02  2504   0.257E+01    0.119E+01
DAV:   3    -0.136071778682E+04   -0.35400E+00   -0.10005E+01  2560   0.717E+00    0.952E+00
DAV:   4    -0.136029357244E+04    0.42421E+00   -0.28012E+00  2432   0.349E+00    0.531E+00
DAV:   5    -0.136012547596E+04    0.16810E+00   -0.12148E+00  2176   0.299E+00    0.292E+00
DAV:   6    -0.136006399788E+04    0.61478E-01   -0.17826E+00  2432   0.234E+00    0.126E+00
DAV:   7    -0.136008022148E+04   -0.16224E-01   -0.30930E-01  2472   0.115E+00    0.949E-01
DAV:   8    -0.136007613290E+04    0.40886E-02   -0.64666E-02  2624   0.506E-01    0.694E-01
DAV:   9    -0.136007584473E+04    0.28817E-03   -0.35608E-02  2280   0.337E-01    0.569E-01
DAV:  10    -0.136007274954E+04    0.30952E-02   -0.13730E-02  2520   0.230E-01    0.355E-01
DAV:  11    -0.136007186643E+04    0.88311E-03   -0.10228E-02  2464   0.176E-01    0.141E-01
DAV:  12    -0.136007187627E+04   -0.98389E-05   -0.19884E-03  2568   0.895E-02    0.598E-02
DAV:  13    -0.136007188975E+04   -0.13489E-04   -0.52031E-04  2448   0.471E-02    0.254E-02
DAV:  14    -0.136007190790E+04   -0.18150E-04   -0.21309E-04  2584   0.315E-02    0.238E-02
DAV:  15    -0.136007190196E+04    0.59425E-05   -0.65774E-05  2552   0.169E-02    0.128E-02
DAV:  16    -0.136007190265E+04   -0.69177E-06   -0.29597E-05  2328   0.100E-02    0.584E-03
DAV:  17    -0.136007190272E+04   -0.69194E-07   -0.27274E-06  1072   0.567E-03
   3 F= -.13600719E+04 E0= -.13600719E+04  d E =-.496461E+01
 BRION: g(F)=  0.427E+01 g(S)=  0.000E+00 retain N=  2 mean eig= 0.87
 eig:   0.421  1.319
 bond charge predicted
       N       E                     dE             d eps       ncg     rms          rms(c)
DAV:   1    -0.136115411870E+04   -0.10822E+01   -0.33613E+02  1368   0.260E+01    0.542E+00
DAV:   2    -0.136275844177E+04   -0.16043E+01   -0.18067E+01  2264   0.966E+00    0.228E+00
DAV:   3    -0.136282240410E+04   -0.63962E-01   -0.16283E+00  2616   0.237E+00    0.190E+00
DAV:   4    -0.136277173039E+04    0.50674E-01   -0.35313E-01  2624   0.125E+00    0.964E-01
DAV:   5    -0.136276529322E+04    0.64372E-02   -0.13298E-01  2376   0.764E-01    0.632E-01
DAV:   6    -0.136276335582E+04    0.19374E-02   -0.80206E-02  2560   0.546E-01    0.361E-01
DAV:   7    -0.136276337207E+04   -0.16257E-04   -0.26520E-02  2496   0.307E-01    0.255E-01
DAV:   8    -0.136276301640E+04    0.35567E-03   -0.62107E-03  2624   0.153E-01    0.138E-01
DAV:   9    -0.136276297394E+04    0.42464E-04   -0.26963E-03  2616   0.991E-02    0.840E-02
DAV:  10    -0.136276297655E+04   -0.26097E-05   -0.86521E-04  2328   0.636E-02    0.663E-02
DAV:  11    -0.136276296342E+04    0.13132E-04   -0.68538E-04  2368   0.441E-02    0.361E-02
DAV:  12    -0.136276295983E+04    0.35892E-05   -0.19716E-04  2472   0.256E-02    0.195E-02
DAV:  13    -0.136276295867E+04    0.11516E-05   -0.70328E-05  2528   0.161E-02    0.820E-03
DAV:  14    -0.136276295971E+04   -0.10337E-05   -0.14356E-05  2168   0.897E-03    0.467E-03
DAV:  15    -0.136276295995E+04   -0.24198E-06   -0.28225E-06  1128   0.488E-03
   4 F= -.13627630E+04 E0= -.13627630E+04  d E =-.269106E+01
 BRION: g(F)=  0.130E+01 g(S)=  0.000E+00 retain N=  3 mean eig= 1.17
 eig:   0.739  1.389  1.389
 bond charge predicted
       N       E                     dE             d eps       ncg     rms          rms(c)
DAV:   1    -0.136343414178E+04   -0.67118E+00   -0.17119E+02  1360   0.190E+01    0.264E+00
DAV:   2    -0.136424571584E+04   -0.81157E+00   -0.86748E+00  2296   0.710E+00    0.127E+00
DAV:   3    -0.136428304830E+04   -0.37332E-01   -0.67633E-01  2600   0.147E+00    0.104E+00
DAV:   4    -0.136426550645E+04    0.17542E-01   -0.94478E-02  2584   0.688E-01    0.615E-01
DAV:   5    -0.136425874855E+04    0.67579E-02   -0.50720E-02  2304   0.460E-01    0.291E-01
DAV:   6    -0.136425992445E+04   -0.11759E-02   -0.25712E-02  2592   0.316E-01    0.254E-01
DAV:   7    -0.136425950499E+04    0.41946E-03   -0.11413E-02  2448   0.198E-01    0.164E-01
DAV:   8    -0.136425939695E+04    0.10805E-03   -0.34537E-03  2592   0.113E-01    0.832E-02
DAV:   9    -0.136425936489E+04    0.32057E-04   -0.59212E-04  2624   0.542E-02    0.580E-02
DAV:  10    -0.136425939807E+04   -0.33176E-04   -0.59602E-04  2256   0.395E-02    0.497E-02
DAV:  11    -0.136425936530E+04    0.32761E-04   -0.23548E-04  2528   0.323E-02    0.208E-02
DAV:  12    -0.136425937094E+04   -0.56323E-05   -0.14023E-04  2384   0.210E-02    0.194E-02
DAV:  13    -0.136425936669E+04    0.42494E-05   -0.37756E-05  2208   0.129E-02    0.796E-03
DAV:  14    -0.136425936726E+04   -0.57506E-06   -0.11401E-05  1824   0.717E-03    0.302E-03
DAV:  15    -0.136425936748E+04   -0.21681E-06   -0.12287E-06   992   0.406E-03
   5 F= -.13642594E+04 E0= -.13642594E+04  d E =-.149641E+01
 BRION: g(F)=  0.744E+00 g(S)=  0.000E+00 retain N=  4 mean eig= 1.48
 eig:   1.962  1.962  1.006  1.006
 bond charge predicted
       N       E                     dE             d eps       ncg     rms          rms(c)
DAV:   1    -0.136471968795E+04   -0.46032E+00   -0.93137E+01  1352   0.140E+01    0.186E+00
DAV:   2    -0.136518875368E+04   -0.46907E+00   -0.50285E+00  2312   0.537E+00    0.943E-01
DAV:   3    -0.136521237473E+04   -0.23621E-01   -0.38240E-01  2576   0.117E+00    0.760E-01
DAV:   4    -0.136520482280E+04    0.75519E-02   -0.55072E-02  2624   0.522E-01    0.471E-01
DAV:   5    -0.136520142640E+04    0.33964E-02   -0.27551E-02  2368   0.340E-01    0.229E-01
DAV:   6    -0.136520202035E+04   -0.59395E-03   -0.13612E-02  2592   0.242E-01    0.212E-01
DAV:   7    -0.136520171840E+04    0.30195E-03   -0.79203E-03  2440   0.165E-01    0.130E-01
DAV:   8    -0.136520169776E+04    0.20642E-04   -0.25013E-03  2544   0.966E-02    0.649E-02
DAV:   9    -0.136520167708E+04    0.20680E-04   -0.40981E-04  2600   0.449E-02    0.447E-02
DAV:  10    -0.136520169975E+04   -0.22676E-04   -0.40421E-04  2296   0.330E-02    0.358E-02
DAV:  11    -0.136520168254E+04    0.17210E-04   -0.13171E-04  2512   0.262E-02    0.146E-02
DAV:  12    -0.136520168779E+04   -0.52506E-05   -0.89436E-05  2368   0.167E-02    0.173E-02
DAV:  13    -0.136520168354E+04    0.42534E-05   -0.31981E-05  2112   0.116E-02    0.634E-03
DAV:  14    -0.136520168383E+04   -0.29105E-06   -0.69995E-06  1640   0.664E-03
   6 F= -.13652017E+04 E0= -.13652017E+04  d E =-.942316E+00
 BRION: g(F)=  0.487E+00 g(S)=  0.000E+00 retain N=  5 mean eig= 1.92
 eig:   2.988  2.988  1.392  1.392  0.855
 bond charge predicted
       N       E                     dE             d eps       ncg     rms          rms(c)
DAV:   1    -0.136557530929E+04   -0.37363E+00   -0.10291E+02  1360   0.145E+01    0.179E+00
DAV:   2    -0.136608536852E+04   -0.51006E+00   -0.53734E+00  2312   0.557E+00    0.913E-01
DAV:   3    -0.136611309428E+04   -0.27726E-01   -0.41325E-01  2592   0.107E+00    0.724E-01
DAV:   4    -0.136610498142E+04    0.81129E-02   -0.47743E-02  2600   0.496E-01    0.449E-01
DAV:   5    -0.136610105543E+04    0.39260E-02   -0.23977E-02  2368   0.322E-01    0.185E-01
DAV:   6    -0.136610200201E+04   -0.94657E-03   -0.12546E-02  2592   0.216E-01    0.171E-01
DAV:   7    -0.136610175264E+04    0.24937E-03   -0.46175E-03  2472   0.133E-01    0.113E-01
DAV:   8    -0.136610173104E+04    0.21594E-04   -0.21435E-03  2520   0.840E-02    0.555E-02
DAV:   9    -0.136610170993E+04    0.21113E-04   -0.31392E-04  2512   0.397E-02    0.399E-02
DAV:  10    -0.136610171718E+04   -0.72454E-05   -0.25744E-04  2344   0.280E-02    0.253E-02
DAV:  11    -0.136610171403E+04    0.31485E-05   -0.73093E-05  2432   0.197E-02    0.117E-02
DAV:  12    -0.136610171707E+04   -0.30418E-05   -0.45054E-05  2336   0.122E-02    0.135E-02
DAV:  13    -0.136610171458E+04    0.24897E-05   -0.19086E-05  1944   0.886E-03    0.540E-03
DAV:  14    -0.136610171459E+04   -0.51514E-08   -0.42230E-06  1248   0.573E-03
   7 F= -.13661017E+04 E0= -.13661017E+04  d E =-.900031E+00
 BRION: g(F)=  0.330E+00 g(S)=  0.000E+00 retain N=  6 mean eig= 2.70
 eig:   5.155  5.155  1.888  1.888  1.057  1.057
 bond charge predicted
       N       E                     dE             d eps       ncg     rms          rms(c)
DAV:   1    -0.136637506809E+04   -0.27335E+00   -0.85848E+01  1360   0.131E+01    0.164E+00
DAV:   2    -0.136680078447E+04   -0.42572E+00   -0.44791E+00  2304   0.505E+00    0.808E-01
DAV:   3    -0.136682377808E+04   -0.22994E-01   -0.33808E-01  2592   0.963E-01    0.627E-01
DAV:   4    -0.136681683485E+04    0.69432E-02   -0.39520E-02  2560   0.452E-01    0.367E-01
DAV:   5    -0.136681465912E+04    0.21757E-02   -0.18343E-02  2400   0.275E-01    0.150E-01
DAV:   6    -0.136681528577E+04   -0.62665E-03   -0.73860E-03  2608   0.165E-01    0.119E-01
DAV:   7    -0.136681521846E+04    0.67308E-04   -0.20747E-03  2600   0.934E-02    0.758E-02
DAV:   8    -0.136681521591E+04    0.25580E-05   -0.89890E-04  2624   0.572E-02    0.410E-02
DAV:   9    -0.136681521015E+04    0.57525E-05   -0.15233E-04  2552   0.295E-02    0.271E-02
DAV:  10    -0.136681521586E+04   -0.57084E-05   -0.11226E-04  2592   0.192E-02    0.148E-02
DAV:  11    -0.136681521497E+04    0.89069E-06   -0.25996E-05  2408   0.117E-02    0.716E-03
DAV:  12    -0.136681521545E+04   -0.48055E-06   -0.92897E-06  1760   0.693E-03
   8 F= -.13668152E+04 E0= -.13668152E+04  d E =-.713501E+00
 BRION: g(F)=  0.251E+00 g(S)=  0.000E+00 retain N=  5 mean eig= 4.04
 eig:   7.509  7.509  2.024  2.024  1.113
 bond charge predicted
       N       E                     dE             d eps       ncg     rms          rms(c)
DAV:   1    -0.136699288569E+04   -0.17767E+00   -0.98909E+01  1376   0.141E+01    0.170E+00
DAV:   2    -0.136748689072E+04   -0.49401E+00   -0.52352E+00  2296   0.552E+00    0.831E-01
DAV:   3    -0.136751518423E+04   -0.28294E-01   -0.40423E-01  2576   0.104E+00    0.653E-01
DAV:   4    -0.136750838838E+04    0.67958E-02   -0.40085E-02  2568   0.464E-01    0.417E-01
DAV:   5    -0.136750473256E+04    0.36558E-02   -0.21342E-02  2320   0.286E-01    0.151E-01
DAV:   6    -0.136750554255E+04   -0.80999E-03   -0.94659E-03  2568   0.182E-01    0.136E-01
DAV:   7    -0.136750549741E+04    0.45140E-04   -0.31610E-03  2600   0.109E-01    0.865E-02
DAV:   8    -0.136750547037E+04    0.27038E-04   -0.10670E-03  2624   0.655E-02    0.461E-02
DAV:   9    -0.136750546857E+04    0.18029E-05   -0.19337E-04  2536   0.319E-02    0.333E-02
DAV:  10    -0.136750547532E+04   -0.67508E-05   -0.14431E-04  2600   0.219E-02    0.171E-02
DAV:  11    -0.136750547374E+04    0.15729E-05   -0.34173E-05  2416   0.132E-02    0.795E-03
DAV:  12    -0.136750547500E+04   -0.12550E-05   -0.16317E-05  1984   0.806E-03    0.661E-03
DAV:  13    -0.136750547430E+04    0.69870E-06   -0.14837E-06   992   0.530E-03
   9 F= -.13675055E+04 E0= -.13675055E+04  d E =-.690259E+00
 BRION: g(F)=  0.198E+00 g(S)=  0.000E+00 retain N=  4 mean eig= 5.11
 eig:   7.998  7.998  2.220  2.220
 bond charge predicted
       N       E                     dE             d eps       ncg     rms          rms(c)
DAV:   1    -0.136764795726E+04   -0.14248E+00   -0.76114E+01  1384   0.124E+01    0.148E+00
DAV:   2    -0.136803852133E+04   -0.39056E+00   -0.41413E+00  2320   0.496E+00    0.731E-01
DAV:   3    -0.136806000963E+04   -0.21488E-01   -0.31362E-01  2560   0.911E-01    0.567E-01
DAV:   4    -0.136805429238E+04    0.57173E-02   -0.31090E-02  2544   0.413E-01    0.371E-01
DAV:   5    -0.136805105220E+04    0.32402E-02   -0.17809E-02  2328   0.257E-01    0.130E-01
DAV:   6    -0.136805169469E+04   -0.64249E-03   -0.78556E-03  2568   0.165E-01    0.118E-01
DAV:   7    -0.136805168998E+04    0.47154E-05   -0.25241E-03  2600   0.965E-02    0.769E-02
DAV:   8    -0.136805165475E+04    0.35227E-04   -0.80415E-04  2624   0.579E-02    0.398E-02
DAV:   9    -0.136805165592E+04   -0.11658E-05   -0.15611E-04  2552   0.289E-02    0.277E-02
DAV:  10    -0.136805166166E+04   -0.57461E-05   -0.10323E-04  2608   0.190E-02    0.145E-02
DAV:  11    -0.136805166055E+04    0.11103E-05   -0.23547E-05  2352   0.110E-02    0.693E-03
DAV:  12    -0.136805166160E+04   -0.10443E-05   -0.13408E-05  1824   0.708E-03    0.551E-03
DAV:  13    -0.136805166106E+04    0.53614E-06   -0.11331E-06   992   0.482E-03
  10 F= -.13680517E+04 E0= -.13680517E+04  d E =-.546187E+00
 BRION: g(F)=  0.166E+00 g(S)=  0.000E+00 retain N=  2 mean eig= 5.48
 eig:   5.484  5.484
 bond charge predicted
       N       E                     dE             d eps       ncg     rms          rms(c)
DAV:   1    -0.136819485162E+04   -0.14319E+00   -0.60658E+01  1376   0.111E+01    0.131E+00
DAV:   2    -0.136850709144E+04   -0.31224E+00   -0.33214E+00  2312   0.443E+00    0.649E-01
DAV:   3    -0.136852454905E+04   -0.17458E-01   -0.25538E-01  2568   0.826E-01    0.510E-01
DAV:   4    -0.136852027026E+04    0.42788E-02   -0.24406E-02  2560   0.368E-01    0.343E-01
DAV:   5    -0.136851729461E+04    0.29757E-02   -0.13783E-02  2320   0.231E-01    0.125E-01
DAV:   6    -0.136851775259E+04   -0.45799E-03   -0.68881E-03  2520   0.156E-01    0.109E-01
DAV:   7    -0.136851774590E+04    0.66881E-05   -0.24284E-03  2552   0.927E-02    0.722E-02
DAV:   8    -0.136851772935E+04    0.16557E-04   -0.86774E-04  2624   0.585E-02    0.403E-02
DAV:   9    -0.136851772550E+04    0.38520E-05   -0.15796E-04  2544   0.286E-02    0.295E-02
DAV:  10    -0.136851772773E+04   -0.22385E-05   -0.11400E-04  2600   0.195E-02    0.145E-02
DAV:  11    -0.136851772769E+04    0.42040E-07   -0.27690E-05  2408   0.118E-02    0.635E-03
DAV:  12    -0.136851772846E+04   -0.77189E-06   -0.10124E-05  1792   0.714E-03    0.522E-03
DAV:  13    -0.136851772809E+04    0.37334E-06   -0.12378E-06   992   0.453E-03
  11 F= -.13685177E+04 E0= -.13685177E+04  d E =-.466067E+00
 BRION: g(F)=  0.144E+00 g(S)=  0.000E+00 retain N=  2 mean eig= 6.01
 eig:   6.012  6.012
 bond charge predicted
       N       E                     dE             d eps       ncg     rms          rms(c)
DAV:   1    -0.136864175388E+04   -0.12403E+00   -0.45151E+01  1376   0.962E+00    0.112E+00
DAV:   2    -0.136888052185E+04   -0.23877E+00   -0.25371E+00  2312   0.394E+00    0.562E-01
DAV:   3    -0.136889379928E+04   -0.13277E-01   -0.19394E-01  2568   0.720E-01    0.443E-01
DAV:   4    -0.136889064310E+04    0.31562E-02   -0.18266E-02  2584   0.322E-01    0.312E-01
DAV:   5    -0.136888794404E+04    0.26991E-02   -0.10360E-02  2312   0.204E-01    0.119E-01
DAV:   6    -0.136888822472E+04   -0.28068E-03   -0.62004E-03  2440   0.148E-01    0.100E-01
DAV:   7    -0.136888823596E+04   -0.11237E-04   -0.25181E-03  2464   0.909E-02    0.722E-02
DAV:   8    -0.136888821276E+04    0.23204E-04   -0.84316E-04  2624   0.580E-02    0.404E-02
DAV:   9    -0.136888820352E+04    0.92377E-05   -0.18603E-04  2432   0.288E-02    0.273E-02
DAV:  10    -0.136888820642E+04   -0.29024E-05   -0.10239E-04  2488   0.189E-02    0.151E-02
DAV:  11    -0.136888820632E+04    0.10109E-06   -0.33878E-05  2392   0.131E-02    0.727E-03
DAV:  12    -0.136888820690E+04   -0.58115E-06   -0.13347E-05  1904   0.836E-03    0.712E-03
DAV:  13    -0.136888820625E+04    0.64565E-06   -0.42403E-06  1248   0.534E-03
  12 F= -.13688882E+04 E0= -.13688882E+04  d E =-.370478E+00
 BRION: g(F)=  0.127E+00 g(S)=  0.000E+00 retain N=  2 mean eig= 6.50
 eig:   6.504  6.504
 bond charge predicted
       N       E                     dE             d eps       ncg     rms          rms(c)
DAV:   1    -0.136899279426E+04   -0.10459E+00   -0.44694E+01  1368   0.952E+00    0.110E+00
DAV:   2    -0.136922633823E+04   -0.23354E+00   -0.24741E+00  2320   0.385E+00    0.554E-01
DAV:   3    -0.136923951763E+04   -0.13179E-01   -0.18956E-01  2568   0.710E-01    0.441E-01
DAV:   4    -0.136923679377E+04    0.27239E-02   -0.17654E-02  2592   0.312E-01    0.317E-01
DAV:   5    -0.136923394218E+04    0.28516E-02   -0.94126E-03  2328   0.202E-01    0.129E-01
DAV:   6    -0.136923412431E+04   -0.18213E-03   -0.67286E-03  2392   0.153E-01    0.989E-02
DAV:   7    -0.136923414731E+04   -0.22993E-04   -0.26389E-03  2448   0.941E-02    0.768E-02
DAV:   8    -0.136923412102E+04    0.26284E-04   -0.92704E-04  2584   0.600E-02    0.430E-02
DAV:   9    -0.136923410797E+04    0.13052E-04   -0.24158E-04  2360   0.313E-02    0.274E-02
DAV:  10    -0.136923411213E+04   -0.41605E-05   -0.10452E-04  2480   0.195E-02    0.170E-02
DAV:  11    -0.136923411140E+04    0.72827E-06   -0.33754E-05  2392   0.131E-02    0.863E-03
DAV:  12    -0.136923411210E+04   -0.69814E-06   -0.17907E-05  2072   0.889E-03    0.836E-03
DAV:  13    -0.136923411122E+04    0.87699E-06   -0.70261E-06  1520   0.614E-03
  13 F= -.13692341E+04 E0= -.13692341E+04  d E =-.345905E+00
 BRION: g(F)=  0.114E+00 g(S)=  0.000E+00 retain N=  2 mean eig= 6.82
 eig:   6.819  6.819
 bond charge predicted
       N       E                     dE             d eps       ncg     rms          rms(c)
DAV:   1    -0.136929662354E+04   -0.62511E-01   -0.50227E+01  1376   0.101E+01    0.114E+00
DAV:   2    -0.136955784848E+04   -0.26122E+00   -0.27598E+00  2304   0.410E+00    0.583E-01
DAV:   3    -0.136957257675E+04   -0.14728E-01   -0.21081E-01  2560   0.750E-01    0.464E-01
DAV:   4    -0.136956959552E+04    0.29812E-02   -0.19613E-02  2576   0.330E-01    0.337E-01
DAV:   5    -0.136956633388E+04    0.32616E-02   -0.10186E-02  2320   0.210E-01    0.143E-01
DAV:   6    -0.136956643402E+04   -0.10014E-03   -0.77475E-03  2352   0.169E-01    0.103E-01
DAV:   7    -0.136956650640E+04   -0.72382E-04   -0.36589E-03  2424   0.108E-01    0.874E-02
DAV:   8    -0.136956646551E+04    0.40892E-04   -0.10535E-03  2600   0.662E-02    0.512E-02
DAV:   9    -0.136956644373E+04    0.21783E-04   -0.36968E-04  2528   0.367E-02    0.291E-02
DAV:  10    -0.136956645093E+04   -0.71992E-05   -0.12549E-04  2552   0.223E-02    0.206E-02
DAV:  11    -0.136956644962E+04    0.13067E-05   -0.48226E-05  2424   0.149E-02    0.117E-02
DAV:  12    -0.136956644953E+04    0.91037E-07   -0.26002E-05  2240   0.109E-02    0.105E-02
DAV:  13    -0.136956644865E+04    0.88394E-06   -0.13459E-05  1768   0.717E-03    0.588E-03
DAV:  14    -0.136956644830E+04    0.34722E-06   -0.32179E-06  1152   0.510E-03
  14 F= -.13695664E+04 E0= -.13695664E+04  d E =-.332337E+00
 BRION: g(F)=  0.100E+00 g(S)=  0.000E+00 retain N=  2 mean eig= 7.46
 eig:   7.455  7.455
 bond charge predicted
       N       E                     dE             d eps       ncg     rms          rms(c)
DAV:   1    -0.136961043797E+04   -0.43989E-01   -0.47479E+01  1368   0.974E+00    0.109E+00
DAV:   2    -0.136985371837E+04   -0.24328E+00   -0.25597E+00  2304   0.390E+00    0.559E-01
DAV:   3    -0.136986739540E+04   -0.13677E-01   -0.19387E-01  2600   0.740E-01    0.447E-01
DAV:   4    -0.136986467008E+04    0.27253E-02   -0.16993E-02  2608   0.308E-01    0.324E-01
DAV:   5    -0.136986162697E+04    0.30431E-02   -0.89858E-03  2328   0.199E-01    0.135E-01
DAV:   6    -0.136986176786E+04   -0.14089E-03   -0.71227E-03  2344   0.157E-01    0.981E-02
DAV:   7    -0.136986181251E+04   -0.44646E-04   -0.28686E-03  2424   0.971E-02    0.811E-02
DAV:   8    -0.136986177937E+04    0.33138E-04   -0.91596E-04  2600   0.601E-02    0.459E-02
DAV:   9    -0.136986176016E+04    0.19204E-04   -0.31409E-04  2400   0.344E-02    0.265E-02
DAV:  10    -0.136986176726E+04   -0.70918E-05   -0.10629E-04  2496   0.205E-02    0.199E-02
DAV:  11    -0.136986176448E+04    0.27737E-05   -0.41419E-05  2432   0.137E-02    0.966E-03
DAV:  12    -0.136986176511E+04   -0.63126E-06   -0.20219E-05  2072   0.934E-03    0.881E-03
DAV:  13    -0.136986176436E+04    0.75318E-06   -0.87201E-06  1632   0.624E-03
  15 F= -.13698618E+04 E0= -.13698618E+04  d E =-.295316E+00
 BRION: g(F)=  0.886E-01 g(S)=  0.000E+00 retain N=  1 mean eig= 6.45
 eig:   6.448
 bond charge predicted
       N       E                     dE             d eps       ncg     rms          rms(c)
DAV:   1    -0.136992702427E+04   -0.65259E-01   -0.26209E+01  1376   0.727E+00    0.798E-01
DAV:   2    -0.137005872110E+04   -0.13170E+00   -0.13810E+00  2288   0.287E+00    0.411E-01
DAV:   3    -0.137006648760E+04   -0.77665E-02   -0.10723E-01  2584   0.534E-01    0.331E-01
DAV:   4    -0.137006511727E+04    0.13703E-02   -0.90517E-03  2584   0.227E-01    0.247E-01
DAV:   5    -0.137006330553E+04    0.18117E-02   -0.51039E-03  2288   0.149E-01    0.104E-01
DAV:   6    -0.137006336414E+04   -0.58603E-04   -0.43474E-03  2280   0.126E-01    0.797E-02
DAV:   7    -0.137006339481E+04   -0.30678E-04   -0.20500E-03  2432   0.809E-02    0.658E-02
DAV:   8    -0.137006336974E+04    0.25078E-04   -0.56018E-04  2592   0.482E-02    0.362E-02
DAV:   9    -0.137006335470E+04    0.15036E-04   -0.20380E-04  2336   0.277E-02    0.202E-02
DAV:  10    -0.137006336040E+04   -0.57035E-05   -0.72824E-05  2368   0.161E-02    0.169E-02
DAV:  11    -0.137006335811E+04    0.22938E-05   -0.35549E-05  2208   0.122E-02    0.940E-03
DAV:  12    -0.137006335790E+04    0.21185E-06   -0.12654E-05  1768   0.814E-03    0.832E-03
DAV:  13    -0.137006335733E+04    0.56768E-06   -0.88422E-06  1568   0.588E-03
  16 F= -.13700634E+04 E0= -.13700634E+04  d E =-.201593E+00
 BRION: g(F)=  0.809E-01 g(S)=  0.000E+00 retain N=  2 mean eig= 5.61
 eig:   5.609  5.609
 bond charge predicted
       N       E                     dE             d eps       ncg     rms          rms(c)
DAV:   1    -0.136987152752E+04    0.19183E+00   -0.10490E+02  1368   0.144E+01    0.160E+00
DAV:   2    -0.137040495543E+04   -0.53343E+00   -0.55995E+00  2296   0.573E+00    0.830E-01
DAV:   3    -0.137043612483E+04   -0.31169E-01   -0.43382E-01  2592   0.108E+00    0.670E-01
DAV:   4    -0.137043081521E+04    0.53096E-02   -0.37242E-02  2608   0.451E-01    0.498E-01
DAV:   5    -0.137042365292E+04    0.71623E-02   -0.18117E-02  2352   0.285E-01    0.223E-01
DAV:   6    -0.137042355347E+04    0.99454E-04   -0.17209E-02  2288   0.244E-01    0.141E-01
DAV:   7    -0.137042374666E+04   -0.19320E-03   -0.76555E-03  2464   0.158E-01    0.127E-01
DAV:   8    -0.137042366789E+04    0.78772E-04   -0.19207E-03  2584   0.906E-02    0.812E-02
DAV:   9    -0.137042358911E+04    0.78779E-04   -0.95262E-04  2528   0.567E-02    0.397E-02
DAV:  10    -0.137042361361E+04   -0.24503E-04   -0.30375E-04  2576   0.350E-02    0.319E-02
DAV:  11    -0.137042360797E+04    0.56446E-05   -0.93054E-05  2456   0.205E-02    0.182E-02
DAV:  12    -0.137042360735E+04    0.62407E-06   -0.66794E-05  2320   0.159E-02    0.157E-02
DAV:  13    -0.137042360564E+04    0.17101E-05   -0.31503E-05  2168   0.104E-02    0.942E-03
DAV:  14    -0.137042360514E+04    0.49887E-06   -0.89878E-06  1728   0.598E-03
  17 F= -.13704236E+04 E0= -.13704236E+04  d E =-.360248E+00
 BRION: g(F)=  0.669E-01 g(S)=  0.000E+00 retain N=  2 mean eig= 5.76
 eig:   5.758  5.758
 bond charge predicted
       N       E                     dE             d eps       ncg     rms          rms(c)
DAV:   1    -0.137046671233E+04   -0.43107E-01   -0.20951E+01  1384   0.644E+00    0.700E-01
DAV:   2    -0.137057196113E+04   -0.10525E+00   -0.10984E+00  2288   0.252E+00    0.363E-01
DAV:   3    -0.137057824360E+04   -0.62825E-02   -0.85243E-02  2584   0.472E-01    0.288E-01
DAV:   4    -0.137057720958E+04    0.10340E-02   -0.70562E-03  2592   0.198E-01    0.215E-01
DAV:   5    -0.137057586809E+04    0.13415E-02   -0.35464E-03  2312   0.123E-01    0.920E-02
DAV:   6    -0.137057587221E+04   -0.41278E-05   -0.30298E-03  2288   0.100E-01    0.609E-02
DAV:   7    -0.137057590636E+04   -0.34146E-04   -0.13509E-03  2464   0.656E-02    0.517E-02
DAV:   8    -0.137057589367E+04    0.12687E-04   -0.36046E-04  2560   0.388E-02    0.313E-02
DAV:   9    -0.137057588156E+04    0.12113E-04   -0.13904E-04  2264   0.225E-02    0.173E-02
DAV:  10    -0.137057588512E+04   -0.35554E-05   -0.56612E-05  2304   0.140E-02    0.128E-02
DAV:  11    -0.137057588375E+04    0.13661E-05   -0.18029E-05  1872   0.942E-03    0.643E-03
DAV:  12    -0.137057588381E+04   -0.57888E-07   -0.95401E-06  1712   0.713E-03
  18 F= -.13705759E+04 E0= -.13705759E+04  d E =-.152279E+00
 BRION: g(F)=  0.596E-01 g(S)=  0.000E+00 retain N=  1 mean eig= 7.76
 eig:   7.764
 bond charge predicted
       N       E                     dE             d eps       ncg     rms          rms(c)
DAV:   1    -0.137045949984E+04    0.11638E+00   -0.73194E+01  1376   0.120E+01    0.131E+00
DAV:   2    -0.137082894805E+04   -0.36945E+00   -0.38574E+00  2304   0.467E+00    0.683E-01
DAV:   3    -0.137085058385E+04   -0.21636E-01   -0.29600E-01  2584   0.871E-01    0.545E-01
DAV:   4    -0.137084704465E+04    0.35392E-02   -0.24727E-02  2584   0.369E-01    0.406E-01
DAV:   5    -0.137084217591E+04    0.48687E-02   -0.12087E-02  2320   0.228E-01    0.174E-01
DAV:   6    -0.137084216942E+04    0.64941E-05   -0.10974E-02  2272   0.187E-01    0.110E-01
DAV:   7    -0.137084229210E+04   -0.12269E-03   -0.44723E-03  2472   0.119E-01    0.952E-02
DAV:   8    -0.137084225723E+04    0.34873E-04   -0.12013E-03  2600   0.705E-02    0.577E-02
DAV:   9    -0.137084220786E+04    0.49367E-04   -0.52970E-04  2320   0.433E-02    0.308E-02
DAV:  10    -0.137084222271E+04   -0.14845E-04   -0.19278E-04  2472   0.261E-02    0.267E-02
DAV:  11    -0.137084221461E+04    0.81031E-05   -0.91173E-05  2408   0.189E-02    0.107E-02
DAV:  12    -0.137084221631E+04   -0.17046E-05   -0.30710E-05  2200   0.116E-02    0.107E-02
DAV:  13    -0.137084221525E+04    0.10586E-05   -0.11930E-05  1720   0.670E-03    0.590E-03
DAV:  14    -0.137084221506E+04    0.19053E-06   -0.57248E-06  1496   0.547E-03
  19 F= -.13708422E+04 E0= -.13708422E+04  d E =-.266331E+00
 BRION: g(F)=  0.510E-01 g(S)=  0.000E+00
 BRIONS problems: POTIM should be increased
 retain N=  1 mean eig= 8.85
 eig:   8.852
 bond charge predicted
       N       E                     dE             d eps       ncg     rms          rms(c)
DAV:   1    -0.137087347113E+04   -0.31256E-01   -0.17894E+01  1384   0.602E+00    0.670E-01
DAV:   2    -0.137096423841E+04   -0.90767E-01   -0.95463E-01  2304   0.232E+00    0.344E-01
DAV:   3    -0.137096984584E+04   -0.56074E-02   -0.76606E-02  2600   0.450E-01    0.277E-01
DAV:   4    -0.137096886077E+04    0.98507E-03   -0.64019E-03  2600   0.193E-01    0.204E-01
DAV:   5    -0.137096766488E+04    0.11959E-02   -0.38358E-03  2272   0.123E-01    0.793E-02
DAV:   6    -0.137096775719E+04   -0.92311E-04   -0.27412E-03  2352   0.971E-02    0.701E-02
DAV:   7    -0.137096775037E+04    0.68256E-05   -0.11737E-03  2416   0.616E-02    0.495E-02
DAV:   8    -0.137096773869E+04    0.11675E-04   -0.38003E-04  2552   0.381E-02    0.269E-02
DAV:   9    -0.137096773126E+04    0.74292E-05   -0.91327E-05  2208   0.197E-02    0.179E-02
DAV:  10    -0.137096773228E+04   -0.10136E-05   -0.38751E-05  2224   0.117E-02    0.104E-02
DAV:  11    -0.137096773168E+04    0.60070E-06   -0.81826E-06  1480   0.774E-03
  20 F= -.13709677E+04 E0= -.13709677E+04  d E =-.125517E+00
 BRION: g(F)=  0.474E-01 g(S)=  0.000E+00 retain N=  1 mean eig= 1.50
 eig:   1.497
