 running on  160 total cores
 distrk:  each k-point on  160 cores,    1 groups
 distr:  one band on   20 cores,    8 groups
 using from now: INCAR     
 vasp.5.4.4.18Apr17-6-g9f103f2a35 (build May 01 2020 14:22:42) gamma-only       
  
 POSCAR found type information on POSCAR  O  La Zr Li Al
 POSCAR found :  5 types and     192 ions
 scaLAPACK will be used
 LDA part: xc-table for Pade appr. of Perdew
 POSCAR, INCAR and KPOINTS ok, starting setup
 FFT: planning ...
 WAVECAR not read
 WARNING: random wavefunctions but no delay for mixing, default for NELMDL
 entering main loop
       N       E                     dE             d eps       ncg     rms          rms(c)
DAV:   1     0.254026915914E+05    0.25403E+05   -0.41948E+05  1600   0.253E+03
DAV:   2     0.958406032729E+04   -0.15819E+05   -0.14624E+05  1440   0.709E+02
DAV:   3     0.269970057333E+04   -0.68844E+04   -0.62875E+04  1528   0.358E+02
DAV:   4    -0.374821718907E+03   -0.30745E+04   -0.28826E+04  2040   0.228E+02
DAV:   5    -0.142861463057E+04   -0.10538E+04   -0.10146E+04  2536   0.139E+02    0.117E+02
DAV:   6    -0.131451848023E+04    0.11410E+03   -0.14527E+03  2456   0.657E+01    0.502E+01
DAV:   7    -0.133678029670E+04   -0.22262E+02   -0.38124E+02  2552   0.334E+01    0.246E+01
DAV:   8    -0.135174169867E+04   -0.14961E+02   -0.33023E+02  2480   0.289E+01    0.309E+01
DAV:   9    -0.133881220894E+04    0.12929E+02   -0.85875E+01  2440   0.171E+01    0.789E+00
DAV:  10    -0.134063416925E+04   -0.18220E+01   -0.16491E+01  2584   0.951E+00    0.933E+00
DAV:  11    -0.134046959091E+04    0.16458E+00   -0.11019E+01  2624   0.529E+00    0.408E+00
DAV:  12    -0.134035732395E+04    0.11227E+00   -0.32209E+00  2592   0.416E+00    0.265E+00
DAV:  13    -0.134044345511E+04   -0.86131E-01   -0.10200E+00  2544   0.191E+00    0.195E+00
DAV:  14    -0.134042963952E+04    0.13816E-01   -0.39677E-01  2616   0.128E+00    0.128E+00
DAV:  15    -0.134044348944E+04   -0.13850E-01   -0.14628E-01  2416   0.774E-01    0.117E+00
DAV:  16    -0.134044156965E+04    0.19198E-02   -0.41983E-02  2568   0.430E-01    0.794E-01
DAV:  17    -0.134043569954E+04    0.58701E-02   -0.35369E-02  2456   0.350E-01    0.388E-01
DAV:  18    -0.134043619633E+04   -0.49679E-03   -0.70031E-03  2544   0.181E-01    0.242E-01
DAV:  19    -0.134043578429E+04    0.41204E-03   -0.40293E-03  2496   0.114E-01    0.197E-01
DAV:  20    -0.134043580113E+04   -0.16832E-04   -0.12348E-03  2536   0.755E-02    0.642E-02
DAV:  21    -0.134043580699E+04   -0.58638E-05   -0.33085E-04  2520   0.395E-02    0.742E-02
DAV:  22    -0.134043581811E+04   -0.11118E-04   -0.12389E-04  2472   0.258E-02    0.319E-02
DAV:  23    -0.134043582253E+04   -0.44265E-05   -0.33025E-05  2208   0.107E-02    0.220E-02
DAV:  24    -0.134043582653E+04   -0.39986E-05   -0.11143E-05  1488   0.920E-03    0.137E-02
DAV:  25    -0.134043582882E+04   -0.22849E-05   -0.11796E-05  1552   0.662E-03    0.119E-02
DAV:  26    -0.134043582792E+04    0.89601E-06   -0.17835E-06  1032   0.515E-03
   1 F= -.13404358E+04 E0= -.13404358E+04  d E =-.134044E+04
 BRION: g(F)=  0.349E+02 g(S)=  0.000E+00
 bond charge predicted
       N       E                     dE             d eps       ncg     rms          rms(c)
DAV:   1    -0.133326624567E+04    0.71696E+01   -0.37699E+03  1656   0.942E+01    0.155E+01
DAV:   2    -0.135766220465E+04   -0.24396E+02   -0.28758E+02  2568   0.416E+01    0.882E+00
DAV:   3    -0.135774795251E+04   -0.85748E-01   -0.18569E+01  2616   0.109E+01    0.660E+00
DAV:   4    -0.135707146292E+04    0.67649E+00   -0.40815E+00  2624   0.425E+00    0.373E+00
DAV:   5    -0.135677634408E+04    0.29512E+00   -0.11916E+00  2224   0.282E+00    0.204E+00
DAV:   6    -0.135671789406E+04    0.58450E-01   -0.11768E+00  2296   0.238E+00    0.110E+00
DAV:   7    -0.135676265130E+04   -0.44757E-01   -0.75647E-01  2240   0.152E+00    0.106E+00
DAV:   8    -0.135676238498E+04    0.26632E-03   -0.12230E-01  2592   0.655E-01    0.793E-01
DAV:   9    -0.135675686155E+04    0.55234E-02   -0.88018E-02  2608   0.556E-01    0.406E-01
DAV:  10    -0.135675899540E+04   -0.21339E-02   -0.34777E-02  2328   0.362E-01    0.413E-01
DAV:  11    -0.135675646228E+04    0.25331E-02   -0.15078E-02  2528   0.270E-01    0.197E-01
DAV:  12    -0.135675755534E+04   -0.10931E-02   -0.20719E-02  2320   0.220E-01    0.212E-01
DAV:  13    -0.135675685360E+04    0.70173E-03   -0.37838E-03  2480   0.127E-01    0.834E-02
DAV:  14    -0.135675688571E+04   -0.32103E-04   -0.12123E-03  2536   0.632E-02    0.323E-02
DAV:  15    -0.135675690106E+04   -0.15355E-04   -0.18175E-04  2600   0.269E-02    0.170E-02
DAV:  16    -0.135675690295E+04   -0.18851E-05   -0.72103E-05  2504   0.162E-02    0.953E-03
DAV:  17    -0.135675690305E+04   -0.10010E-06   -0.12827E-05  2016   0.797E-03    0.739E-03
DAV:  18    -0.135675690275E+04    0.29078E-06   -0.59388E-06  1480   0.522E-03
   2 F= -.13567569E+04 E0= -.13567569E+04  d E =-.163211E+02
 BRION: g(F)=  0.116E+02 g(S)=  0.000E+00 retain N=  1 mean eig= 0.73
 eig:   0.728
 bond charge predicted
       N       E                     dE             d eps       ncg     rms          rms(c)
DAV:   1    -0.135386545464E+04    0.28914E+01   -0.11264E+03  1456   0.475E+01    0.861E+00
DAV:   2    -0.136081424977E+04   -0.69488E+01   -0.84517E+01  2464   0.209E+01    0.697E+00
DAV:   3    -0.136113881420E+04   -0.32456E+00   -0.69418E+00  2568   0.600E+00    0.558E+00
DAV:   4    -0.136093661594E+04    0.20220E+00   -0.15319E+00  2592   0.262E+00    0.347E+00
DAV:   5    -0.136086620034E+04    0.70416E-01   -0.90953E-01  2136   0.210E+00    0.213E+00
DAV:   6    -0.136082624849E+04    0.39952E-01   -0.59537E-01  2512   0.151E+00    0.143E+00
DAV:   7    -0.136081991480E+04    0.63337E-02   -0.30332E-01  2448   0.988E-01    0.664E-01
DAV:   8    -0.136082030824E+04   -0.39343E-03   -0.36970E-02  2608   0.403E-01    0.484E-01
DAV:   9    -0.136081910556E+04    0.12027E-02   -0.13982E-02  2528   0.238E-01    0.312E-01
DAV:  10    -0.136081853959E+04    0.56597E-03   -0.53646E-03  2344   0.165E-01    0.225E-01
DAV:  11    -0.136081832289E+04    0.21670E-03   -0.93842E-03  2336   0.146E-01    0.763E-02
DAV:  12    -0.136081829157E+04    0.31319E-04   -0.10006E-03  2520   0.762E-02    0.426E-02
DAV:  13    -0.136081830959E+04   -0.18018E-04   -0.48335E-04  2568   0.395E-02    0.221E-02
DAV:  14    -0.136081831209E+04   -0.24971E-05   -0.12392E-04  2496   0.239E-02    0.122E-02
DAV:  15    -0.136081831620E+04   -0.41123E-05   -0.48417E-05  2296   0.133E-02    0.114E-02
DAV:  16    -0.136081831427E+04    0.19295E-05   -0.52763E-06  1200   0.686E-03    0.784E-03
DAV:  17    -0.136081831506E+04   -0.79387E-06   -0.26140E-05  1768   0.897E-03    0.599E-03
DAV:  18    -0.136081831438E+04    0.67921E-06   -0.27824E-06  1080   0.588E-03
   3 F= -.13608183E+04 E0= -.13608183E+04  d E =-.406141E+01
 BRION: g(F)=  0.328E+01 g(S)=  0.000E+00 retain N=  2 mean eig= 0.24
 eig:   0.339  0.144
 bond charge predicted
       N       E                     dE             d eps       ncg     rms          rms(c)
DAV:   1    -0.136178810948E+04   -0.96979E+00   -0.28914E+02  1384   0.250E+01    0.454E+00
DAV:   2    -0.136323070209E+04   -0.14426E+01   -0.16317E+01  2328   0.983E+00    0.200E+00
DAV:   3    -0.136327610942E+04   -0.45407E-01   -0.13656E+00  2600   0.222E+00    0.171E+00
DAV:   4    -0.136323445975E+04    0.41650E-01   -0.26785E-01  2608   0.114E+00    0.931E-01
DAV:   5    -0.136322096803E+04    0.13492E-01   -0.10806E-01  2264   0.695E-01    0.497E-01
DAV:   6    -0.136322137892E+04   -0.41089E-03   -0.60557E-02  2560   0.502E-01    0.384E-01
DAV:   7    -0.136322107255E+04    0.30637E-03   -0.36286E-02  2296   0.333E-01    0.259E-01
DAV:   8    -0.136322102142E+04    0.51130E-04   -0.10013E-02  2512   0.186E-01    0.141E-01
DAV:   9    -0.136322088733E+04    0.13409E-03   -0.23157E-03  2568   0.103E-01    0.960E-02
DAV:  10    -0.136322105206E+04   -0.16473E-03   -0.27725E-03  2296   0.873E-02    0.109E-01
DAV:  11    -0.136322088165E+04    0.17041E-03   -0.12838E-03  2512   0.715E-02    0.361E-02
DAV:  12    -0.136322090847E+04   -0.26818E-04   -0.49116E-04  2520   0.421E-02    0.315E-02
DAV:  13    -0.136322090045E+04    0.80210E-05   -0.15878E-04  2504   0.244E-02    0.114E-02
DAV:  14    -0.136322090172E+04   -0.12724E-05   -0.31937E-05  2328   0.118E-02    0.644E-03
DAV:  15    -0.136322090271E+04   -0.98877E-06   -0.10240E-05  1800   0.661E-03    0.514E-03
DAV:  16    -0.136322090244E+04    0.27301E-06   -0.14146E-06  1000   0.491E-03
   4 F= -.13632209E+04 E0= -.13632209E+04  d E =-.240259E+01
 BRION: g(F)=  0.107E+01 g(S)=  0.000E+00 retain N=  3 mean eig= 1.25
 eig:   0.845  1.450  1.450
 bond charge predicted
       N       E                     dE             d eps       ncg     rms          rms(c)
DAV:   1    -0.136380650704E+04   -0.58560E+00   -0.13541E+02  1360   0.169E+01    0.220E+00
DAV:   2    -0.136447290061E+04   -0.66639E+00   -0.71968E+00  2312   0.644E+00    0.112E+00
DAV:   3    -0.136450601715E+04   -0.33117E-01   -0.57414E-01  2608   0.133E+00    0.936E-01
DAV:   4    -0.136449402465E+04    0.11993E-01   -0.73405E-02  2592   0.616E-01    0.611E-01
DAV:   5    -0.136448590928E+04    0.81154E-02   -0.38896E-02  2288   0.389E-01    0.268E-01
DAV:   6    -0.136448653184E+04   -0.62256E-03   -0.21767E-02  2392   0.298E-01    0.251E-01
DAV:   7    -0.136448617464E+04    0.35720E-03   -0.14009E-02  2320   0.213E-01    0.168E-01
DAV:   8    -0.136448616480E+04    0.98380E-05   -0.57952E-03  2584   0.139E-01    0.101E-01
DAV:   9    -0.136448610156E+04    0.63239E-04   -0.97318E-04  2560   0.685E-02    0.709E-02
DAV:  10    -0.136448610505E+04   -0.34817E-05   -0.67430E-04  2544   0.427E-02    0.438E-02
DAV:  11    -0.136448609854E+04    0.65091E-05   -0.31056E-04  2440   0.357E-02    0.252E-02
DAV:  12    -0.136448609491E+04    0.36253E-05   -0.10659E-04  2384   0.237E-02    0.214E-02
DAV:  13    -0.136448609220E+04    0.27083E-05   -0.74200E-05  2192   0.147E-02    0.109E-02
DAV:  14    -0.136448609203E+04    0.17116E-06   -0.21154E-05  1968   0.869E-03    0.590E-03
DAV:  15    -0.136448609199E+04    0.44165E-07   -0.18128E-06  1040   0.483E-03
   5 F= -.13644861E+04 E0= -.13644861E+04  d E =-.126519E+01
 BRION: g(F)=  0.580E+00 g(S)=  0.000E+00 retain N=  4 mean eig= 1.71
 eig:   2.337  2.337  1.076  1.076
 bond charge predicted
       N       E                     dE             d eps       ncg     rms          rms(c)
DAV:   1    -0.136486784235E+04   -0.38175E+00   -0.72470E+01  1384   0.124E+01    0.157E+00
DAV:   2    -0.136524767047E+04   -0.37983E+00   -0.40730E+00  2312   0.493E+00    0.783E-01
DAV:   3    -0.136527026468E+04   -0.22594E-01   -0.33118E-01  2576   0.980E-01    0.656E-01
DAV:   4    -0.136526547218E+04    0.47925E-02   -0.36985E-02  2624   0.451E-01    0.456E-01
DAV:   5    -0.136526126853E+04    0.42037E-02   -0.20161E-02  2320   0.284E-01    0.198E-01
DAV:   6    -0.136526165028E+04   -0.38176E-03   -0.12288E-02  2376   0.221E-01    0.182E-01
DAV:   7    -0.136526152917E+04    0.12111E-03   -0.75533E-03  2384   0.157E-01    0.130E-01
DAV:   8    -0.136526146701E+04    0.62165E-04   -0.28899E-03  2600   0.102E-01    0.722E-02
DAV:   9    -0.136526143697E+04    0.30039E-04   -0.61000E-04  2552   0.504E-02    0.469E-02
DAV:  10    -0.136526144414E+04   -0.71713E-05   -0.28346E-04  2624   0.304E-02    0.301E-02
DAV:  11    -0.136526144571E+04   -0.15689E-05   -0.13237E-04  2448   0.238E-02    0.210E-02
DAV:  12    -0.136526144182E+04    0.38838E-05   -0.52029E-05  2344   0.169E-02    0.175E-02
DAV:  13    -0.136526143969E+04    0.21340E-05   -0.45281E-05  2192   0.114E-02    0.787E-03
DAV:  14    -0.136526143965E+04    0.40178E-07   -0.10266E-05  1776   0.635E-03    0.314E-03
DAV:  15    -0.136526143980E+04   -0.14524E-06   -0.12919E-06   984   0.393E-03
   6 F= -.13652614E+04 E0= -.13652614E+04  d E =-.775348E+00
 BRION: g(F)=  0.372E+00 g(S)=  0.000E+00 retain N=  5 mean eig= 2.43
 eig:   4.281  4.281  1.312  1.312  0.979
 bond charge predicted
       N       E                     dE             d eps       ncg     rms          rms(c)
DAV:   1    -0.136550819499E+04   -0.24676E+00   -0.91392E+01  1384   0.138E+01    0.169E+00
DAV:   2    -0.136599737261E+04   -0.48918E+00   -0.51675E+00  2296   0.572E+00    0.849E-01
DAV:   3    -0.136602495990E+04   -0.27587E-01   -0.39655E-01  2576   0.105E+00    0.679E-01
DAV:   4    -0.136601838528E+04    0.65746E-02   -0.42302E-02  2616   0.490E-01    0.456E-01
DAV:   5    -0.136601399708E+04    0.43882E-02   -0.20731E-02  2336   0.296E-01    0.186E-01
DAV:   6    -0.136601467792E+04   -0.68083E-03   -0.12911E-02  2464   0.219E-01    0.151E-01
DAV:   7    -0.136601464751E+04    0.30407E-04   -0.60548E-03  2416   0.144E-01    0.115E-01
DAV:   8    -0.136601461786E+04    0.29646E-04   -0.22475E-03  2624   0.899E-02    0.639E-02
DAV:   9    -0.136601458666E+04    0.31205E-04   -0.48090E-04  2568   0.458E-02    0.430E-02
DAV:  10    -0.136601459482E+04   -0.81653E-05   -0.28495E-04  2600   0.305E-02    0.287E-02
DAV:  11    -0.136601459289E+04    0.19310E-05   -0.12534E-04  2424   0.227E-02    0.158E-02
DAV:  12    -0.136601459191E+04    0.97931E-06   -0.38734E-05  2336   0.152E-02    0.134E-02
DAV:  13    -0.136601459115E+04    0.76319E-06   -0.34008E-05  2128   0.987E-03    0.691E-03
DAV:  14    -0.136601459111E+04    0.42972E-07   -0.86018E-06  1736   0.584E-03
   7 F= -.13660146E+04 E0= -.13660146E+04  d E =-.753151E+00
 BRION: g(F)=  0.247E+00 g(S)=  0.000E+00 retain N=  6 mean eig= 3.25
 eig:   6.567  6.567  1.992  1.992  1.198  1.198
 bond charge predicted
       N       E                     dE             d eps       ncg     rms          rms(c)
DAV:   1    -0.136621164524E+04   -0.19705E+00   -0.67827E+01  1384   0.118E+01    0.145E+00
DAV:   2    -0.136657290447E+04   -0.36126E+00   -0.38295E+00  2296   0.486E+00    0.721E-01
DAV:   3    -0.136659412751E+04   -0.21223E-01   -0.29651E-01  2576   0.895E-01    0.584E-01
DAV:   4    -0.136658978961E+04    0.43379E-02   -0.30857E-02  2608   0.413E-01    0.394E-01
DAV:   5    -0.136658668376E+04    0.31059E-02   -0.15146E-02  2360   0.250E-01    0.155E-01
DAV:   6    -0.136658724285E+04   -0.55909E-03   -0.86508E-03  2464   0.175E-01    0.130E-01
DAV:   7    -0.136658719685E+04    0.46000E-04   -0.38226E-03  2456   0.115E-01    0.916E-02
DAV:   8    -0.136658717893E+04    0.17923E-04   -0.15260E-03  2608   0.745E-02    0.504E-02
DAV:   9    -0.136658716406E+04    0.14864E-04   -0.29894E-04  2424   0.370E-02    0.368E-02
DAV:  10    -0.136658716777E+04   -0.37089E-05   -0.18129E-04  2488   0.244E-02    0.222E-02
DAV:  11    -0.136658716666E+04    0.11157E-05   -0.67114E-05  2384   0.177E-02    0.121E-02
DAV:  12    -0.136658716723E+04   -0.57732E-06   -0.29045E-05  2312   0.120E-02    0.111E-02
DAV:  13    -0.136658716619E+04    0.10407E-05   -0.17893E-05  1832   0.785E-03    0.545E-03
DAV:  14    -0.136658716605E+04    0.14501E-06   -0.40917E-06  1264   0.569E-03
   8 F= -.13665872E+04 E0= -.13665872E+04  d E =-.572575E+00
 BRION: g(F)=  0.185E+00 g(S)=  0.000E+00 retain N=  5 mean eig= 4.23
 eig:   7.685  7.685  2.289  2.289  1.217
 bond charge predicted
       N       E                     dE             d eps       ncg     rms          rms(c)
DAV:   1    -0.136676845830E+04   -0.18129E+00   -0.44152E+01  1376   0.953E+00    0.113E+00
DAV:   2    -0.136700280767E+04   -0.23435E+00   -0.24885E+00  2304   0.388E+00    0.569E-01
DAV:   3    -0.136701662673E+04   -0.13819E-01   -0.19440E-01  2576   0.723E-01    0.449E-01
DAV:   4    -0.136701362408E+04    0.30027E-02   -0.19138E-02  2584   0.329E-01    0.304E-01
DAV:   5    -0.136701155256E+04    0.20715E-02   -0.96244E-03  2320   0.197E-01    0.114E-01
DAV:   6    -0.136701186844E+04   -0.31588E-03   -0.54058E-03  2488   0.137E-01    0.938E-02
DAV:   7    -0.136701187959E+04   -0.11151E-04   -0.21785E-03  2472   0.873E-02    0.667E-02
DAV:   8    -0.136701187228E+04    0.73112E-05   -0.80497E-04  2600   0.547E-02    0.376E-02
DAV:   9    -0.136701186466E+04    0.76178E-05   -0.15662E-04  2496   0.277E-02    0.274E-02
DAV:  10    -0.136701186645E+04   -0.17941E-05   -0.10492E-04  2544   0.187E-02    0.154E-02
DAV:  11    -0.136701186609E+04    0.36378E-06   -0.31420E-05  2360   0.125E-02    0.759E-03
DAV:  12    -0.136701186650E+04   -0.41140E-06   -0.11456E-05  1792   0.803E-03    0.624E-03
DAV:  13    -0.136701186614E+04    0.36582E-06   -0.39833E-06  1216   0.545E-03
   9 F= -.13670119E+04 E0= -.13670119E+04  d E =-.424700E+00
 BRION: g(F)=  0.151E+00 g(S)=  0.000E+00 retain N=  3 mean eig= 5.56
 eig:   7.141  7.141  2.387
 bond charge predicted
       N       E                     dE             d eps       ncg     rms          rms(c)
DAV:   1    -0.136717914944E+04   -0.16728E+00   -0.34954E+01  1376   0.845E+00    0.994E-01
DAV:   2    -0.136736572639E+04   -0.18658E+00   -0.19831E+00  2304   0.345E+00    0.500E-01
DAV:   3    -0.136737713648E+04   -0.11410E-01   -0.15688E-01  2584   0.647E-01    0.407E-01
DAV:   4    -0.136737503202E+04    0.21045E-02   -0.14213E-02  2608   0.287E-01    0.292E-01
DAV:   5    -0.136737276157E+04    0.22705E-02   -0.77929E-03  2312   0.183E-01    0.113E-01
DAV:   6    -0.136737299795E+04   -0.23638E-03   -0.56448E-03  2416   0.138E-01    0.964E-02
DAV:   7    -0.136737298758E+04    0.10375E-04   -0.21514E-03  2440   0.861E-02    0.701E-02
DAV:   8    -0.136737296919E+04    0.18384E-04   -0.79757E-04  2568   0.537E-02    0.363E-02
DAV:   9    -0.136737295732E+04    0.11875E-04   -0.18431E-04  2288   0.284E-02    0.249E-02
DAV:  10    -0.136737295908E+04   -0.17597E-05   -0.66949E-05  2448   0.160E-02    0.151E-02
DAV:  11    -0.136737295830E+04    0.78014E-06   -0.25477E-05  2368   0.109E-02    0.759E-03
DAV:  12    -0.136737295884E+04   -0.53881E-06   -0.11106E-05  1776   0.765E-03    0.697E-03
DAV:  13    -0.136737295824E+04    0.59397E-06   -0.37319E-06  1200   0.529E-03
  10 F= -.13673730E+04 E0= -.13673730E+04  d E =-.361092E+00
 BRION: g(F)=  0.131E+00 g(S)=  0.000E+00 retain N=  3 mean eig= 5.99
 eig:   7.799  7.799  2.371
 bond charge predicted
       N       E                     dE             d eps       ncg     rms          rms(c)
DAV:   1    -0.136752693683E+04   -0.15398E+00   -0.30884E+01  1376   0.795E+00    0.930E-01
DAV:   2    -0.136768856735E+04   -0.16163E+00   -0.17197E+00  2312   0.318E+00    0.464E-01
DAV:   3    -0.136769844088E+04   -0.98735E-02   -0.13641E-01  2576   0.609E-01    0.374E-01
DAV:   4    -0.136769660996E+04    0.18309E-02   -0.12527E-02  2608   0.267E-01    0.267E-01
DAV:   5    -0.136769469900E+04    0.19110E-02   -0.70596E-03  2264   0.170E-01    0.996E-02
DAV:   6    -0.136769492025E+04   -0.22125E-03   -0.44192E-03  2440   0.121E-01    0.905E-02
DAV:   7    -0.136769489915E+04    0.21095E-04   -0.15517E-03  2472   0.742E-02    0.622E-02
DAV:   8    -0.136769487946E+04    0.19690E-04   -0.63045E-04  2568   0.479E-02    0.319E-02
DAV:   9    -0.136769487374E+04    0.57264E-05   -0.12369E-04  2288   0.240E-02    0.225E-02
DAV:  10    -0.136769487459E+04   -0.85832E-06   -0.51889E-05  2424   0.140E-02    0.111E-02
DAV:  11    -0.136769487469E+04   -0.94267E-07   -0.12322E-05  2000   0.869E-03    0.575E-03
DAV:  12    -0.136769487525E+04   -0.56159E-06   -0.94778E-06  1664   0.594E-03
  11 F= -.13676949E+04 E0= -.13676949E+04  d E =-.321917E+00
 BRION: g(F)=  0.116E+00 g(S)=  0.000E+00 retain N=  3 mean eig= 5.75
 eig:   7.471  7.471  2.317
 bond charge predicted
       N       E                     dE             d eps       ncg     rms          rms(c)
DAV:   1    -0.136782893362E+04   -0.13406E+00   -0.25044E+01  1376   0.715E+00    0.828E-01
DAV:   2    -0.136796101021E+04   -0.13208E+00   -0.14027E+00  2312   0.287E+00    0.415E-01
DAV:   3    -0.136796885634E+04   -0.78461E-02   -0.10997E-01  2576   0.552E-01    0.334E-01
DAV:   4    -0.136796726779E+04    0.15886E-02   -0.10073E-02  2600   0.242E-01    0.238E-01
DAV:   5    -0.136796565100E+04    0.16168E-02   -0.60604E-03  2280   0.159E-01    0.884E-02
DAV:   6    -0.136796584637E+04   -0.19537E-03   -0.38298E-03  2456   0.113E-01    0.852E-02
DAV:   7    -0.136796582716E+04    0.19209E-04   -0.12818E-03  2496   0.679E-02    0.586E-02
DAV:   8    -0.136796580633E+04    0.20827E-04   -0.51314E-04  2560   0.433E-02    0.283E-02
DAV:   9    -0.136796580084E+04    0.54870E-05   -0.10143E-04  2256   0.219E-02    0.196E-02
DAV:  10    -0.136796580155E+04   -0.70897E-06   -0.37534E-05  2448   0.125E-02    0.957E-03
DAV:  11    -0.136796580147E+04    0.80865E-07   -0.91506E-06  1744   0.765E-03
  12 F= -.13679658E+04 E0= -.13679658E+04  d E =-.270926E+00
 BRION: g(F)=  0.105E+00 g(S)=  0.000E+00 retain N=  3 mean eig= 5.57
 eig:   7.248  7.248  2.209
 bond charge predicted
       N       E                     dE             d eps       ncg     rms          rms(c)
DAV:   1    -0.136808949222E+04   -0.12369E+00   -0.24500E+01  1376   0.701E+00    0.795E-01
DAV:   2    -0.136821407856E+04   -0.12459E+00   -0.13162E+00  2304   0.276E+00    0.399E-01
DAV:   3    -0.136822150202E+04   -0.74235E-02   -0.10354E-01  2576   0.524E-01    0.322E-01
DAV:   4    -0.136822008701E+04    0.14150E-02   -0.89820E-03  2600   0.226E-01    0.236E-01
DAV:   5    -0.136821823577E+04    0.18512E-02   -0.53590E-03  2288   0.158E-01    0.914E-02
DAV:   6    -0.136821838194E+04   -0.14617E-03   -0.43626E-03  2360   0.122E-01    0.810E-02
DAV:   7    -0.136821837841E+04    0.35290E-05   -0.13562E-03  2440   0.693E-02    0.625E-02
DAV:   8    -0.136821836193E+04    0.16485E-04   -0.49835E-04  2560   0.417E-02    0.322E-02
DAV:   9    -0.136821834280E+04    0.19130E-04   -0.16279E-04  2240   0.255E-02    0.182E-02
DAV:  10    -0.136821834636E+04   -0.35670E-05   -0.51328E-05  2280   0.139E-02    0.148E-02
DAV:  11    -0.136821834371E+04    0.26491E-05   -0.19296E-05  2008   0.913E-03    0.616E-03
DAV:  12    -0.136821834397E+04   -0.25246E-06   -0.76946E-06  1552   0.669E-03
  13 F= -.13682183E+04 E0= -.13682183E+04  d E =-.252542E+00
 BRION: g(F)=  0.957E-01 g(S)=  0.000E+00 retain N=  3 mean eig= 6.01
 eig:   7.974  7.974  2.084
 bond charge predicted
       N       E                     dE             d eps       ncg     rms          rms(c)
DAV:   1    -0.136832512737E+04   -0.10678E+00   -0.24668E+01  1376   0.707E+00    0.800E-01
DAV:   2    -0.136845034452E+04   -0.12522E+00   -0.13243E+00  2312   0.278E+00    0.402E-01
DAV:   3    -0.136845783538E+04   -0.74909E-02   -0.10449E-01  2592   0.538E-01    0.322E-01
DAV:   4    -0.136845640743E+04    0.14280E-02   -0.90679E-03  2608   0.230E-01    0.233E-01
DAV:   5    -0.136845479214E+04    0.16153E-02   -0.55269E-03  2256   0.154E-01    0.895E-02
DAV:   6    -0.136845495035E+04   -0.15821E-03   -0.37139E-03  2384   0.111E-01    0.844E-02
DAV:   7    -0.136845492878E+04    0.21573E-04   -0.12179E-03  2472   0.664E-02    0.595E-02
DAV:   8    -0.136845490756E+04    0.21222E-04   -0.52470E-04  2520   0.432E-02    0.291E-02
DAV:   9    -0.136845490065E+04    0.69093E-05   -0.11468E-04  2208   0.224E-02    0.190E-02
DAV:  10    -0.136845490195E+04   -0.12995E-05   -0.38014E-05  2448   0.122E-02    0.107E-02
DAV:  11    -0.136845490127E+04    0.67778E-06   -0.10206E-05  1832   0.772E-03    0.472E-03
DAV:  12    -0.136845490152E+04   -0.24788E-06   -0.46433E-06  1296   0.559E-03
  14 F= -.13684549E+04 E0= -.13684549E+04  d E =-.236558E+00
 BRION: g(F)=  0.871E-01 g(S)=  0.000E+00 retain N=  2 mean eig= 4.57
 eig:   4.568  4.568
 bond charge predicted
       N       E                     dE             d eps       ncg     rms          rms(c)
DAV:   1    -0.136853890706E+04   -0.84006E-01   -0.32012E+01  1376   0.797E+00    0.886E-01
DAV:   2    -0.136869953550E+04   -0.16063E+00   -0.16866E+00  2304   0.313E+00    0.449E-01
DAV:   3    -0.136870910127E+04   -0.95658E-02   -0.13242E-01  2592   0.583E-01    0.362E-01
DAV:   4    -0.136870741862E+04    0.16827E-02   -0.10887E-02  2624   0.249E-01    0.271E-01
DAV:   5    -0.136870494484E+04    0.24738E-02   -0.60017E-03  2288   0.172E-01    0.116E-01
DAV:   6    -0.136870497649E+04   -0.31643E-04   -0.59182E-03  2320   0.143E-01    0.854E-02
DAV:   7    -0.136870501662E+04   -0.40133E-04   -0.21787E-03  2384   0.855E-02    0.730E-02
DAV:   8    -0.136870500186E+04    0.14762E-04   -0.63491E-04  2528   0.494E-02    0.416E-02
DAV:   9    -0.136870496246E+04    0.39397E-04   -0.29777E-04  2328   0.337E-02    0.199E-02
DAV:  10    -0.136870497308E+04   -0.10621E-04   -0.12236E-04  2320   0.205E-02    0.205E-02
DAV:  11    -0.136870496683E+04    0.62511E-05   -0.45910E-05  2216   0.139E-02    0.785E-03
DAV:  12    -0.136870496756E+04   -0.73301E-06   -0.15927E-05  1880   0.859E-03    0.666E-03
DAV:  13    -0.136870496734E+04    0.22342E-06   -0.72592E-06  1552   0.576E-03
  15 F= -.13687050E+04 E0= -.13687050E+04  d E =-.250066E+00
 BRION: g(F)=  0.789E-01 g(S)=  0.000E+00 retain N=  2 mean eig= 5.45
 eig:   5.448  5.448
 bond charge predicted
       N       E                     dE             d eps       ncg     rms          rms(c)
DAV:   1    -0.136876807221E+04   -0.63105E-01   -0.34850E+01  1368   0.834E+00    0.923E-01
DAV:   2    -0.136894122638E+04   -0.17315E+00   -0.18200E+00  2312   0.326E+00    0.471E-01
DAV:   3    -0.136895164033E+04   -0.10414E-01   -0.14345E-01  2584   0.611E-01    0.378E-01
DAV:   4    -0.136894991274E+04    0.17276E-02   -0.12018E-02  2616   0.260E-01    0.284E-01
DAV:   5    -0.136894738174E+04    0.25310E-02   -0.66164E-03  2272   0.175E-01    0.121E-01
DAV:   6    -0.136894745327E+04   -0.71531E-04   -0.61196E-03  2304   0.142E-01    0.943E-02
DAV:   7    -0.136894746767E+04   -0.14405E-04   -0.22493E-03  2384   0.883E-02    0.766E-02
DAV:   8    -0.136894744103E+04    0.26639E-04   -0.74016E-04  2560   0.529E-02    0.419E-02
DAV:   9    -0.136894741102E+04    0.30016E-04   -0.28290E-04  2304   0.326E-02    0.218E-02
DAV:  10    -0.136894742044E+04   -0.94192E-05   -0.11232E-04  2312   0.195E-02    0.192E-02
DAV:  11    -0.136894741587E+04    0.45679E-05   -0.36231E-05  2240   0.128E-02    0.911E-03
DAV:  12    -0.136894741630E+04   -0.42724E-06   -0.16070E-05  1976   0.833E-03    0.787E-03
DAV:  13    -0.136894741570E+04    0.59931E-06   -0.76962E-06  1568   0.598E-03
  16 F= -.13689474E+04 E0= -.13689474E+04  d E =-.242448E+00
 BRION: g(F)=  0.709E-01 g(S)=  0.000E+00 retain N=  2 mean eig= 6.43
 eig:   6.425  6.425
 bond charge predicted
       N       E                     dE             d eps       ncg     rms          rms(c)
DAV:   1    -0.136900136964E+04   -0.53953E-01   -0.29531E+01  1368   0.768E+00    0.852E-01
DAV:   2    -0.136914864795E+04   -0.14728E+00   -0.15463E+00  2312   0.300E+00    0.436E-01
DAV:   3    -0.136915751232E+04   -0.88644E-02   -0.12209E-01  2592   0.561E-01    0.349E-01
DAV:   4    -0.136915599927E+04    0.15130E-02   -0.10205E-02  2624   0.240E-01    0.261E-01
DAV:   5    -0.136915387774E+04    0.21215E-02   -0.55436E-03  2272   0.159E-01    0.111E-01
DAV:   6    -0.136915392994E+04   -0.52198E-04   -0.49777E-03  2264   0.129E-01    0.841E-02
DAV:   7    -0.136915395513E+04   -0.25189E-04   -0.20020E-03  2408   0.815E-02    0.698E-02
DAV:   8    -0.136915393101E+04    0.24119E-04   -0.60415E-04  2584   0.490E-02    0.390E-02
DAV:   9    -0.136915390680E+04    0.24214E-04   -0.23866E-04  2312   0.299E-02    0.203E-02
DAV:  10    -0.136915391446E+04   -0.76642E-05   -0.95773E-05  2304   0.179E-02    0.169E-02
DAV:  11    -0.136915391109E+04    0.33663E-05   -0.29667E-05  2192   0.117E-02    0.826E-03
DAV:  12    -0.136915391138E+04   -0.28637E-06   -0.13500E-05  1864   0.782E-03    0.721E-03
DAV:  13    -0.136915391084E+04    0.54247E-06   -0.60565E-06  1472   0.563E-03
  17 F= -.13691539E+04 E0= -.13691539E+04  d E =-.206495E+00
 BRION: g(F)=  0.644E-01 g(S)=  0.000E+00 retain N=  2 mean eig= 6.27
 eig:   6.268  6.268
 bond charge predicted
       N       E                     dE             d eps       ncg     rms          rms(c)
DAV:   1    -0.136919562611E+04   -0.41715E-01   -0.30137E+01  1360   0.773E+00    0.848E-01
DAV:   2    -0.136934525820E+04   -0.14963E+00   -0.15680E+00  2296   0.301E+00    0.436E-01
DAV:   3    -0.136935386385E+04   -0.86057E-02   -0.12045E-01  2592   0.575E-01    0.349E-01
DAV:   4    -0.136935227437E+04    0.15895E-02   -0.10384E-02  2608   0.240E-01    0.257E-01
DAV:   5    -0.136935019369E+04    0.20807E-02   -0.55323E-03  2312   0.159E-01    0.107E-01
DAV:   6    -0.136935027130E+04   -0.77611E-04   -0.48232E-03  2304   0.128E-01    0.805E-02
DAV:   7    -0.136935029291E+04   -0.21610E-04   -0.18584E-03  2424   0.797E-02    0.667E-02
DAV:   8    -0.136935027376E+04    0.19151E-04   -0.57959E-04  2568   0.470E-02    0.369E-02
DAV:   9    -0.136935025320E+04    0.20561E-04   -0.21466E-04  2312   0.285E-02    0.202E-02
DAV:  10    -0.136935025994E+04   -0.67386E-05   -0.84138E-05  2352   0.172E-02    0.173E-02
DAV:  11    -0.136935025675E+04    0.31842E-05   -0.32782E-05  2192   0.119E-02    0.884E-03
DAV:  12    -0.136935025681E+04   -0.57931E-07   -0.12951E-05  1800   0.792E-03    0.770E-03
DAV:  13    -0.136935025631E+04    0.50523E-06   -0.88109E-06  1568   0.598E-03
  18 F= -.13693503E+04 E0= -.13693503E+04  d E =-.196345E+00
 BRION: g(F)=  0.582E-01 g(S)=  0.000E+00 retain N=  2 mean eig= 5.92
 eig:   5.923  5.923
 bond charge predicted
       N       E                     dE             d eps       ncg     rms          rms(c)
DAV:   1    -0.136938877454E+04   -0.38518E-01   -0.25840E+01  1360   0.720E+00    0.794E-01
DAV:   2    -0.136951710754E+04   -0.12833E+00   -0.13480E+00  2304   0.279E+00    0.408E-01
DAV:   3    -0.136952460200E+04   -0.74945E-02   -0.10446E-01  2592   0.537E-01    0.325E-01
DAV:   4    -0.136952321136E+04    0.13906E-02   -0.91228E-03  2600   0.224E-01    0.237E-01
DAV:   5    -0.136952158537E+04    0.16260E-02   -0.49840E-03  2248   0.144E-01    0.932E-02
DAV:   6    -0.136952171483E+04   -0.12945E-03   -0.36622E-03  2336   0.108E-01    0.782E-02
DAV:   7    -0.136952170679E+04    0.80380E-05   -0.13358E-03  2408   0.677E-02    0.582E-02
DAV:   8    -0.136952169002E+04    0.16766E-04   -0.53072E-04  2568   0.438E-02    0.321E-02
DAV:   9    -0.136952168083E+04    0.91903E-05   -0.13096E-04  2272   0.234E-02    0.206E-02
DAV:  10    -0.136952168284E+04   -0.20092E-05   -0.52820E-05  2368   0.136E-02    0.124E-02
DAV:  11    -0.136952168210E+04    0.73682E-06   -0.13244E-05  1936   0.866E-03    0.674E-03
DAV:  12    -0.136952168230E+04   -0.19505E-06   -0.99610E-06  1712   0.647E-03
  19 F= -.13695217E+04 E0= -.13695217E+04  d E =-.171426E+00
 BRION: g(F)=  0.522E-01 g(S)=  0.000E+00 retain N=  2 mean eig= 5.90
 eig:   5.898  5.898
 bond charge predicted
       N       E                     dE             d eps       ncg     rms          rms(c)
DAV:   1    -0.136956310022E+04   -0.41418E-01   -0.20551E+01  1368   0.640E+00    0.707E-01
DAV:   2    -0.136966544344E+04   -0.10234E+00   -0.10734E+00  2288   0.249E+00    0.364E-01
DAV:   3    -0.136967131261E+04   -0.58692E-02   -0.82624E-02  2592   0.479E-01    0.288E-01
DAV:   4    -0.136967009720E+04    0.12154E-02   -0.73184E-03  2592   0.200E-01    0.205E-01
DAV:   5    -0.136966885025E+04    0.12469E-02   -0.38980E-03  2296   0.128E-01    0.790E-02
DAV:   6    -0.136966895685E+04   -0.10660E-03   -0.27662E-03  2384   0.960E-02    0.646E-02
DAV:   7    -0.136966895631E+04    0.54718E-06   -0.10293E-03  2400   0.591E-02    0.483E-02
DAV:   8    -0.136966894780E+04    0.85086E-05   -0.37206E-04  2600   0.368E-02    0.267E-02
DAV:   9    -0.136966894151E+04    0.62874E-05   -0.93252E-05  2288   0.198E-02    0.176E-02
DAV:  10    -0.136966894301E+04   -0.15015E-05   -0.41867E-05  2328   0.122E-02    0.114E-02
DAV:  11    -0.136966894220E+04    0.81207E-06   -0.12386E-05  1768   0.838E-03    0.597E-03
DAV:  12    -0.136966894250E+04   -0.30379E-06   -0.93182E-06  1680   0.666E-03
  20 F= -.13696689E+04 E0= -.13696689E+04  d E =-.147260E+00
 BRION: g(F)=  0.479E-01 g(S)=  0.000E+00 retain N=  2 mean eig= 5.64
 eig:   5.643  5.643
