 running on  160 total cores
 distrk:  each k-point on  160 cores,    1 groups
 distr:  one band on   20 cores,    8 groups
 using from now: INCAR     
 vasp.5.4.4.18Apr17-6-g9f103f2a35 (build May 01 2020 14:22:42) gamma-only       
  
 POSCAR found type information on POSCAR  O  La Zr Li Al
 POSCAR found :  5 types and     192 ions
 scaLAPACK will be used
 LDA part: xc-table for Pade appr. of Perdew
 POSCAR, INCAR and KPOINTS ok, starting setup
 FFT: planning ...
 WAVECAR not read
 WARNING: random wavefunctions but no delay for mixing, default for NELMDL
 entering main loop
       N       E                     dE             d eps       ncg     rms          rms(c)
DAV:   1     0.251510888489E+05    0.25151E+05   -0.42259E+05  1592   0.253E+03
DAV:   2     0.941920078564E+04   -0.15732E+05   -0.14545E+05  1432   0.705E+02
DAV:   3     0.263982023121E+04   -0.67794E+04   -0.61803E+04  1536   0.357E+02
DAV:   4    -0.384071860595E+03   -0.30239E+04   -0.28373E+04  2040   0.224E+02
DAV:   5    -0.142396577677E+04   -0.10399E+04   -0.99984E+03  2528   0.137E+02    0.117E+02
DAV:   6    -0.131139258432E+04    0.11257E+03   -0.14703E+03  2424   0.663E+01    0.502E+01
DAV:   7    -0.133384215162E+04   -0.22450E+02   -0.39265E+02  2560   0.339E+01    0.251E+01
DAV:   8    -0.134321843367E+04   -0.93763E+01   -0.27601E+02  2504   0.279E+01    0.266E+01
DAV:   9    -0.133586376379E+04    0.73547E+01   -0.59392E+01  2504   0.152E+01    0.765E+00
DAV:  10    -0.133703468553E+04   -0.11709E+01   -0.16069E+01  2600   0.840E+00    0.802E+00
DAV:  11    -0.133727186918E+04   -0.23718E+00   -0.74496E+00  2624   0.461E+00    0.431E+00
DAV:  12    -0.133712326700E+04    0.14860E+00   -0.29127E+00  2536   0.381E+00    0.294E+00
DAV:  13    -0.133720715527E+04   -0.83888E-01   -0.95407E-01  2528   0.179E+00    0.214E+00
DAV:  14    -0.133718836820E+04    0.18787E-01   -0.37375E-01  2592   0.122E+00    0.116E+00
DAV:  15    -0.133719886579E+04   -0.10498E-01   -0.11139E-01  2544   0.667E-01    0.103E+00
DAV:  16    -0.133719826829E+04    0.59750E-03   -0.37971E-02  2608   0.374E-01    0.673E-01
DAV:  17    -0.133719577953E+04    0.24888E-02   -0.30691E-02  2448   0.329E-01    0.320E-01
DAV:  18    -0.133719630343E+04   -0.52390E-03   -0.60950E-03  2376   0.170E-01    0.191E-01
DAV:  19    -0.133719616987E+04    0.13356E-03   -0.28501E-03  2568   0.104E-01    0.135E-01
DAV:  20    -0.133719619933E+04   -0.29463E-04   -0.84285E-04  2592   0.564E-02    0.445E-02
DAV:  21    -0.133719622051E+04   -0.21179E-04   -0.22332E-04  2624   0.296E-02    0.435E-02
DAV:  22    -0.133719624262E+04   -0.22105E-04   -0.86620E-05  2456   0.197E-02    0.175E-02
DAV:  23    -0.133719623799E+04    0.46269E-05   -0.37378E-05  2168   0.116E-02    0.130E-02
DAV:  24    -0.133719624421E+04   -0.62164E-05   -0.13783E-05  1528   0.959E-03    0.299E-03
DAV:  25    -0.133719624265E+04    0.15621E-05   -0.46854E-06  1032   0.574E-03    0.576E-03
DAV:  26    -0.133719624422E+04   -0.15726E-05   -0.23327E-06   992   0.548E-03    0.321E-03
DAV:  27    -0.133719624504E+04   -0.82023E-06   -0.12869E-06   952   0.383E-03
   1 F= -.13371962E+04 E0= -.13371962E+04  d E =-.133720E+04
 BRION: g(F)=  0.448E+02 g(S)=  0.000E+00
 bond charge predicted
       N       E                     dE             d eps       ncg     rms          rms(c)
DAV:   1    -0.131967177738E+04    0.17524E+02   -0.57251E+03  1696   0.118E+02    0.208E+01
DAV:   2    -0.135747938214E+04   -0.37808E+02   -0.45458E+02  2584   0.500E+01    0.116E+01
DAV:   3    -0.135687125381E+04    0.60813E+00   -0.29549E+01  2608   0.139E+01    0.817E+00
DAV:   4    -0.135526232400E+04    0.16089E+01   -0.70447E+00  2496   0.576E+00    0.424E+00
DAV:   5    -0.135474972136E+04    0.51260E+00   -0.26770E+00  2360   0.423E+00    0.260E+00
DAV:   6    -0.135475563926E+04   -0.59179E-02   -0.34434E+00  2448   0.350E+00    0.161E+00
DAV:   7    -0.135477064081E+04   -0.15002E-01   -0.70344E-01  2472   0.180E+00    0.145E+00
DAV:   8    -0.135476248538E+04    0.81554E-02   -0.25004E-01  2624   0.820E-01    0.662E-01
DAV:   9    -0.135476171103E+04    0.77435E-03   -0.48492E-02  2624   0.481E-01    0.370E-01
DAV:  10    -0.135476065480E+04    0.10562E-02   -0.11370E-02  2512   0.302E-01    0.223E-01
DAV:  11    -0.135476133734E+04   -0.68254E-03   -0.16406E-02  2576   0.223E-01    0.133E-01
DAV:  12    -0.135476126715E+04    0.70189E-04   -0.28771E-03  2584   0.115E-01    0.543E-02
DAV:  13    -0.135476134886E+04   -0.81711E-04   -0.10467E-03  2584   0.594E-02    0.376E-02
DAV:  14    -0.135476135435E+04   -0.54928E-05   -0.20069E-04  2624   0.317E-02    0.241E-02
DAV:  15    -0.135476135038E+04    0.39712E-05   -0.74911E-05  2616   0.171E-02    0.146E-02
DAV:  16    -0.135476135089E+04   -0.50827E-06   -0.22241E-05  2432   0.106E-02    0.744E-03
DAV:  17    -0.135476135116E+04   -0.26883E-06   -0.95410E-06  1608   0.596E-03
   2 F= -.13547614E+04 E0= -.13547614E+04  d E =-.175651E+02
 BRION: g(F)=  0.196E+02 g(S)=  0.000E+00 retain N=  1 mean eig= 0.65
 eig:   0.649
 bond charge predicted
       N       E                     dE             d eps       ncg     rms          rms(c)
DAV:   1    -0.134960068129E+04    0.51607E+01   -0.17466E+03  1480   0.596E+01    0.114E+01
DAV:   2    -0.136025189123E+04   -0.10651E+02   -0.12992E+02  2488   0.260E+01    0.958E+00
DAV:   3    -0.136058516365E+04   -0.33327E+00   -0.10271E+01  2600   0.745E+00    0.755E+00
DAV:   4    -0.136019453584E+04    0.39063E+00   -0.25965E+00  2512   0.345E+00    0.423E+00
DAV:   5    -0.136003295286E+04    0.16158E+00   -0.11433E+00  2184   0.286E+00    0.251E+00
DAV:   6    -0.135999443423E+04    0.38519E-01   -0.14518E+00  2496   0.216E+00    0.121E+00
DAV:   7    -0.136000780534E+04   -0.13371E-01   -0.33184E-01  2512   0.112E+00    0.852E-01
DAV:   8    -0.136000453440E+04    0.32709E-02   -0.56351E-02  2624   0.501E-01    0.542E-01
DAV:   9    -0.136000459942E+04   -0.65026E-04   -0.27939E-02  2600   0.311E-01    0.403E-01
DAV:  10    -0.136000298707E+04    0.16124E-02   -0.73948E-03  2408   0.212E-01    0.267E-01
DAV:  11    -0.136000291310E+04    0.73971E-04   -0.11780E-02  2384   0.168E-01    0.986E-02
DAV:  12    -0.136000281578E+04    0.97318E-04   -0.15965E-03  2456   0.956E-02    0.427E-02
DAV:  13    -0.136000287347E+04   -0.57694E-04   -0.56007E-04  2448   0.464E-02    0.353E-02
DAV:  14    -0.136000285936E+04    0.14117E-04   -0.14446E-04  2624   0.289E-02    0.133E-02
DAV:  15    -0.136000286871E+04   -0.93524E-05   -0.11603E-04  2512   0.187E-02    0.141E-02
DAV:  16    -0.136000286816E+04    0.55450E-06   -0.12798E-05  1840   0.895E-03    0.109E-02
DAV:  17    -0.136000286695E+04    0.12086E-05   -0.14565E-05  1632   0.794E-03    0.360E-03
DAV:  18    -0.136000286717E+04   -0.22035E-06   -0.32814E-06  1128   0.560E-03
   3 F= -.13600029E+04 E0= -.13600029E+04  d E =-.524152E+01
 BRION: g(F)=  0.397E+01 g(S)=  0.000E+00 retain N=  2 mean eig= 0.95
 eig:   0.461  1.430
 bond charge predicted
       N       E                     dE             d eps       ncg     rms          rms(c)
DAV:   1    -0.136080914111E+04   -0.80627E+00   -0.32963E+02  1368   0.265E+01    0.527E+00
DAV:   2    -0.136243855689E+04   -0.16294E+01   -0.18567E+01  2288   0.101E+01    0.219E+00
DAV:   3    -0.136250753146E+04   -0.68975E-01   -0.16772E+00  2608   0.246E+00    0.192E+00
DAV:   4    -0.136245795797E+04    0.49573E-01   -0.31192E-01  2608   0.123E+00    0.106E+00
DAV:   5    -0.136244211064E+04    0.15847E-01   -0.16713E-01  2240   0.821E-01    0.606E-01
DAV:   6    -0.136244227499E+04   -0.16435E-03   -0.81702E-02  2560   0.566E-01    0.498E-01
DAV:   7    -0.136244095744E+04    0.13176E-02   -0.43281E-02  2456   0.368E-01    0.282E-01
DAV:   8    -0.136244059961E+04    0.35783E-03   -0.93684E-03  2616   0.189E-01    0.152E-01
DAV:   9    -0.136244051789E+04    0.81719E-04   -0.19732E-03  2624   0.968E-02    0.907E-02
DAV:  10    -0.136244063613E+04   -0.11824E-03   -0.18760E-03  2256   0.708E-02    0.826E-02
DAV:  11    -0.136244054669E+04    0.89440E-04   -0.54017E-04  2536   0.510E-02    0.358E-02
DAV:  12    -0.136244056687E+04   -0.20184E-04   -0.50212E-04  2528   0.360E-02    0.331E-02
DAV:  13    -0.136244055353E+04    0.13347E-04   -0.10217E-04  2488   0.210E-02    0.138E-02
DAV:  14    -0.136244055568E+04   -0.21534E-05   -0.20050E-05  2112   0.949E-03    0.855E-03
DAV:  15    -0.136244055536E+04    0.31732E-06   -0.82558E-06  1584   0.604E-03
   4 F= -.13624406E+04 E0= -.13624406E+04  d E =-.243769E+01
 BRION: g(F)=  0.119E+01 g(S)=  0.000E+00 retain N=  3 mean eig= 1.25
 eig:   0.686  1.533  1.533
 bond charge predicted
       N       E                     dE             d eps       ncg     rms          rms(c)
DAV:   1    -0.136298359513E+04   -0.54304E+00   -0.17432E+02  1360   0.190E+01    0.252E+00
DAV:   2    -0.136383105236E+04   -0.84746E+00   -0.90294E+00  2304   0.714E+00    0.123E+00
DAV:   3    -0.136387738603E+04   -0.46334E-01   -0.70697E-01  2576   0.145E+00    0.103E+00
DAV:   4    -0.136386513552E+04    0.12251E-01   -0.84120E-02  2616   0.659E-01    0.677E-01
DAV:   5    -0.136385759134E+04    0.75442E-02   -0.49030E-02  2232   0.421E-01    0.280E-01
DAV:   6    -0.136385891693E+04   -0.13256E-02   -0.20669E-02  2544   0.284E-01    0.266E-01
DAV:   7    -0.136385840973E+04    0.50720E-03   -0.12804E-02  2488   0.203E-01    0.152E-01
DAV:   8    -0.136385831784E+04    0.91882E-04   -0.38487E-03  2568   0.125E-01    0.824E-02
DAV:   9    -0.136385831575E+04    0.20964E-05   -0.70120E-04  2552   0.567E-02    0.591E-02
DAV:  10    -0.136385833672E+04   -0.20972E-04   -0.43706E-04  2456   0.366E-02    0.361E-02
DAV:  11    -0.136385832413E+04    0.12595E-04   -0.17430E-04  2504   0.299E-02    0.151E-02
DAV:  12    -0.136385833085E+04   -0.67272E-05   -0.89558E-05  2456   0.189E-02    0.182E-02
DAV:  13    -0.136385832733E+04    0.35251E-05   -0.26891E-05  2104   0.102E-02    0.864E-03
DAV:  14    -0.136385832722E+04    0.10240E-06   -0.97664E-06  1776   0.661E-03
   5 F= -.13638583E+04 E0= -.13638583E+04  d E =-.141777E+01
 BRION: g(F)=  0.678E+00 g(S)=  0.000E+00 retain N=  4 mean eig= 1.64
 eig:   2.242  2.242  1.032  1.032
 bond charge predicted
       N       E                     dE             d eps       ncg     rms          rms(c)
DAV:   1    -0.136426466281E+04   -0.40634E+00   -0.88857E+01  1360   0.138E+01    0.168E+00
DAV:   2    -0.136470461748E+04   -0.43995E+00   -0.46707E+00  2272   0.523E+00    0.842E-01
DAV:   3    -0.136473171627E+04   -0.27099E-01   -0.38757E-01  2576   0.109E+00    0.685E-01
DAV:   4    -0.136472604204E+04    0.56742E-02   -0.40628E-02  2584   0.475E-01    0.482E-01
DAV:   5    -0.136472083104E+04    0.52110E-02   -0.25182E-02  2264   0.318E-01    0.204E-01
DAV:   6    -0.136472139756E+04   -0.56652E-03   -0.15199E-02  2384   0.250E-01    0.202E-01
DAV:   7    -0.136472123171E+04    0.16585E-03   -0.91514E-03  2376   0.172E-01    0.129E-01
DAV:   8    -0.136472118757E+04    0.44142E-04   -0.30331E-03  2560   0.105E-01    0.678E-02
DAV:   9    -0.136472116532E+04    0.22250E-04   -0.48587E-04  2536   0.500E-02    0.501E-02
DAV:  10    -0.136472116490E+04    0.42323E-06   -0.37186E-04  2360   0.336E-02    0.270E-02
DAV:  11    -0.136472116317E+04    0.17326E-05   -0.10110E-04  2480   0.236E-02    0.125E-02
DAV:  12    -0.136472116689E+04   -0.37206E-05   -0.57310E-05  2400   0.147E-02    0.146E-02
DAV:  13    -0.136472116422E+04    0.26655E-05   -0.19591E-05  1984   0.913E-03    0.765E-03
DAV:  14    -0.136472116400E+04    0.21671E-06   -0.94565E-06  1760   0.672E-03
   6 F= -.13647212E+04 E0= -.13647212E+04  d E =-.862837E+00
 BRION: g(F)=  0.467E+00 g(S)=  0.000E+00 retain N=  5 mean eig= 2.09
 eig:   3.243  3.243  1.573  1.573  0.817
 bond charge predicted
       N       E                     dE             d eps       ncg     rms          rms(c)
DAV:   1    -0.136502180414E+04   -0.30064E+00   -0.11345E+02  1376   0.152E+01    0.184E+00
DAV:   2    -0.136560725932E+04   -0.58546E+00   -0.61953E+00  2304   0.594E+00    0.937E-01
DAV:   3    -0.136564565681E+04   -0.38397E-01   -0.50497E-01  2600   0.117E+00    0.776E-01
DAV:   4    -0.136564008803E+04    0.55688E-02   -0.48993E-02  2624   0.528E-01    0.552E-01
DAV:   5    -0.136563480846E+04    0.52796E-02   -0.27540E-02  2360   0.322E-01    0.230E-01
DAV:   6    -0.136563567362E+04   -0.86516E-03   -0.15583E-02  2448   0.240E-01    0.204E-01
DAV:   7    -0.136563542096E+04    0.25266E-03   -0.86381E-03  2464   0.172E-01    0.133E-01
DAV:   8    -0.136563539090E+04    0.30060E-04   -0.32445E-03  2576   0.110E-01    0.779E-02
DAV:   9    -0.136563535083E+04    0.40067E-04   -0.58790E-04  2504   0.513E-02    0.525E-02
DAV:  10    -0.136563535491E+04   -0.40751E-05   -0.28488E-04  2560   0.301E-02    0.261E-02
DAV:  11    -0.136563536210E+04   -0.71884E-05   -0.86168E-05  2464   0.202E-02    0.198E-02
DAV:  12    -0.136563535812E+04    0.39822E-05   -0.41313E-05  2400   0.154E-02    0.145E-02
DAV:  13    -0.136563535749E+04    0.62294E-06   -0.42012E-05  2272   0.108E-02    0.754E-03
DAV:  14    -0.136563535702E+04    0.47253E-06   -0.56563E-06  1376   0.583E-03
   7 F= -.13656354E+04 E0= -.13656354E+04  d E =-.914193E+00
 BRION: g(F)=  0.333E+00 g(S)=  0.000E+00 retain N=  6 mean eig= 2.70
 eig:   4.682  4.682  2.378  2.378  1.039  1.039
 bond charge predicted
       N       E                     dE             d eps       ncg     rms          rms(c)
DAV:   1    -0.136589027905E+04   -0.25492E+00   -0.90247E+01  1376   0.135E+01    0.163E+00
DAV:   2    -0.136635311103E+04   -0.46283E+00   -0.48580E+00  2304   0.526E+00    0.815E-01
DAV:   3    -0.136638016971E+04   -0.27059E-01   -0.37750E-01  2592   0.101E+00    0.652E-01
DAV:   4    -0.136637442849E+04    0.57412E-02   -0.38853E-02  2608   0.460E-01    0.444E-01
DAV:   5    -0.136636971086E+04    0.47176E-02   -0.19325E-02  2344   0.300E-01    0.170E-01
DAV:   6    -0.136637050938E+04   -0.79852E-03   -0.13189E-02  2472   0.220E-01    0.154E-01
DAV:   7    -0.136637044083E+04    0.68545E-04   -0.47012E-03  2456   0.131E-01    0.113E-01
DAV:   8    -0.136637038506E+04    0.55776E-04   -0.18996E-03  2592   0.809E-02    0.540E-02
DAV:   9    -0.136637036268E+04    0.22379E-04   -0.38391E-04  2408   0.419E-02    0.377E-02
DAV:  10    -0.136637036740E+04   -0.47190E-05   -0.16120E-04  2464   0.248E-02    0.236E-02
DAV:  11    -0.136637036532E+04    0.20783E-05   -0.60276E-05  2472   0.169E-02    0.121E-02
DAV:  12    -0.136637036701E+04   -0.16868E-05   -0.32744E-05  2328   0.116E-02    0.119E-02
DAV:  13    -0.136637036564E+04    0.13653E-05   -0.15080E-05  1784   0.759E-03    0.576E-03
DAV:  14    -0.136637036550E+04    0.13897E-06   -0.34704E-06  1184   0.540E-03
   8 F= -.13663704E+04 E0= -.13663704E+04  d E =-.735008E+00
 BRION: g(F)=  0.255E+00 g(S)=  0.000E+00 retain N=  5 mean eig= 4.05
 eig:   7.672  7.672  1.952  1.952  1.007
 bond charge predicted
       N       E                     dE             d eps       ncg     rms          rms(c)
DAV:   1    -0.136653576135E+04   -0.16540E+00   -0.10550E+02  1384   0.145E+01    0.173E+00
DAV:   2    -0.136708622196E+04   -0.55046E+00   -0.58063E+00  2304   0.574E+00    0.872E-01
DAV:   3    -0.136711976787E+04   -0.33546E-01   -0.45982E-01  2584   0.110E+00    0.703E-01
DAV:   4    -0.136711364033E+04    0.61275E-02   -0.45005E-02  2608   0.500E-01    0.490E-01
DAV:   5    -0.136710808415E+04    0.55562E-02   -0.22514E-02  2336   0.307E-01    0.189E-01
DAV:   6    -0.136710887493E+04   -0.79078E-03   -0.14125E-02  2464   0.219E-01    0.159E-01
DAV:   7    -0.136710881105E+04    0.63874E-04   -0.54005E-03  2504   0.140E-01    0.111E-01
DAV:   8    -0.136710877141E+04    0.39647E-04   -0.20204E-03  2576   0.864E-02    0.599E-02
DAV:   9    -0.136710874842E+04    0.22985E-04   -0.42444E-04  2392   0.433E-02    0.417E-02
DAV:  10    -0.136710875502E+04   -0.66007E-05   -0.19430E-04  2440   0.260E-02    0.227E-02
DAV:  11    -0.136710875576E+04   -0.73222E-06   -0.64237E-05  2472   0.177E-02    0.131E-02
DAV:  12    -0.136710875650E+04   -0.74538E-06   -0.32977E-05  2360   0.123E-02    0.120E-02
DAV:  13    -0.136710875538E+04    0.11223E-05   -0.19807E-05  1912   0.825E-03    0.588E-03
DAV:  14    -0.136710875526E+04    0.11671E-06   -0.40261E-06  1264   0.550E-03
   9 F= -.13671088E+04 E0= -.13671088E+04  d E =-.738390E+00
 BRION: g(F)=  0.205E+00 g(S)=  0.000E+00 retain N=  3 mean eig= 5.75
 eig:   2.363  7.444  7.444
 bond charge predicted
       N       E                     dE             d eps       ncg     rms          rms(c)
DAV:   1    -0.136731373448E+04   -0.20498E+00   -0.57037E+01  1384   0.107E+01    0.125E+00
DAV:   2    -0.136761597879E+04   -0.30224E+00   -0.31921E+00  2296   0.429E+00    0.639E-01
DAV:   3    -0.136763419174E+04   -0.18213E-01   -0.25264E-01  2592   0.816E-01    0.523E-01
DAV:   4    -0.136763082607E+04    0.33657E-02   -0.23581E-02  2608   0.364E-01    0.376E-01
DAV:   5    -0.136762696706E+04    0.38590E-02   -0.12416E-02  2304   0.230E-01    0.146E-01
DAV:   6    -0.136762735694E+04   -0.38987E-03   -0.93593E-03  2384   0.177E-01    0.123E-01
DAV:   7    -0.136762732197E+04    0.34968E-04   -0.34417E-03  2440   0.109E-01    0.907E-02
DAV:   8    -0.136762728987E+04    0.32101E-04   -0.12863E-03  2592   0.687E-02    0.471E-02
DAV:   9    -0.136762727079E+04    0.19072E-04   -0.30058E-04  2280   0.354E-02    0.319E-02
DAV:  10    -0.136762727557E+04   -0.47745E-05   -0.10808E-04  2344   0.197E-02    0.199E-02
DAV:  11    -0.136762727442E+04    0.11454E-05   -0.41646E-05  2416   0.137E-02    0.115E-02
DAV:  12    -0.136762727474E+04   -0.31308E-06   -0.23174E-05  2296   0.104E-02    0.100E-02
DAV:  13    -0.136762727393E+04    0.80376E-06   -0.12035E-05  1760   0.669E-03    0.496E-03
DAV:  14    -0.136762727376E+04    0.17253E-06   -0.26123E-06  1032   0.504E-03
  10 F= -.13676273E+04 E0= -.13676273E+04  d E =-.518518E+00
 BRION: g(F)=  0.181E+00 g(S)=  0.000E+00 retain N=  3 mean eig= 6.22
 eig:   2.697  7.978  7.978
 bond charge predicted
       N       E                     dE             d eps       ncg     rms          rms(c)
DAV:   1    -0.136782148310E+04   -0.19421E+00   -0.41681E+01  1368   0.920E+00    0.108E+00
DAV:   2    -0.136804191750E+04   -0.22043E+00   -0.23350E+00  2304   0.369E+00    0.550E-01
DAV:   3    -0.136805478894E+04   -0.12871E-01   -0.18312E-01  2576   0.700E-01    0.445E-01
DAV:   4    -0.136805203148E+04    0.27575E-02   -0.17206E-02  2584   0.312E-01    0.317E-01
DAV:   5    -0.136804915315E+04    0.28783E-02   -0.10106E-02  2296   0.205E-01    0.114E-01
DAV:   6    -0.136804953769E+04   -0.38454E-03   -0.66340E-03  2432   0.148E-01    0.109E-01
DAV:   7    -0.136804949714E+04    0.40546E-04   -0.21529E-03  2480   0.877E-02    0.753E-02
DAV:   8    -0.136804946582E+04    0.31320E-04   -0.82124E-04  2560   0.547E-02    0.370E-02
DAV:   9    -0.136804945775E+04    0.80702E-05   -0.16467E-04  2240   0.278E-02    0.263E-02
DAV:  10    -0.136804946006E+04   -0.23143E-05   -0.56609E-05  2392   0.150E-02    0.140E-02
DAV:  11    -0.136804945976E+04    0.30852E-06   -0.22192E-05  2296   0.102E-02    0.640E-03
DAV:  12    -0.136804946054E+04   -0.78515E-06   -0.10502E-05  1784   0.715E-03    0.627E-03
DAV:  13    -0.136804946010E+04    0.44151E-06   -0.16095E-06   992   0.465E-03
  11 F= -.13680495E+04 E0= -.13680495E+04  d E =-.422186E+00
 BRION: g(F)=  0.164E+00 g(S)=  0.000E+00 retain N=  2 mean eig= 4.26
 eig:   4.260  4.260
 bond charge predicted
       N       E                     dE             d eps       ncg     rms          rms(c)
DAV:   1    -0.136823980082E+04   -0.19034E+00   -0.34677E+01  1368   0.833E+00    0.961E-01
DAV:   2    -0.136842240693E+04   -0.18261E+00   -0.19306E+00  2296   0.330E+00    0.490E-01
DAV:   3    -0.136843326187E+04   -0.10855E-01   -0.15338E-01  2568   0.634E-01    0.398E-01
DAV:   4    -0.136843107100E+04    0.21909E-02   -0.14239E-02  2584   0.281E-01    0.285E-01
DAV:   5    -0.136842864870E+04    0.24223E-02   -0.80258E-03  2312   0.178E-01    0.105E-01
DAV:   6    -0.136842890099E+04   -0.25229E-03   -0.53154E-03  2384   0.131E-01    0.942E-02
DAV:   7    -0.136842887178E+04    0.29209E-04   -0.19724E-03  2432   0.826E-02    0.652E-02
DAV:   8    -0.136842885729E+04    0.14490E-04   -0.71127E-04  2568   0.517E-02    0.354E-02
DAV:   9    -0.136842884926E+04    0.80321E-05   -0.14948E-04  2288   0.260E-02    0.257E-02
DAV:  10    -0.136842885048E+04   -0.12279E-05   -0.60162E-05  2352   0.146E-02    0.141E-02
DAV:  11    -0.136842885043E+04    0.53260E-07   -0.20755E-05  2192   0.101E-02    0.738E-03
DAV:  12    -0.136842885089E+04   -0.46108E-06   -0.12523E-05  1808   0.733E-03    0.679E-03
DAV:  13    -0.136842885039E+04    0.50729E-06   -0.32768E-06  1152   0.513E-03
  12 F= -.13684289E+04 E0= -.13684289E+04  d E =-.379390E+00
 BRION: g(F)=  0.154E+00 g(S)=  0.000E+00 retain N=  3 mean eig= 5.77
 eig:   7.579  7.579  2.163
 bond charge predicted
       N       E                     dE             d eps       ncg     rms          rms(c)
DAV:   1    -0.136859788610E+04   -0.16904E+00   -0.18882E+01  1376   0.620E+00    0.719E-01
DAV:   2    -0.136869663287E+04   -0.98747E-01   -0.10450E+00  2296   0.247E+00    0.364E-01
DAV:   3    -0.136870247486E+04   -0.58420E-02   -0.82613E-02  2584   0.471E-01    0.294E-01
DAV:   4    -0.136870123896E+04    0.12359E-02   -0.74121E-03  2584   0.205E-01    0.210E-01
DAV:   5    -0.136869989391E+04    0.13450E-02   -0.46562E-03  2232   0.138E-01    0.734E-02
DAV:   6    -0.136870008291E+04   -0.18899E-03   -0.30340E-03  2464   0.986E-02    0.749E-02
DAV:   7    -0.136870005887E+04    0.24036E-04   -0.95397E-04  2472   0.580E-02    0.505E-02
DAV:   8    -0.136870004162E+04    0.17249E-04   -0.34874E-04  2568   0.361E-02    0.247E-02
DAV:   9    -0.136870003845E+04    0.31750E-05   -0.66645E-05  2224   0.178E-02    0.174E-02
DAV:  10    -0.136870003913E+04   -0.68196E-06   -0.20352E-05  2208   0.935E-03    0.832E-03
DAV:  11    -0.136870003902E+04    0.10987E-06   -0.62951E-06  1496   0.625E-03
  13 F= -.13687000E+04 E0= -.13687000E+04  d E =-.271189E+00
 BRION: g(F)=  0.148E+00 g(S)=  0.000E+00 retain N=  3 mean eig= 4.49
 eig:   5.871  5.871  1.714
 bond charge predicted
       N       E                     dE             d eps       ncg     rms          rms(c)
DAV:   1    -0.136886799490E+04   -0.16796E+00   -0.17235E+01  1368   0.589E+00    0.667E-01
DAV:   2    -0.136895719838E+04   -0.89203E-01   -0.94057E-01  2288   0.230E+00    0.336E-01
DAV:   3    -0.136896261386E+04   -0.54155E-02   -0.75006E-02  2584   0.449E-01    0.271E-01
DAV:   4    -0.136896159155E+04    0.10223E-02   -0.64909E-03  2592   0.191E-01    0.196E-01
DAV:   5    -0.136896042020E+04    0.11714E-02   -0.37213E-03  2240   0.121E-01    0.706E-02
DAV:   6    -0.136896054737E+04   -0.12718E-03   -0.25086E-03  2416   0.877E-02    0.623E-02
DAV:   7    -0.136896053874E+04    0.86345E-05   -0.82131E-04  2464   0.527E-02    0.429E-02
DAV:   8    -0.136896053048E+04    0.82626E-05   -0.28612E-04  2568   0.333E-02    0.231E-02
DAV:   9    -0.136896052697E+04    0.35051E-05   -0.62291E-05  2208   0.168E-02    0.164E-02
DAV:  10    -0.136896052758E+04   -0.60431E-06   -0.23205E-05  2216   0.948E-03    0.809E-03
DAV:  11    -0.136896052732E+04    0.26051E-06   -0.32098E-06  1096   0.612E-03
  14 F= -.13689605E+04 E0= -.13689605E+04  d E =-.260488E+00
 BRION: g(F)=  0.143E+00 g(S)=  0.000E+00 retain N=  3 mean eig= 4.38
 eig:   5.753  5.753  1.636
 bond charge predicted
       N       E                     dE             d eps       ncg     rms          rms(c)
DAV:   1    -0.136912342314E+04   -0.16290E+00   -0.15611E+01  1368   0.559E+00    0.627E-01
DAV:   2    -0.136920351006E+04   -0.80087E-01   -0.84176E-01  2288   0.218E+00    0.316E-01
DAV:   3    -0.136920845258E+04   -0.49425E-02   -0.66983E-02  2576   0.421E-01    0.253E-01
DAV:   4    -0.136920760899E+04    0.84360E-03   -0.56768E-03  2600   0.179E-01    0.184E-01
DAV:   5    -0.136920660830E+04    0.10007E-02   -0.31351E-03  2264   0.112E-01    0.682E-02
DAV:   6    -0.136920670432E+04   -0.96013E-04   -0.21673E-03  2360   0.827E-02    0.565E-02
DAV:   7    -0.136920670334E+04    0.97255E-06   -0.78779E-04  2448   0.509E-02    0.399E-02
DAV:   8    -0.136920669660E+04    0.67419E-05   -0.25335E-04  2560   0.318E-02    0.223E-02
DAV:   9    -0.136920669330E+04    0.33054E-05   -0.60457E-05  2240   0.162E-02    0.154E-02
DAV:  10    -0.136920669390E+04   -0.59945E-06   -0.22895E-05  2184   0.924E-03    0.801E-03
DAV:  11    -0.136920669360E+04    0.29811E-06   -0.31795E-06  1120   0.626E-03
  15 F= -.13692067E+04 E0= -.13692067E+04  d E =-.246166E+00
 BRION: g(F)=  0.141E+00 g(S)=  0.000E+00 retain N=  3 mean eig= 3.23
 eig:   4.103  4.103  1.472
 bond charge predicted
       N       E                     dE             d eps       ncg     rms          rms(c)
DAV:   1    -0.136935456782E+04   -0.14787E+00   -0.10405E+01  1376   0.458E+00    0.516E-01
DAV:   2    -0.136940872748E+04   -0.54160E-01   -0.57039E-01  2296   0.180E+00    0.259E-01
DAV:   3    -0.136941195483E+04   -0.32274E-02   -0.44287E-02  2560   0.350E-01    0.206E-01
DAV:   4    -0.136941135476E+04    0.60007E-03   -0.40418E-03  2584   0.149E-01    0.146E-01
DAV:   5    -0.136941075579E+04    0.59897E-03   -0.21383E-03  2280   0.914E-02    0.526E-02
DAV:   6    -0.136941082797E+04   -0.72182E-04   -0.13059E-03  2440   0.640E-02    0.448E-02
DAV:   7    -0.136941082590E+04    0.20720E-05   -0.47102E-04  2480   0.399E-02    0.304E-02
DAV:   8    -0.136941082285E+04    0.30520E-05   -0.15666E-04  2560   0.249E-02    0.173E-02
DAV:   9    -0.136941082179E+04    0.10540E-05   -0.32797E-05  2352   0.124E-02    0.126E-02
DAV:  10    -0.136941082194E+04   -0.14991E-06   -0.14642E-05  1856   0.774E-03    0.601E-03
DAV:  11    -0.136941082184E+04    0.10204E-06   -0.18754E-06   992   0.563E-03
  16 F= -.13694108E+04 E0= -.13694108E+04  d E =-.204128E+00
 BRION: g(F)=  0.138E+00 g(S)=  0.000E+00 retain N=  3 mean eig= 3.26
 eig:   4.152  4.152  1.463
 bond charge predicted
       N       E                     dE             d eps       ncg     rms          rms(c)
DAV:   1    -0.136955210472E+04   -0.14128E+00   -0.87951E+00  1384   0.419E+00    0.459E-01
DAV:   2    -0.136959724553E+04   -0.45141E-01   -0.47353E-01  2288   0.163E+00    0.232E-01
DAV:   3    -0.136960010932E+04   -0.28638E-02   -0.37919E-02  2568   0.314E-01    0.185E-01
DAV:   4    -0.136959968849E+04    0.42083E-03   -0.32219E-03  2592   0.134E-01    0.136E-01
DAV:   5    -0.136959918124E+04    0.50724E-03   -0.15475E-03  2312   0.783E-02    0.545E-02
DAV:   6    -0.136959920369E+04   -0.22444E-04   -0.11232E-03  2352   0.590E-02    0.379E-02
DAV:   7    -0.136959921191E+04   -0.82168E-05   -0.49803E-04  2456   0.401E-02    0.288E-02
DAV:   8    -0.136959920887E+04    0.30376E-05   -0.13511E-04  2552   0.243E-02    0.178E-02
DAV:   9    -0.136959920688E+04    0.19880E-05   -0.39848E-05  2296   0.125E-02    0.116E-02
DAV:  10    -0.136959920723E+04   -0.35431E-06   -0.14377E-05  1840   0.758E-03    0.640E-03
DAV:  11    -0.136959920708E+04    0.15525E-06   -0.18567E-06   992   0.569E-03
  17 F= -.13695992E+04 E0= -.13695992E+04  d E =-.188385E+00
 BRION: g(F)=  0.138E+00 g(S)=  0.000E+00 retain N=  3 mean eig= 2.52
 eig:   3.062  3.062  1.437
 bond charge predicted
       N       E                     dE             d eps       ncg     rms          rms(c)
DAV:   1    -0.136972683156E+04   -0.12762E+00   -0.63859E+00  1384   0.358E+00    0.397E-01
DAV:   2    -0.136975995107E+04   -0.33120E-01   -0.34806E-01  2296   0.141E+00    0.200E-01
DAV:   3    -0.136976206474E+04   -0.21137E-02   -0.27839E-02  2552   0.269E-01    0.159E-01
DAV:   4    -0.136976175818E+04    0.30656E-03   -0.24529E-03  2592   0.116E-01    0.116E-01
DAV:   5    -0.136976140561E+04    0.35258E-03   -0.11529E-03  2352   0.684E-02    0.458E-02
DAV:   6    -0.136976142590E+04   -0.20296E-04   -0.79076E-04  2360   0.503E-02    0.327E-02
DAV:   7    -0.136976143071E+04   -0.48052E-05   -0.35806E-04  2424   0.344E-02    0.243E-02
DAV:   8    -0.136976142892E+04    0.17862E-05   -0.10216E-04  2560   0.209E-02    0.149E-02
DAV:   9    -0.136976142764E+04    0.12841E-05   -0.27915E-05  2296   0.108E-02    0.100E-02
DAV:  10    -0.136976142761E+04    0.29468E-07   -0.89168E-06  1616   0.657E-03
  18 F= -.13697614E+04 E0= -.13697614E+04  d E =-.162221E+00
 BRION: g(F)=  0.137E+00 g(S)=  0.000E+00 retain N=  3 mean eig= 1.88
 eig:   2.220  2.220  1.194
 bond charge predicted
       N       E                     dE             d eps       ncg     rms          rms(c)
DAV:   1    -0.136987319198E+04   -0.11176E+00   -0.44262E+00  1400   0.298E+00    0.326E-01
DAV:   2    -0.136989611263E+04   -0.22921E-01   -0.24056E-01  2288   0.117E+00    0.166E-01
DAV:   3    -0.136989758799E+04   -0.14754E-02   -0.19413E-02  2552   0.225E-01    0.131E-01
DAV:   4    -0.136989737827E+04    0.20972E-03   -0.16707E-03  2592   0.964E-02    0.962E-02
DAV:   5    -0.136989713669E+04    0.24158E-03   -0.75141E-04  2336   0.548E-02    0.400E-02
DAV:   6    -0.136989714054E+04   -0.38489E-05   -0.54202E-04  2328   0.415E-02    0.257E-02
DAV:   7    -0.136989714695E+04   -0.64156E-05   -0.26753E-04  2408   0.293E-02    0.205E-02
DAV:   8    -0.136989714550E+04    0.14499E-05   -0.68834E-05  2544   0.177E-02    0.136E-02
DAV:   9    -0.136989714422E+04    0.12868E-05   -0.22699E-05  2248   0.945E-03    0.833E-03
DAV:  10    -0.136989714406E+04    0.16212E-06   -0.43083E-06  1200   0.583E-03
  19 F= -.13698971E+04 E0= -.13698971E+04  d E =-.135716E+00
 BRION: g(F)=  0.136E+00 g(S)=  0.000E+00 retain N=  3 mean eig= 1.83
 eig:   2.110  2.110  1.258
 bond charge predicted
       N       E                     dE             d eps       ncg     rms          rms(c)
DAV:   1    -0.137001871360E+04   -0.12157E+00   -0.55184E+00  1392   0.332E+00    0.361E-01
DAV:   2    -0.137004726621E+04   -0.28553E-01   -0.29962E-01  2288   0.130E+00    0.184E-01
DAV:   3    -0.137004912793E+04   -0.18617E-02   -0.24283E-02  2552   0.251E-01    0.146E-01
DAV:   4    -0.137004888309E+04    0.24484E-03   -0.21001E-03  2592   0.108E-01    0.108E-01
DAV:   5    -0.137004858905E+04    0.29404E-03   -0.90967E-04  2352   0.613E-02    0.472E-02
DAV:   6    -0.137004858406E+04    0.49950E-05   -0.69379E-04  2296   0.480E-02    0.294E-02
DAV:   7    -0.137004859455E+04   -0.10492E-04   -0.37834E-04  2448   0.349E-02    0.248E-02
DAV:   8    -0.137004859219E+04    0.23622E-05   -0.93543E-05  2552   0.205E-02    0.168E-02
DAV:   9    -0.137004858974E+04    0.24454E-05   -0.35025E-05  2304   0.112E-02    0.963E-03
DAV:  10    -0.137004859001E+04   -0.26725E-06   -0.10138E-05  1704   0.691E-03    0.582E-03
DAV:  11    -0.137004858999E+04    0.22323E-07   -0.15142E-06   992   0.489E-03
  20 F= -.13700486E+04 E0= -.13700486E+04  d E =-.151446E+00
 BRION: g(F)=  0.135E+00 g(S)=  0.000E+00 retain N=  3 mean eig= 1.59
 eig:   1.393  1.393  1.978
