 running on  160 total cores
 distrk:  each k-point on  160 cores,    1 groups
 distr:  one band on   20 cores,    8 groups
 using from now: INCAR     
 vasp.5.4.4.18Apr17-6-g9f103f2a35 (build May 01 2020 14:22:42) gamma-only       
  
 POSCAR found type information on POSCAR  O  La Zr Li Al
 POSCAR found :  5 types and     192 ions
 scaLAPACK will be used
 LDA part: xc-table for Pade appr. of Perdew
 POSCAR, INCAR and KPOINTS ok, starting setup
 FFT: planning ...
 WAVECAR not read
 WARNING: random wavefunctions but no delay for mixing, default for NELMDL
 entering main loop
       N       E                     dE             d eps       ncg     rms          rms(c)
DAV:   1     0.253981714989E+05    0.25398E+05   -0.42010E+05  1584   0.253E+03
DAV:   2     0.953086403764E+04   -0.15867E+05   -0.14665E+05  1440   0.708E+02
DAV:   3     0.271483307710E+04   -0.68160E+04   -0.62130E+04  1504   0.358E+02
DAV:   4    -0.383198856330E+03   -0.30980E+04   -0.28959E+04  2064   0.227E+02
DAV:   5    -0.143761112075E+04   -0.10544E+04   -0.10212E+04  2528   0.140E+02    0.117E+02
DAV:   6    -0.131199466648E+04    0.12562E+03   -0.13938E+03  2424   0.657E+01    0.503E+01
DAV:   7    -0.133575847880E+04   -0.23764E+02   -0.38369E+02  2552   0.331E+01    0.239E+01
DAV:   8    -0.134714873194E+04   -0.11390E+02   -0.26582E+02  2536   0.267E+01    0.270E+01
DAV:   9    -0.133861218274E+04    0.85365E+01   -0.68525E+01  2448   0.155E+01    0.710E+00
DAV:  10    -0.134024137734E+04   -0.16292E+01   -0.15281E+01  2592   0.893E+00    0.880E+00
DAV:  11    -0.134019176261E+04    0.49615E-01   -0.88667E+00  2624   0.499E+00    0.391E+00
DAV:  12    -0.134007407123E+04    0.11769E+00   -0.31287E+00  2608   0.393E+00    0.268E+00
DAV:  13    -0.134017591013E+04   -0.10184E+00   -0.11000E+00  2576   0.199E+00    0.238E+00
DAV:  14    -0.134013832567E+04    0.37584E-01   -0.43021E-01  2592   0.132E+00    0.132E+00
DAV:  15    -0.134014824733E+04   -0.99217E-02   -0.14421E-01  2488   0.749E-01    0.109E+00
DAV:  16    -0.134014968260E+04   -0.14353E-02   -0.39347E-02  2616   0.394E-01    0.733E-01
DAV:  17    -0.134014490989E+04    0.47727E-02   -0.24704E-02  2512   0.329E-01    0.394E-01
DAV:  18    -0.134014522350E+04   -0.31361E-03   -0.68127E-03  2536   0.169E-01    0.236E-01
DAV:  19    -0.134014482929E+04    0.39421E-03   -0.34636E-03  2512   0.109E-01    0.165E-01
DAV:  20    -0.134014484383E+04   -0.14543E-04   -0.13221E-03  2536   0.745E-02    0.540E-02
DAV:  21    -0.134014485067E+04   -0.68406E-05   -0.28661E-04  2576   0.373E-02    0.504E-02
DAV:  22    -0.134014486266E+04   -0.11988E-04   -0.10001E-04  2576   0.214E-02    0.264E-02
DAV:  23    -0.134014486696E+04   -0.43010E-05   -0.28984E-05  2224   0.111E-02    0.154E-02
DAV:  24    -0.134014487028E+04   -0.33138E-05   -0.96835E-06  1312   0.760E-03    0.884E-03
DAV:  25    -0.134014487146E+04   -0.11827E-05   -0.35796E-06  1016   0.543E-03    0.653E-03
DAV:  26    -0.134014487153E+04   -0.73895E-07   -0.17935E-06  1016   0.450E-03
   1 F= -.13401449E+04 E0= -.13401449E+04  d E =-.134014E+04
 BRION: g(F)=  0.370E+02 g(S)=  0.000E+00
 bond charge predicted
       N       E                     dE             d eps       ncg     rms          rms(c)
DAV:   1    -0.133309555572E+04    0.70493E+01   -0.40764E+03  1664   0.971E+01    0.168E+01
DAV:   2    -0.135902487269E+04   -0.25929E+02   -0.30439E+02  2584   0.425E+01    0.929E+00
DAV:   3    -0.135877852939E+04    0.24634E+00   -0.18963E+01  2608   0.111E+01    0.675E+00
DAV:   4    -0.135786395671E+04    0.91457E+00   -0.45607E+00  2544   0.459E+00    0.368E+00
DAV:   5    -0.135753869439E+04    0.32526E+00   -0.15044E+00  2352   0.318E+00    0.217E+00
DAV:   6    -0.135749401273E+04    0.44682E-01   -0.17059E+00  2464   0.269E+00    0.958E-01
DAV:   7    -0.135753144138E+04   -0.37429E-01   -0.56168E-01  2360   0.148E+00    0.113E+00
DAV:   8    -0.135752803544E+04    0.34059E-02   -0.97148E-02  2624   0.577E-01    0.763E-01
DAV:   9    -0.135752279423E+04    0.52412E-02   -0.74760E-02  2552   0.482E-01    0.324E-01
DAV:  10    -0.135752271931E+04    0.74913E-04   -0.17347E-02  2488   0.317E-01    0.208E-01
DAV:  11    -0.135752238678E+04    0.33254E-03   -0.83123E-03  2624   0.199E-01    0.109E-01
DAV:  12    -0.135752262469E+04   -0.23791E-03   -0.38254E-03  2584   0.112E-01    0.784E-02
DAV:  13    -0.135752260807E+04    0.16615E-04   -0.10546E-03  2616   0.652E-02    0.329E-02
DAV:  14    -0.135752262161E+04   -0.13542E-04   -0.27683E-04  2624   0.375E-02    0.183E-02
DAV:  15    -0.135752262869E+04   -0.70817E-05   -0.10301E-04  2624   0.208E-02    0.102E-02
DAV:  16    -0.135752263000E+04   -0.13027E-05   -0.25518E-05  2552   0.101E-02    0.702E-03
DAV:  17    -0.135752262965E+04    0.34871E-06   -0.39217E-06  1192   0.692E-03
   2 F= -.13575226E+04 E0= -.13575226E+04  d E =-.173778E+02
 BRION: g(F)=  0.131E+02 g(S)=  0.000E+00 retain N=  1 mean eig= 0.72
 eig:   0.718
 bond charge predicted
       N       E                     dE             d eps       ncg     rms          rms(c)
DAV:   1    -0.135404775672E+04    0.34749E+01   -0.12822E+03  1440   0.505E+01    0.917E+00
DAV:   2    -0.136191291376E+04   -0.78652E+01   -0.95762E+01  2488   0.222E+01    0.757E+00
DAV:   3    -0.136223151295E+04   -0.31860E+00   -0.76481E+00  2576   0.640E+00    0.604E+00
DAV:   4    -0.136199093653E+04    0.24058E+00   -0.18032E+00  2576   0.280E+00    0.368E+00
DAV:   5    -0.136189526057E+04    0.95676E-01   -0.93531E-01  2128   0.227E+00    0.226E+00
DAV:   6    -0.136185489145E+04    0.40369E-01   -0.75870E-01  2504   0.166E+00    0.147E+00
DAV:   7    -0.136185162864E+04    0.32628E-02   -0.31282E-01  2472   0.101E+00    0.758E-01
DAV:   8    -0.136185145198E+04    0.17665E-03   -0.42232E-02  2624   0.418E-01    0.545E-01
DAV:   9    -0.136184999610E+04    0.14559E-02   -0.16664E-02  2568   0.262E-01    0.355E-01
DAV:  10    -0.136184921691E+04    0.77919E-03   -0.67280E-03  2288   0.183E-01    0.269E-01
DAV:  11    -0.136184884866E+04    0.36825E-03   -0.12019E-02  2312   0.162E-01    0.915E-02
DAV:  12    -0.136184878118E+04    0.67477E-04   -0.12840E-03  2472   0.858E-02    0.521E-02
DAV:  13    -0.136184880124E+04   -0.20060E-04   -0.77823E-04  2480   0.503E-02    0.288E-02
DAV:  14    -0.136184879919E+04    0.20494E-05   -0.16814E-04  2440   0.297E-02    0.179E-02
DAV:  15    -0.136184880425E+04   -0.50646E-05   -0.93830E-05  2408   0.168E-02    0.119E-02
DAV:  16    -0.136184880277E+04    0.14875E-05   -0.11474E-05  1880   0.845E-03    0.805E-03
DAV:  17    -0.136184880195E+04    0.81812E-06   -0.99180E-06  1632   0.688E-03
   3 F= -.13618488E+04 E0= -.13618488E+04  d E =-.432617E+01
 BRION: g(F)=  0.397E+01 g(S)=  0.000E+00 retain N=  2 mean eig= 0.32
 eig:   0.359  0.274
 bond charge predicted
       N       E                     dE             d eps       ncg     rms          rms(c)
DAV:   1    -0.136294379377E+04   -0.10950E+01   -0.33475E+02  1360   0.267E+01    0.485E+00
DAV:   2    -0.136459397384E+04   -0.16502E+01   -0.18715E+01  2288   0.103E+01    0.207E+00
DAV:   3    -0.136466572875E+04   -0.71755E-01   -0.16423E+00  2584   0.242E+00    0.182E+00
DAV:   4    -0.136462083100E+04    0.44898E-01   -0.28321E-01  2616   0.117E+00    0.106E+00
DAV:   5    -0.136460278972E+04    0.18041E-01   -0.17297E-01  2176   0.829E-01    0.593E-01
DAV:   6    -0.136460383735E+04   -0.10476E-02   -0.82905E-02  2568   0.584E-01    0.556E-01
DAV:   7    -0.136460191702E+04    0.19203E-02   -0.55337E-02  2416   0.408E-01    0.298E-01
DAV:   8    -0.136460161420E+04    0.30282E-03   -0.10375E-02  2576   0.206E-01    0.162E-01
DAV:   9    -0.136460152158E+04    0.92621E-04   -0.21883E-03  2616   0.100E-01    0.102E-01
DAV:  10    -0.136460166157E+04   -0.13999E-03   -0.23278E-03  2256   0.781E-02    0.883E-02
DAV:  11    -0.136460152164E+04    0.13993E-03   -0.71304E-04  2528   0.622E-02    0.341E-02
DAV:  12    -0.136460156458E+04   -0.42939E-04   -0.74957E-04  2528   0.450E-02    0.409E-02
DAV:  13    -0.136460153845E+04    0.26128E-04   -0.16667E-04  2464   0.259E-02    0.143E-02
DAV:  14    -0.136460154140E+04   -0.29496E-05   -0.32846E-05  2232   0.121E-02    0.740E-03
DAV:  15    -0.136460154168E+04   -0.28180E-06   -0.83395E-06  1648   0.583E-03
   4 F= -.13646015E+04 E0= -.13646015E+04  d E =-.275274E+01
 BRION: g(F)=  0.129E+01 g(S)=  0.000E+00 retain N=  3 mean eig= 1.35
 eig:   0.791  1.633  1.633
 bond charge predicted
       N       E                     dE             d eps       ncg     rms          rms(c)
DAV:   1    -0.136529452022E+04   -0.69298E+00   -0.18923E+02  1352   0.198E+01    0.251E+00
DAV:   2    -0.136619781294E+04   -0.90329E+00   -0.95701E+00  2312   0.752E+00    0.124E+00
DAV:   3    -0.136623496629E+04   -0.37153E-01   -0.66001E-01  2584   0.151E+00    0.100E+00
DAV:   4    -0.136621946640E+04    0.15500E-01   -0.86104E-02  2584   0.645E-01    0.628E-01
DAV:   5    -0.136621163119E+04    0.78352E-02   -0.48420E-02  2184   0.429E-01    0.260E-01
DAV:   6    -0.136621304749E+04   -0.14163E-02   -0.22787E-02  2592   0.284E-01    0.245E-01
DAV:   7    -0.136621267665E+04    0.37085E-03   -0.10304E-02  2440   0.187E-01    0.149E-01
DAV:   8    -0.136621262032E+04    0.56321E-04   -0.35224E-03  2584   0.114E-01    0.794E-02
DAV:   9    -0.136621261355E+04    0.67769E-05   -0.53154E-04  2568   0.528E-02    0.575E-02
DAV:  10    -0.136621264432E+04   -0.30775E-04   -0.55548E-04  2296   0.394E-02    0.409E-02
DAV:  11    -0.136621262186E+04    0.22467E-04   -0.17689E-04  2528   0.308E-02    0.167E-02
DAV:  12    -0.136621262961E+04   -0.77558E-05   -0.12591E-04  2424   0.190E-02    0.182E-02
DAV:  13    -0.136621262508E+04    0.45319E-05   -0.27942E-05  2160   0.111E-02    0.776E-03
DAV:  14    -0.136621262533E+04   -0.25239E-06   -0.11107E-05  1792   0.672E-03    0.270E-03
DAV:  15    -0.136621262553E+04   -0.19615E-06   -0.11558E-06   992   0.406E-03
   5 F= -.13662126E+04 E0= -.13662126E+04  d E =-.161108E+01
 BRION: g(F)=  0.728E+00 g(S)=  0.000E+00 retain N=  4 mean eig= 1.78
 eig:   2.460  2.460  1.103  1.103
 bond charge predicted
       N       E                     dE             d eps       ncg     rms          rms(c)
DAV:   1    -0.136666545080E+04   -0.45283E+00   -0.10247E+02  1376   0.148E+01    0.185E+00
DAV:   2    -0.136719149967E+04   -0.52605E+00   -0.56274E+00  2272   0.579E+00    0.928E-01
DAV:   3    -0.136722513047E+04   -0.33631E-01   -0.46095E-01  2576   0.120E+00    0.776E-01
DAV:   4    -0.136721929307E+04    0.58374E-02   -0.49065E-02  2624   0.522E-01    0.546E-01
DAV:   5    -0.136721450866E+04    0.47844E-02   -0.32143E-02  2192   0.346E-01    0.221E-01
DAV:   6    -0.136721552666E+04   -0.10180E-02   -0.15075E-02  2504   0.237E-01    0.232E-01
DAV:   7    -0.136721518102E+04    0.34564E-03   -0.90559E-03  2520   0.172E-01    0.132E-01
DAV:   8    -0.136721508743E+04    0.93592E-04   -0.26729E-03  2552   0.102E-01    0.699E-02
DAV:   9    -0.136721508744E+04   -0.59372E-08   -0.40664E-04  2584   0.458E-02    0.472E-02
DAV:  10    -0.136721509886E+04   -0.11419E-04   -0.26487E-04  2376   0.301E-02    0.217E-02
DAV:  11    -0.136721509829E+04    0.56169E-06   -0.54348E-05  2496   0.204E-02    0.108E-02
DAV:  12    -0.136721510273E+04   -0.44347E-05   -0.61872E-05  2336   0.126E-02    0.135E-02
DAV:  13    -0.136721509948E+04    0.32476E-05   -0.18532E-05  2048   0.908E-03    0.459E-03
DAV:  14    -0.136721509963E+04   -0.14507E-06   -0.33188E-06  1152   0.550E-03
   6 F= -.13672151E+04 E0= -.13672151E+04  d E =-.100247E+01
 BRION: g(F)=  0.462E+00 g(S)=  0.000E+00 retain N=  5 mean eig= 2.50
 eig:   4.337  4.337  1.457  1.457  0.928
 bond charge predicted
       N       E                     dE             d eps       ncg     rms          rms(c)
DAV:   1    -0.136748734769E+04   -0.27225E+00   -0.13074E+02  1392   0.164E+01    0.198E+00
DAV:   2    -0.136815742178E+04   -0.67007E+00   -0.70666E+00  2296   0.655E+00    0.991E-01
DAV:   3    -0.136819535180E+04   -0.37930E-01   -0.54160E-01  2576   0.123E+00    0.794E-01
DAV:   4    -0.136818644559E+04    0.89062E-02   -0.57326E-02  2600   0.557E-01    0.529E-01
DAV:   5    -0.136818049165E+04    0.59539E-02   -0.31759E-02  2296   0.352E-01    0.202E-01
DAV:   6    -0.136818172285E+04   -0.12312E-02   -0.16643E-02  2512   0.246E-01    0.187E-01
DAV:   7    -0.136818154260E+04    0.18025E-03   -0.70336E-03  2472   0.155E-01    0.122E-01
DAV:   8    -0.136818148854E+04    0.54058E-04   -0.24809E-03  2608   0.975E-02    0.655E-02
DAV:   9    -0.136818147260E+04    0.15938E-04   -0.43616E-04  2536   0.457E-02    0.467E-02
DAV:  10    -0.136818148325E+04   -0.10646E-04   -0.27835E-04  2608   0.302E-02    0.266E-02
DAV:  11    -0.136818148130E+04    0.19459E-05   -0.99767E-05  2472   0.218E-02    0.131E-02
DAV:  12    -0.136818148314E+04   -0.18430E-05   -0.38222E-05  2352   0.136E-02    0.132E-02
DAV:  13    -0.136818148157E+04    0.15765E-05   -0.20561E-05  1968   0.842E-03    0.646E-03
DAV:  14    -0.136818148133E+04    0.23979E-06   -0.44532E-06  1280   0.576E-03
   7 F= -.13681815E+04 E0= -.13681815E+04  d E =-.966382E+00
 BRION: g(F)=  0.289E+00 g(S)=  0.000E+00 retain N=  6 mean eig= 3.34
 eig:   6.602  6.602  2.258  2.258  1.174  1.174
 bond charge predicted
       N       E                     dE             d eps       ncg     rms          rms(c)
DAV:   1    -0.136834931740E+04   -0.16784E+00   -0.93037E+01  1384   0.138E+01    0.170E+00
DAV:   2    -0.136882990276E+04   -0.48059E+00   -0.50792E+00  2296   0.555E+00    0.838E-01
DAV:   3    -0.136885706913E+04   -0.27166E-01   -0.39144E-01  2584   0.103E+00    0.669E-01
DAV:   4    -0.136885022977E+04    0.68394E-02   -0.42013E-02  2568   0.475E-01    0.425E-01
DAV:   5    -0.136884682388E+04    0.34059E-02   -0.22119E-02  2304   0.284E-01    0.161E-01
DAV:   6    -0.136884764360E+04   -0.81971E-03   -0.95645E-03  2568   0.185E-01    0.142E-01
DAV:   7    -0.136884754112E+04    0.10248E-03   -0.40170E-03  2592   0.118E-01    0.880E-02
DAV:   8    -0.136884752652E+04    0.14604E-04   -0.12382E-03  2608   0.702E-02    0.511E-02
DAV:   9    -0.136884752143E+04    0.50849E-05   -0.24310E-04  2536   0.339E-02    0.369E-02
DAV:  10    -0.136884752883E+04   -0.73985E-05   -0.14484E-04  2528   0.217E-02    0.206E-02
DAV:  11    -0.136884752754E+04    0.12877E-05   -0.56405E-05  2472   0.158E-02    0.969E-03
DAV:  12    -0.136884752834E+04   -0.80056E-06   -0.18013E-05  1976   0.984E-03    0.819E-03
DAV:  13    -0.136884752807E+04    0.26901E-06   -0.86842E-06  1552   0.605E-03
   8 F= -.13688475E+04 E0= -.13688475E+04  d E =-.666047E+00
 BRION: g(F)=  0.198E+00 g(S)=  0.000E+00 retain N=  5 mean eig= 4.32
 eig:   7.978  7.978  2.260  2.260  1.138
 bond charge predicted
       N       E                     dE             d eps       ncg     rms          rms(c)
DAV:   1    -0.136892357042E+04   -0.76042E-01   -0.84244E+01  1376   0.130E+01    0.154E+00
DAV:   2    -0.136935318983E+04   -0.42962E+00   -0.45369E+00  2304   0.516E+00    0.775E-01
DAV:   3    -0.136937798215E+04   -0.24792E-01   -0.35199E-01  2584   0.968E-01    0.615E-01
DAV:   4    -0.136937198898E+04    0.59932E-02   -0.35490E-02  2584   0.434E-01    0.398E-01
DAV:   5    -0.136936848163E+04    0.35074E-02   -0.18154E-02  2320   0.263E-01    0.145E-01
DAV:   6    -0.136936921306E+04   -0.73143E-03   -0.88568E-03  2536   0.173E-01    0.127E-01
DAV:   7    -0.136936914330E+04    0.69767E-04   -0.33056E-03  2528   0.108E-01    0.819E-02
DAV:   8    -0.136936913505E+04    0.82512E-05   -0.11105E-03  2576   0.658E-02    0.461E-02
DAV:   9    -0.136936912953E+04    0.55134E-05   -0.20810E-04  2544   0.321E-02    0.346E-02
DAV:  10    -0.136936913406E+04   -0.45243E-05   -0.13086E-04  2592   0.209E-02    0.186E-02
DAV:  11    -0.136936913367E+04    0.38261E-06   -0.50278E-05  2400   0.150E-02    0.943E-03
DAV:  12    -0.136936913403E+04   -0.35351E-06   -0.16024E-05  1968   0.960E-03    0.804E-03
DAV:  13    -0.136936913380E+04    0.22748E-06   -0.10029E-05  1648   0.607E-03    0.428E-03
DAV:  14    -0.136936913360E+04    0.19668E-06   -0.15921E-06   984   0.497E-03
   9 F= -.13693691E+04 E0= -.13693691E+04  d E =-.521606E+00
 BRION: g(F)=  0.142E+00 g(S)=  0.000E+00 retain N=  3 mean eig= 6.05
 eig:   7.828  7.828  2.506
 bond charge predicted
       N       E                     dE             d eps       ncg     rms          rms(c)
DAV:   1    -0.136945158292E+04   -0.82449E-01   -0.50095E+01  1368   0.101E+01    0.115E+00
DAV:   2    -0.136970748872E+04   -0.25591E+00   -0.26993E+00  2296   0.398E+00    0.583E-01
DAV:   3    -0.136972250208E+04   -0.15013E-01   -0.20993E-01  2592   0.757E-01    0.468E-01
DAV:   4    -0.136971943587E+04    0.30662E-02   -0.18972E-02  2600   0.322E-01    0.328E-01
DAV:   5    -0.136971652283E+04    0.29130E-02   -0.10493E-02  2232   0.200E-01    0.118E-01
DAV:   6    -0.136971691677E+04   -0.39394E-03   -0.64085E-03  2440   0.143E-01    0.104E-01
DAV:   7    -0.136971688414E+04    0.32631E-04   -0.23981E-03  2456   0.881E-02    0.696E-02
DAV:   8    -0.136971686377E+04    0.20368E-04   -0.79052E-04  2608   0.554E-02    0.386E-02
DAV:   9    -0.136971685946E+04    0.43049E-05   -0.15960E-04  2456   0.273E-02    0.285E-02
DAV:  10    -0.136971686145E+04   -0.19833E-05   -0.80031E-05  2480   0.166E-02    0.144E-02
DAV:  11    -0.136971686186E+04   -0.41352E-06   -0.27955E-05  2352   0.119E-02    0.718E-03
DAV:  12    -0.136971686242E+04   -0.55462E-06   -0.12633E-05  1856   0.794E-03    0.695E-03
DAV:  13    -0.136971686184E+04    0.58064E-06   -0.26678E-06  1104   0.491E-03
  10 F= -.13697169E+04 E0= -.13697169E+04  d E =-.347728E+00
 BRION: g(F)=  0.117E+00 g(S)=  0.000E+00 retain N=  2 mean eig= 4.81
 eig:   4.807  4.807
 bond charge predicted
       N       E                     dE             d eps       ncg     rms          rms(c)
DAV:   1    -0.136978800768E+04   -0.71145E-01   -0.37273E+01  1376   0.871E+00    0.101E+00
DAV:   2    -0.136997980494E+04   -0.19180E+00   -0.20264E+00  2288   0.345E+00    0.505E-01
DAV:   3    -0.136999126070E+04   -0.11456E-01   -0.16037E-01  2600   0.668E-01    0.407E-01
DAV:   4    -0.136998882818E+04    0.24325E-02   -0.14416E-02  2600   0.284E-01    0.284E-01
DAV:   5    -0.136998661630E+04    0.22119E-02   -0.82029E-03  2248   0.180E-01    0.100E-01
DAV:   6    -0.136998695521E+04   -0.33891E-03   -0.50897E-03  2456   0.126E-01    0.943E-02
DAV:   7    -0.136998693048E+04    0.24732E-04   -0.17415E-03  2472   0.768E-02    0.648E-02
DAV:   8    -0.136998690640E+04    0.24082E-04   -0.60276E-04  2584   0.478E-02    0.333E-02
DAV:   9    -0.136998690111E+04    0.52883E-05   -0.11963E-04  2344   0.239E-02    0.239E-02
DAV:  10    -0.136998690339E+04   -0.22767E-05   -0.54142E-05  2416   0.144E-02    0.121E-02
DAV:  11    -0.136998690312E+04    0.26882E-06   -0.15128E-05  2088   0.920E-03    0.600E-03
DAV:  12    -0.136998690391E+04   -0.79205E-06   -0.10807E-05  1744   0.639E-03    0.597E-03
DAV:  13    -0.136998690342E+04    0.49226E-06   -0.12429E-06   976   0.452E-03
  11 F= -.13699869E+04 E0= -.13699869E+04  d E =-.270042E+00
 BRION: g(F)=  0.103E+00 g(S)=  0.000E+00 retain N=  2 mean eig= 4.31
 eig:   4.309  4.309
 bond charge predicted
       N       E                     dE             d eps       ncg     rms          rms(c)
DAV:   1    -0.137006709521E+04   -0.80191E-01   -0.23798E+01  1368   0.695E+00    0.780E-01
DAV:   2    -0.137018817832E+04   -0.12108E+00   -0.12749E+00  2296   0.273E+00    0.396E-01
DAV:   3    -0.137019538244E+04   -0.72041E-02   -0.99544E-02  2592   0.520E-01    0.323E-01
DAV:   4    -0.137019412276E+04    0.12597E-02   -0.82788E-03  2592   0.217E-01    0.240E-01
DAV:   5    -0.137019239182E+04    0.17309E-02   -0.52197E-03  2184   0.148E-01    0.888E-02
DAV:   6    -0.137019258943E+04   -0.19761E-03   -0.39939E-03  2336   0.112E-01    0.831E-02
DAV:   7    -0.137019258012E+04    0.93044E-05   -0.12233E-03  2456   0.633E-02    0.623E-02
DAV:   8    -0.137019255170E+04    0.28422E-04   -0.44270E-04  2600   0.409E-02    0.321E-02
DAV:   9    -0.137019253633E+04    0.15371E-04   -0.13452E-04  2216   0.234E-02    0.186E-02
DAV:  10    -0.137019253952E+04   -0.31925E-05   -0.41441E-05  2336   0.126E-02    0.123E-02
DAV:  11    -0.137019253794E+04    0.15770E-05   -0.13965E-05  1856   0.796E-03    0.461E-03
DAV:  12    -0.137019253828E+04   -0.33974E-06   -0.49716E-06  1384   0.590E-03
  12 F= -.13701925E+04 E0= -.13701925E+04  d E =-.205635E+00
 BRION: g(F)=  0.947E-01 g(S)=  0.000E+00 retain N=  3 mean eig= 5.51
 eig:   7.224  7.224  2.074
 bond charge predicted
       N       E                     dE             d eps       ncg     rms          rms(c)
DAV:   1    -0.137027252407E+04   -0.79986E-01   -0.18670E+01  1368   0.613E+00    0.690E-01
DAV:   2    -0.137036775086E+04   -0.95227E-01   -0.10006E+00  2296   0.244E+00    0.350E-01
DAV:   3    -0.137037326715E+04   -0.55163E-02   -0.77709E-02  2592   0.458E-01    0.282E-01
DAV:   4    -0.137037214391E+04    0.11232E-02   -0.64763E-03  2592   0.191E-01    0.206E-01
DAV:   5    -0.137037081003E+04    0.13339E-02   -0.41838E-03  2192   0.130E-01    0.751E-02
DAV:   6    -0.137037095826E+04   -0.14824E-03   -0.29249E-03  2344   0.956E-02    0.699E-02
DAV:   7    -0.137037095383E+04    0.44315E-05   -0.90940E-04  2456   0.542E-02    0.514E-02
DAV:   8    -0.137037093627E+04    0.17559E-04   -0.33339E-04  2544   0.352E-02    0.267E-02
DAV:   9    -0.137037092601E+04    0.10259E-04   -0.93830E-05  2176   0.198E-02    0.164E-02
DAV:  10    -0.137037092739E+04   -0.13757E-05   -0.26207E-05  2240   0.106E-02    0.986E-03
DAV:  11    -0.137037092668E+04    0.71319E-06   -0.10613E-05  1648   0.668E-03    0.345E-03
DAV:  12    -0.137037092680E+04   -0.12327E-06   -0.19567E-06   992   0.544E-03
  13 F= -.13703709E+04 E0= -.13703709E+04  d E =-.178389E+00
 BRION: g(F)=  0.893E-01 g(S)=  0.000E+00 retain N=  3 mean eig= 4.86
 eig:   6.381  6.381  1.824
 bond charge predicted
       N       E                     dE             d eps       ncg     rms          rms(c)
DAV:   1    -0.137044939761E+04   -0.78471E-01   -0.20348E+01  1368   0.638E+00    0.711E-01
DAV:   2    -0.137055241996E+04   -0.10302E+00   -0.10783E+00  2288   0.253E+00    0.362E-01
DAV:   3    -0.137055836561E+04   -0.59456E-02   -0.82682E-02  2592   0.471E-01    0.291E-01
DAV:   4    -0.137055726059E+04    0.11050E-02   -0.66295E-03  2592   0.193E-01    0.217E-01
DAV:   5    -0.137055572703E+04    0.15336E-02   -0.43140E-03  2216   0.138E-01    0.811E-02
DAV:   6    -0.137055588973E+04   -0.16269E-03   -0.35032E-03  2336   0.105E-01    0.729E-02
DAV:   7    -0.137055589369E+04   -0.39576E-05   -0.92894E-04  2440   0.557E-02    0.586E-02
DAV:   8    -0.137055587651E+04    0.17178E-04   -0.34106E-04  2584   0.351E-02    0.339E-02
DAV:   9    -0.137055584963E+04    0.26881E-04   -0.15564E-04  2152   0.249E-02    0.172E-02
DAV:  10    -0.137055585455E+04   -0.49263E-05   -0.61656E-05  2336   0.150E-02    0.157E-02
DAV:  11    -0.137055585110E+04    0.34571E-05   -0.21207E-05  2024   0.904E-03    0.660E-03
DAV:  12    -0.137055585120E+04   -0.10552E-06   -0.72888E-06  1536   0.644E-03
  14 F= -.13705559E+04 E0= -.13705559E+04  d E =-.184924E+00
 BRION: g(F)=  0.845E-01 g(S)=  0.000E+00 retain N=  3 mean eig= 5.15
 eig:   6.818  6.818  1.810
 bond charge predicted
       N       E                     dE             d eps       ncg     rms          rms(c)
DAV:   1    -0.137063162541E+04   -0.75774E-01   -0.25797E+01  1376   0.717E+00    0.794E-01
DAV:   2    -0.137076216785E+04   -0.13054E+00   -0.13650E+00  2296   0.285E+00    0.406E-01
DAV:   3    -0.137076973772E+04   -0.75699E-02   -0.10508E-01  2584   0.526E-01    0.326E-01
DAV:   4    -0.137076835627E+04    0.13815E-02   -0.83386E-03  2584   0.217E-01    0.244E-01
DAV:   5    -0.137076643961E+04    0.19167E-02   -0.54031E-03  2208   0.153E-01    0.944E-02
DAV:   6    -0.137076660736E+04   -0.16774E-03   -0.43262E-03  2312   0.117E-01    0.826E-02
DAV:   7    -0.137076661066E+04   -0.33024E-05   -0.12500E-03  2472   0.644E-02    0.655E-02
DAV:   8    -0.137076658565E+04    0.25014E-04   -0.46460E-04  2536   0.413E-02    0.360E-02
DAV:   9    -0.137076655628E+04    0.29366E-04   -0.19651E-04  2152   0.278E-02    0.188E-02
DAV:  10    -0.137076656162E+04   -0.53363E-05   -0.66815E-05  2352   0.163E-02    0.166E-02
DAV:  11    -0.137076655793E+04    0.36848E-05   -0.28863E-05  2112   0.106E-02    0.597E-03
DAV:  12    -0.137076655832E+04   -0.38819E-06   -0.65712E-06  1416   0.651E-03
  15 F= -.13707666E+04 E0= -.13707666E+04  d E =-.210707E+00
 BRION: g(F)=  0.808E-01 g(S)=  0.000E+00 retain N=  3 mean eig= 5.38
 eig:   7.080  7.080  1.988
 bond charge predicted
       N       E                     dE             d eps       ncg     rms          rms(c)
DAV:   1    -0.137084861542E+04   -0.82057E-01   -0.19665E+01  1368   0.625E+00    0.694E-01
DAV:   2    -0.137094768129E+04   -0.99066E-01   -0.10346E+00  2304   0.248E+00    0.354E-01
DAV:   3    -0.137095328410E+04   -0.56028E-02   -0.78795E-02  2592   0.455E-01    0.281E-01
DAV:   4    -0.137095214658E+04    0.11375E-02   -0.62181E-03  2592   0.187E-01    0.209E-01
DAV:   5    -0.137095066652E+04    0.14801E-02   -0.40858E-03  2176   0.135E-01    0.787E-02
DAV:   6    -0.137095081282E+04   -0.14630E-03   -0.33625E-03  2336   0.102E-01    0.708E-02
DAV:   7    -0.137095082053E+04   -0.77134E-05   -0.87074E-04  2448   0.537E-02    0.578E-02
DAV:   8    -0.137095080564E+04    0.14893E-04   -0.32037E-04  2536   0.337E-02    0.348E-02
DAV:   9    -0.137095077543E+04    0.30210E-04   -0.16524E-04  2200   0.258E-02    0.174E-02
DAV:  10    -0.137095078003E+04   -0.45983E-05   -0.65868E-05  2360   0.163E-02    0.166E-02
DAV:  11    -0.137095077678E+04    0.32465E-05   -0.24552E-05  1952   0.919E-03    0.803E-03
DAV:  12    -0.137095077638E+04    0.40064E-06   -0.89611E-06  1680   0.705E-03
  16 F= -.13709508E+04 E0= -.13709508E+04  d E =-.184218E+00
 BRION: g(F)=  0.770E-01 g(S)=  0.000E+00 retain N=  3 mean eig= 5.68
 eig:   7.416  7.416  2.199
 bond charge predicted
       N       E                     dE             d eps       ncg     rms          rms(c)
DAV:   1    -0.137103453605E+04   -0.83759E-01   -0.22003E+01  1368   0.661E+00    0.733E-01
DAV:   2    -0.137114542906E+04   -0.11089E+00   -0.11600E+00  2296   0.261E+00    0.373E-01
DAV:   3    -0.137115194128E+04   -0.65122E-02   -0.89760E-02  2584   0.485E-01    0.299E-01
DAV:   4    -0.137115077653E+04    0.11647E-02   -0.71414E-03  2592   0.201E-01    0.224E-01
DAV:   5    -0.137114916994E+04    0.16066E-02   -0.46826E-03  2224   0.142E-01    0.865E-02
DAV:   6    -0.137114932444E+04   -0.15451E-03   -0.36842E-03  2328   0.108E-01    0.789E-02
DAV:   7    -0.137114931292E+04    0.11522E-04   -0.10651E-03  2464   0.611E-02    0.604E-02
DAV:   8    -0.137114928742E+04    0.25497E-04   -0.42153E-04  2528   0.391E-02    0.312E-02
DAV:   9    -0.137114926801E+04    0.19413E-04   -0.14661E-04  2168   0.241E-02    0.173E-02
DAV:  10    -0.137114927125E+04   -0.32429E-05   -0.45473E-05  2312   0.135E-02    0.136E-02
DAV:  11    -0.137114926896E+04    0.22910E-05   -0.19288E-05  1904   0.897E-03    0.452E-03
DAV:  12    -0.137114926931E+04   -0.34987E-06   -0.46786E-06  1256   0.613E-03
  17 F= -.13711493E+04 E0= -.13711493E+04  d E =-.198493E+00
 BRION: g(F)=  0.738E-01 g(S)=  0.000E+00 retain N=  3 mean eig= 5.73
 eig:   7.497  7.497  2.181
 bond charge predicted
       N       E                     dE             d eps       ncg     rms          rms(c)
DAV:   1    -0.137123481783E+04   -0.85549E-01   -0.19472E+01  1368   0.621E+00    0.689E-01
DAV:   2    -0.137133222581E+04   -0.97408E-01   -0.10183E+00  2296   0.244E+00    0.349E-01
DAV:   3    -0.137133783731E+04   -0.56115E-02   -0.78659E-02  2584   0.453E-01    0.276E-01
DAV:   4    -0.137133668149E+04    0.11558E-02   -0.62874E-03  2584   0.189E-01    0.203E-01
DAV:   5    -0.137133528578E+04    0.13957E-02   -0.42203E-03  2224   0.132E-01    0.756E-02
DAV:   6    -0.137133542627E+04   -0.14049E-03   -0.30743E-03  2368   0.984E-02    0.711E-02
DAV:   7    -0.137133542180E+04    0.44669E-05   -0.85652E-04  2488   0.548E-02    0.537E-02
DAV:   8    -0.137133540008E+04    0.21723E-04   -0.33669E-04  2520   0.349E-02    0.279E-02
DAV:   9    -0.137133538585E+04    0.14229E-04   -0.10854E-04  2168   0.212E-02    0.160E-02
DAV:  10    -0.137133538763E+04   -0.17730E-05   -0.32377E-05  2296   0.118E-02    0.115E-02
DAV:  11    -0.137133538645E+04    0.11702E-05   -0.15526E-05  1760   0.766E-03    0.425E-03
DAV:  12    -0.137133538645E+04    0.49622E-08   -0.19389E-06  1024   0.558E-03
  18 F= -.13713354E+04 E0= -.13713354E+04  d E =-.186117E+00
 BRION: g(F)=  0.701E-01 g(S)=  0.000E+00 retain N=  3 mean eig= 5.59
 eig:   7.367  7.367  2.041
 bond charge predicted
       N       E                     dE             d eps       ncg     rms          rms(c)
DAV:   1    -0.137141504911E+04   -0.79663E-01   -0.24002E+01  1368   0.688E+00    0.766E-01
DAV:   2    -0.137153542628E+04   -0.12038E+00   -0.12588E+00  2296   0.270E+00    0.387E-01
DAV:   3    -0.137154241620E+04   -0.69899E-02   -0.97075E-02  2584   0.504E-01    0.308E-01
DAV:   4    -0.137154108597E+04    0.13302E-02   -0.77926E-03  2592   0.209E-01    0.228E-01
DAV:   5    -0.137153932175E+04    0.17642E-02   -0.50212E-03  2200   0.147E-01    0.871E-02
DAV:   6    -0.137153949261E+04   -0.17086E-03   -0.39946E-03  2312   0.111E-01    0.799E-02
DAV:   7    -0.137153948752E+04    0.50882E-05   -0.11044E-03  2496   0.612E-02    0.626E-02
DAV:   8    -0.137153946103E+04    0.26494E-04   -0.43080E-04  2520   0.396E-02    0.333E-02
DAV:   9    -0.137153943759E+04    0.23434E-04   -0.16789E-04  2200   0.257E-02    0.180E-02
DAV:  10    -0.137153944122E+04   -0.36276E-05   -0.51902E-05  2328   0.148E-02    0.151E-02
DAV:  11    -0.137153943835E+04    0.28671E-05   -0.23447E-05  1944   0.938E-03    0.550E-03
DAV:  12    -0.137153943862E+04   -0.26695E-06   -0.66967E-06  1568   0.653E-03
  19 F= -.13715394E+04 E0= -.13715394E+04  d E =-.204052E+00
 BRION: g(F)=  0.657E-01 g(S)=  0.000E+00 retain N=  2 mean eig= 4.59
 eig:   4.588  4.588
 bond charge predicted
       N       E                     dE             d eps       ncg     rms          rms(c)
DAV:   1    -0.137161958126E+04   -0.80143E-01   -0.22190E+01  1368   0.661E+00    0.736E-01
DAV:   2    -0.137173138902E+04   -0.11181E+00   -0.11706E+00  2304   0.259E+00    0.371E-01
DAV:   3    -0.137173766937E+04   -0.62803E-02   -0.88415E-02  2576   0.490E-01    0.294E-01
DAV:   4    -0.137173636801E+04    0.13014E-02   -0.75369E-03  2584   0.205E-01    0.214E-01
DAV:   5    -0.137173485235E+04    0.15157E-02   -0.47668E-03  2224   0.140E-01    0.804E-02
DAV:   6    -0.137173501280E+04   -0.16044E-03   -0.33777E-03  2360   0.103E-01    0.768E-02
DAV:   7    -0.137173500039E+04    0.12410E-04   -0.10328E-03  2496   0.602E-02    0.566E-02
DAV:   8    -0.137173497301E+04    0.27373E-04   -0.41831E-04  2528   0.388E-02    0.275E-02
DAV:   9    -0.137173496407E+04    0.89487E-05   -0.10539E-04  2192   0.211E-02    0.174E-02
DAV:  10    -0.137173496493E+04   -0.86147E-06   -0.31311E-05  2360   0.117E-02    0.102E-02
DAV:  11    -0.137173496437E+04    0.55863E-06   -0.14781E-05  2000   0.781E-03    0.295E-03
DAV:  12    -0.137173496455E+04   -0.17608E-06   -0.17610E-06  1008   0.487E-03
  20 F= -.13717350E+04 E0= -.13717350E+04  d E =-.195526E+00
 BRION: g(F)=  0.618E-01 g(S)=  0.000E+00 retain N=  2 mean eig= 5.68
 eig:   5.681  5.681
