 running on  160 total cores
 distrk:  each k-point on  160 cores,    1 groups
 distr:  one band on   20 cores,    8 groups
 using from now: INCAR     
 vasp.5.4.4.18Apr17-6-g9f103f2a35 (build May 01 2020 14:22:42) gamma-only       
  
 POSCAR found type information on POSCAR  O  La Zr Li Al
 POSCAR found :  5 types and     192 ions
 scaLAPACK will be used
 LDA part: xc-table for Pade appr. of Perdew
 POSCAR, INCAR and KPOINTS ok, starting setup
 FFT: planning ...
 WAVECAR not read
 WARNING: random wavefunctions but no delay for mixing, default for NELMDL
 entering main loop
       N       E                     dE             d eps       ncg     rms          rms(c)
DAV:   1     0.252455033531E+05    0.25246E+05   -0.42266E+05  1576   0.253E+03
DAV:   2     0.945511137378E+04   -0.15790E+05   -0.14623E+05  1432   0.704E+02
DAV:   3     0.273299981115E+04   -0.67221E+04   -0.61044E+04  1496   0.357E+02
DAV:   4    -0.382277968258E+03   -0.31153E+04   -0.29087E+04  2032   0.222E+02
DAV:   5    -0.142968962551E+04   -0.10474E+04   -0.10120E+04  2520   0.142E+02    0.117E+02
DAV:   6    -0.131440320902E+04    0.11529E+03   -0.14608E+03  2456   0.657E+01    0.505E+01
DAV:   7    -0.133744816652E+04   -0.23045E+02   -0.38792E+02  2552   0.334E+01    0.247E+01
DAV:   8    -0.134990448978E+04   -0.12456E+02   -0.30277E+02  2512   0.282E+01    0.290E+01
DAV:   9    -0.133946683586E+04    0.10438E+02   -0.74006E+01  2432   0.162E+01    0.766E+00
DAV:  10    -0.134099719196E+04   -0.15304E+01   -0.15886E+01  2608   0.899E+00    0.885E+00
DAV:  11    -0.134099593682E+04    0.12551E-02   -0.89990E+00  2624   0.496E+00    0.416E+00
DAV:  12    -0.134087572609E+04    0.12021E+00   -0.28472E+00  2608   0.387E+00    0.298E+00
DAV:  13    -0.134096703990E+04   -0.91314E-01   -0.10431E+00  2592   0.187E+00    0.220E+00
DAV:  14    -0.134094465522E+04    0.22385E-01   -0.41152E-01  2584   0.129E+00    0.128E+00
DAV:  15    -0.134095691067E+04   -0.12255E-01   -0.13303E-01  2456   0.748E-01    0.117E+00
DAV:  16    -0.134095601330E+04    0.89737E-03   -0.39314E-02  2624   0.395E-01    0.756E-01
DAV:  17    -0.134095065380E+04    0.53595E-02   -0.32399E-02  2472   0.351E-01    0.387E-01
DAV:  18    -0.134095115157E+04   -0.49777E-03   -0.70587E-03  2464   0.183E-01    0.232E-01
DAV:  19    -0.134095082879E+04    0.32277E-03   -0.35977E-03  2432   0.106E-01    0.175E-01
DAV:  20    -0.134095086206E+04   -0.33269E-04   -0.12729E-03  2528   0.717E-02    0.581E-02
DAV:  21    -0.134095086692E+04   -0.48522E-05   -0.27832E-04  2568   0.372E-02    0.491E-02
DAV:  22    -0.134095088148E+04   -0.14568E-04   -0.83809E-05  2552   0.204E-02    0.260E-02
DAV:  23    -0.134095088538E+04   -0.38950E-05   -0.23772E-05  1744   0.949E-03    0.171E-02
DAV:  24    -0.134095088924E+04   -0.38612E-05   -0.11658E-05  1424   0.809E-03    0.105E-02
DAV:  25    -0.134095088939E+04   -0.14705E-06   -0.40180E-06  1056   0.552E-03
   1 F= -.13409509E+04 E0= -.13409509E+04  d E =-.134095E+04
 BRION: g(F)=  0.369E+02 g(S)=  0.000E+00
 bond charge predicted
       N       E                     dE             d eps       ncg     rms          rms(c)
DAV:   1    -0.132872494700E+04    0.12226E+02   -0.42637E+03  1528   0.963E+01    0.198E+01
DAV:   2    -0.135820370146E+04   -0.29479E+02   -0.35084E+02  2544   0.427E+01    0.948E+00
DAV:   3    -0.135817075153E+04    0.32950E-01   -0.22255E+01  2608   0.115E+01    0.679E+00
DAV:   4    -0.135727851459E+04    0.89224E+00   -0.44093E+00  2608   0.452E+00    0.369E+00
DAV:   5    -0.135696919151E+04    0.30932E+00   -0.13786E+00  2416   0.290E+00    0.195E+00
DAV:   6    -0.135694803776E+04    0.21154E-01   -0.14087E+00  2456   0.233E+00    0.910E-01
DAV:   7    -0.135697723435E+04   -0.29197E-01   -0.44206E-01  2400   0.132E+00    0.922E-01
DAV:   8    -0.135697372740E+04    0.35069E-02   -0.84669E-02  2616   0.529E-01    0.528E-01
DAV:   9    -0.135697392419E+04   -0.19679E-03   -0.47628E-02  2600   0.409E-01    0.324E-01
DAV:  10    -0.135697367285E+04    0.25134E-03   -0.12148E-02  2568   0.260E-01    0.223E-01
DAV:  11    -0.135697343569E+04    0.23716E-03   -0.97098E-03  2608   0.185E-01    0.118E-01
DAV:  12    -0.135697361974E+04   -0.18405E-03   -0.31897E-03  2552   0.107E-01    0.997E-02
DAV:  13    -0.135697353487E+04    0.84877E-04   -0.14636E-03  2560   0.698E-02    0.358E-02
DAV:  14    -0.135697354309E+04   -0.82236E-05   -0.38996E-04  2616   0.430E-02    0.208E-02
DAV:  15    -0.135697354929E+04   -0.61947E-05   -0.11239E-04  2624   0.231E-02    0.108E-02
DAV:  16    -0.135697354979E+04   -0.50600E-06   -0.33569E-05  2568   0.107E-02    0.611E-03
DAV:  17    -0.135697355000E+04   -0.21065E-06   -0.47392E-06  1304   0.701E-03
   2 F= -.13569736E+04 E0= -.13569736E+04  d E =-.160227E+02
 BRION: g(F)=  0.165E+02 g(S)=  0.000E+00 retain N=  1 mean eig= 0.66
 eig:   0.661
 bond charge predicted
       N       E                     dE             d eps       ncg     rms          rms(c)
DAV:   1    -0.135214074045E+04    0.48328E+01   -0.14829E+03  1432   0.528E+01    0.105E+01
DAV:   2    -0.136159934874E+04   -0.94586E+01   -0.11567E+02  2464   0.238E+01    0.945E+00
DAV:   3    -0.136198746092E+04   -0.38811E+00   -0.90405E+00  2560   0.676E+00    0.748E+00
DAV:   4    -0.136169453005E+04    0.29293E+00   -0.21628E+00  2504   0.307E+00    0.435E+00
DAV:   5    -0.136159010498E+04    0.10443E+00   -0.10451E+00  2128   0.243E+00    0.255E+00
DAV:   6    -0.136153511303E+04    0.54992E-01   -0.10343E+00  2480   0.183E+00    0.130E+00
DAV:   7    -0.136154046479E+04   -0.53518E-02   -0.26762E-01  2520   0.100E+00    0.782E-01
DAV:   8    -0.136153949986E+04    0.96493E-03   -0.38018E-02  2624   0.409E-01    0.593E-01
DAV:   9    -0.136153841860E+04    0.10813E-02   -0.20011E-02  2512   0.273E-01    0.444E-01
DAV:  10    -0.136153624948E+04    0.21691E-02   -0.97698E-03  2464   0.212E-01    0.260E-01
DAV:  11    -0.136153612488E+04    0.12460E-03   -0.99642E-03  2456   0.163E-01    0.781E-02
DAV:  12    -0.136153612467E+04    0.21407E-06   -0.10184E-03  2568   0.770E-02    0.419E-02
DAV:  13    -0.136153615111E+04   -0.26444E-04   -0.29195E-04  2448   0.338E-02    0.274E-02
DAV:  14    -0.136153614940E+04    0.17094E-05   -0.83941E-05  2592   0.193E-02    0.111E-02
DAV:  15    -0.136153615191E+04   -0.25140E-05   -0.36223E-05  2392   0.119E-02    0.695E-03
DAV:  16    -0.136153615243E+04   -0.51940E-06   -0.43663E-06  1112   0.621E-03
   3 F= -.13615362E+04 E0= -.13615362E+04  d E =-.456260E+01
 BRION: g(F)=  0.421E+01 g(S)=  0.000E+00 retain N=  2 mean eig= 0.71
 eig:   0.407  1.013
 bond charge predicted
       N       E                     dE             d eps       ncg     rms          rms(c)
DAV:   1    -0.136248893948E+04   -0.95279E+00   -0.36756E+02  1376   0.278E+01    0.526E+00
DAV:   2    -0.136426961009E+04   -0.17807E+01   -0.19864E+01  2304   0.104E+01    0.223E+00
DAV:   3    -0.136434564841E+04   -0.76038E-01   -0.16818E+00  2600   0.238E+00    0.191E+00
DAV:   4    -0.136429684915E+04    0.48799E-01   -0.30342E-01  2584   0.120E+00    0.103E+00
DAV:   5    -0.136428706215E+04    0.97870E-02   -0.16209E-01  2240   0.773E-01    0.623E-01
DAV:   6    -0.136428563211E+04    0.14300E-02   -0.67546E-02  2584   0.524E-01    0.432E-01
DAV:   7    -0.136428489616E+04    0.73596E-03   -0.37081E-02  2488   0.350E-01    0.244E-01
DAV:   8    -0.136428462587E+04    0.27028E-03   -0.65901E-03  2616   0.168E-01    0.138E-01
DAV:   9    -0.136428461325E+04    0.12621E-04   -0.20544E-03  2624   0.902E-02    0.827E-02
DAV:  10    -0.136428467135E+04   -0.58097E-04   -0.88673E-04  2248   0.565E-02    0.677E-02
DAV:  11    -0.136428463144E+04    0.39905E-04   -0.61610E-04  2384   0.450E-02    0.296E-02
DAV:  12    -0.136428464029E+04   -0.88449E-05   -0.28758E-04  2504   0.307E-02    0.252E-02
DAV:  13    -0.136428463472E+04    0.55676E-05   -0.63801E-05  2456   0.180E-02    0.135E-02
DAV:  14    -0.136428463587E+04   -0.11491E-05   -0.40494E-05  2280   0.107E-02    0.464E-03
DAV:  15    -0.136428463592E+04   -0.52227E-07   -0.31982E-06  1168   0.575E-03
   4 F= -.13642846E+04 E0= -.13642846E+04  d E =-.274848E+01
 BRION: g(F)=  0.124E+01 g(S)=  0.000E+00 retain N=  3 mean eig= 1.41
 eig:   0.740  1.751  1.751
 bond charge predicted
       N       E                     dE             d eps       ncg     rms          rms(c)
DAV:   1    -0.136485228617E+04   -0.56765E+00   -0.21371E+02  1352   0.211E+01    0.271E+00
DAV:   2    -0.136584507257E+04   -0.99279E+00   -0.10491E+01  2304   0.790E+00    0.131E+00
DAV:   3    -0.136589281897E+04   -0.47746E-01   -0.76982E-01  2568   0.155E+00    0.107E+00
DAV:   4    -0.136587680627E+04    0.16013E-01   -0.93058E-02  2568   0.682E-01    0.682E-01
DAV:   5    -0.136586854528E+04    0.82610E-02   -0.57473E-02  2192   0.466E-01    0.291E-01
DAV:   6    -0.136587026535E+04   -0.17201E-02   -0.25276E-02  2592   0.308E-01    0.285E-01
DAV:   7    -0.136586963821E+04    0.62714E-03   -0.12757E-02  2496   0.207E-01    0.167E-01
DAV:   8    -0.136586948916E+04    0.14905E-03   -0.38915E-03  2576   0.123E-01    0.850E-02
DAV:   9    -0.136586948416E+04    0.50085E-05   -0.63804E-04  2576   0.560E-02    0.587E-02
DAV:  10    -0.136586952364E+04   -0.39485E-04   -0.59083E-04  2312   0.407E-02    0.433E-02
DAV:  11    -0.136586949411E+04    0.29528E-04   -0.16647E-04  2528   0.316E-02    0.187E-02
DAV:  12    -0.136586950512E+04   -0.11008E-04   -0.17998E-04  2432   0.217E-02    0.219E-02
DAV:  13    -0.136586949844E+04    0.66800E-05   -0.37409E-05  2168   0.126E-02    0.955E-03
DAV:  14    -0.136586949863E+04   -0.18479E-06   -0.11856E-05  1832   0.719E-03    0.342E-03
DAV:  15    -0.136586949886E+04   -0.23222E-06   -0.14430E-06  1008   0.424E-03
   5 F= -.13658695E+04 E0= -.13658695E+04  d E =-.158486E+01
 BRION: g(F)=  0.686E+00 g(S)=  0.000E+00 retain N=  4 mean eig= 1.75
 eig:   2.363  2.363  1.134  1.134
 bond charge predicted
       N       E                     dE             d eps       ncg     rms          rms(c)
DAV:   1    -0.136626187907E+04   -0.39238E+00   -0.97804E+01  1360   0.144E+01    0.177E+00
DAV:   2    -0.136674282106E+04   -0.48094E+00   -0.51372E+00  2288   0.540E+00    0.888E-01
DAV:   3    -0.136677283822E+04   -0.30017E-01   -0.42356E-01  2592   0.115E+00    0.733E-01
DAV:   4    -0.136676740930E+04    0.54289E-02   -0.46739E-02  2600   0.504E-01    0.512E-01
DAV:   5    -0.136676300799E+04    0.44013E-02   -0.28632E-02  2280   0.322E-01    0.224E-01
DAV:   6    -0.136676359007E+04   -0.58209E-03   -0.14073E-02  2496   0.245E-01    0.218E-01
DAV:   7    -0.136676334800E+04    0.24207E-03   -0.10602E-02  2416   0.185E-01    0.131E-01
DAV:   8    -0.136676332594E+04    0.22062E-04   -0.31193E-03  2568   0.112E-01    0.766E-02
DAV:   9    -0.136676330802E+04    0.17921E-04   -0.48231E-04  2568   0.498E-02    0.547E-02
DAV:  10    -0.136676330780E+04    0.21669E-06   -0.39041E-04  2336   0.330E-02    0.271E-02
DAV:  11    -0.136676330741E+04    0.39024E-06   -0.10296E-04  2504   0.246E-02    0.119E-02
DAV:  12    -0.136676331100E+04   -0.35821E-05   -0.58138E-05  2408   0.150E-02    0.143E-02
DAV:  13    -0.136676330864E+04    0.23522E-05   -0.17842E-05  1920   0.897E-03    0.801E-03
DAV:  14    -0.136676330838E+04    0.26276E-06   -0.87201E-06  1744   0.639E-03
   6 F= -.13667633E+04 E0= -.13667633E+04  d E =-.893810E+00
 BRION: g(F)=  0.447E+00 g(S)=  0.000E+00 retain N=  5 mean eig= 2.25
 eig:   3.592  3.592  1.611  1.611  0.868
 bond charge predicted
       N       E                     dE             d eps       ncg     rms          rms(c)
DAV:   1    -0.136699309626E+04   -0.22979E+00   -0.12785E+02  1352   0.164E+01    0.196E+00
DAV:   2    -0.136762804686E+04   -0.63495E+00   -0.66923E+00  2304   0.627E+00    0.980E-01
DAV:   3    -0.136766483008E+04   -0.36783E-01   -0.51581E-01  2584   0.122E+00    0.778E-01
DAV:   4    -0.136765756050E+04    0.72696E-02   -0.55383E-02  2608   0.549E-01    0.527E-01
DAV:   5    -0.136765251366E+04    0.50468E-02   -0.28643E-02  2352   0.336E-01    0.215E-01
DAV:   6    -0.136765342028E+04   -0.90662E-03   -0.14834E-02  2496   0.240E-01    0.183E-01
DAV:   7    -0.136765327647E+04    0.14381E-03   -0.72666E-03  2464   0.160E-01    0.122E-01
DAV:   8    -0.136765326082E+04    0.15653E-04   -0.28593E-03  2592   0.103E-01    0.706E-02
DAV:   9    -0.136765324047E+04    0.20356E-04   -0.47557E-04  2552   0.481E-02    0.512E-02
DAV:  10    -0.136765324077E+04   -0.30400E-06   -0.29257E-04  2504   0.304E-02    0.279E-02
DAV:  11    -0.136765324220E+04   -0.14257E-05   -0.99613E-05  2504   0.217E-02    0.147E-02
DAV:  12    -0.136765324285E+04   -0.65849E-06   -0.40868E-05  2384   0.140E-02    0.131E-02
DAV:  13    -0.136765324173E+04    0.11187E-05   -0.22463E-05  1984   0.881E-03    0.690E-03
DAV:  14    -0.136765324158E+04    0.15837E-06   -0.59830E-06  1488   0.600E-03
   7 F= -.13676532E+04 E0= -.13676532E+04  d E =-.889933E+00
 BRION: g(F)=  0.279E+00 g(S)=  0.000E+00 retain N=  6 mean eig= 3.11
 eig:   5.885  5.885  2.347  2.347  1.104  1.104
 bond charge predicted
       N       E                     dE             d eps       ncg     rms          rms(c)
DAV:   1    -0.136782526426E+04   -0.17202E+00   -0.83994E+01  1376   0.131E+01    0.162E+00
DAV:   2    -0.136824705059E+04   -0.42179E+00   -0.44492E+00  2288   0.514E+00    0.790E-01
DAV:   3    -0.136827046759E+04   -0.23417E-01   -0.34262E-01  2568   0.994E-01    0.627E-01
DAV:   4    -0.136826475334E+04    0.57143E-02   -0.40045E-02  2576   0.454E-01    0.404E-01
DAV:   5    -0.136826156435E+04    0.31890E-02   -0.18431E-02  2376   0.279E-01    0.162E-01
DAV:   6    -0.136826219595E+04   -0.63159E-03   -0.94327E-03  2496   0.189E-01    0.134E-01
DAV:   7    -0.136826213337E+04    0.62575E-04   -0.37624E-03  2440   0.117E-01    0.940E-02
DAV:   8    -0.136826213333E+04    0.45999E-07   -0.18135E-03  2584   0.775E-02    0.537E-02
DAV:   9    -0.136826211998E+04    0.13344E-04   -0.28290E-04  2560   0.382E-02    0.401E-02
DAV:  10    -0.136826211738E+04    0.26037E-05   -0.19555E-04  2576   0.253E-02    0.233E-02
DAV:  11    -0.136826211665E+04    0.73283E-06   -0.73530E-05  2440   0.177E-02    0.107E-02
DAV:  12    -0.136826211719E+04   -0.54837E-06   -0.22544E-05  2232   0.110E-02    0.919E-03
DAV:  13    -0.136826211697E+04    0.22461E-06   -0.14027E-05  1760   0.700E-03    0.524E-03
DAV:  14    -0.136826211673E+04    0.24043E-06   -0.19798E-06   992   0.496E-03
   8 F= -.13682621E+04 E0= -.13682621E+04  d E =-.608875E+00
 BRION: g(F)=  0.197E+00 g(S)=  0.000E+00 retain N=  4 mean eig= 4.56
 eig:   7.042  7.042  2.069  2.069
 bond charge predicted
       N       E                     dE             d eps       ncg     rms          rms(c)
DAV:   1    -0.136837638685E+04   -0.11427E+00   -0.70412E+01  1384   0.120E+01    0.148E+00
DAV:   2    -0.136873667482E+04   -0.36029E+00   -0.38268E+00  2304   0.476E+00    0.728E-01
DAV:   3    -0.136875777568E+04   -0.21101E-01   -0.30123E-01  2568   0.914E-01    0.589E-01
DAV:   4    -0.136875340326E+04    0.43724E-02   -0.32398E-02  2608   0.414E-01    0.398E-01
DAV:   5    -0.136875006728E+04    0.33360E-02   -0.16429E-02  2344   0.258E-01    0.154E-01
DAV:   6    -0.136875063308E+04   -0.56580E-03   -0.85808E-03  2496   0.175E-01    0.132E-01
DAV:   7    -0.136875056069E+04    0.72395E-04   -0.32423E-03  2488   0.109E-01    0.884E-02
DAV:   8    -0.136875054114E+04    0.19547E-04   -0.14299E-03  2568   0.714E-02    0.470E-02
DAV:   9    -0.136875053670E+04    0.44461E-05   -0.23298E-04  2544   0.339E-02    0.350E-02
DAV:  10    -0.136875053761E+04   -0.91258E-06   -0.10843E-04  2592   0.200E-02    0.179E-02
DAV:  11    -0.136875053858E+04   -0.97560E-06   -0.41402E-05  2472   0.135E-02    0.970E-03
DAV:  12    -0.136875053848E+04    0.10592E-06   -0.13945E-05  1952   0.905E-03    0.793E-03
DAV:  13    -0.136875053847E+04    0.13039E-07   -0.11727E-05  1728   0.629E-03    0.484E-03
DAV:  14    -0.136875053822E+04    0.24348E-06   -0.13283E-06   984   0.434E-03
   9 F= -.13687505E+04 E0= -.13687505E+04  d E =-.488421E+00
 BRION: g(F)=  0.155E+00 g(S)=  0.000E+00 retain N=  3 mean eig= 4.83
 eig:   6.156  6.156  2.191
 bond charge predicted
       N       E                     dE             d eps       ncg     rms          rms(c)
DAV:   1    -0.136887436682E+04   -0.12383E+00   -0.37920E+01  1384   0.893E+00    0.107E+00
DAV:   2    -0.136907680518E+04   -0.20244E+00   -0.21656E+00  2304   0.368E+00    0.536E-01
DAV:   3    -0.136908848151E+04   -0.11676E-01   -0.17147E-01  2576   0.698E-01    0.431E-01
DAV:   4    -0.136908585907E+04    0.26224E-02   -0.17694E-02  2608   0.318E-01    0.306E-01
DAV:   5    -0.136908338722E+04    0.24718E-02   -0.93464E-03  2336   0.203E-01    0.125E-01
DAV:   6    -0.136908355266E+04   -0.16544E-03   -0.65566E-03  2400   0.159E-01    0.103E-01
DAV:   7    -0.136908358089E+04   -0.28226E-04   -0.30904E-03  2392   0.101E-01    0.807E-02
DAV:   8    -0.136908355886E+04    0.22025E-04   -0.10478E-03  2608   0.618E-02    0.417E-02
DAV:   9    -0.136908354724E+04    0.11627E-04   -0.24338E-04  2560   0.323E-02    0.273E-02
DAV:  10    -0.136908355206E+04   -0.48208E-05   -0.11014E-04  2544   0.201E-02    0.193E-02
DAV:  11    -0.136908355022E+04    0.18387E-05   -0.49721E-05  2400   0.149E-02    0.104E-02
DAV:  12    -0.136908355057E+04   -0.35476E-06   -0.20795E-05  2232   0.102E-02    0.101E-02
DAV:  13    -0.136908354964E+04    0.93457E-06   -0.12389E-05  1760   0.685E-03    0.506E-03
DAV:  14    -0.136908354938E+04    0.25817E-06   -0.28785E-06  1080   0.509E-03
  10 F= -.13690835E+04 E0= -.13690835E+04  d E =-.333011E+00
 BRION: g(F)=  0.132E+00 g(S)=  0.000E+00 retain N=  3 mean eig= 5.33
 eig:   7.008  7.008  1.964
 bond charge predicted
       N       E                     dE             d eps       ncg     rms          rms(c)
DAV:   1    -0.136920297526E+04   -0.11943E+00   -0.30005E+01  1384   0.791E+00    0.973E-01
DAV:   2    -0.136936410782E+04   -0.16113E+00   -0.17254E+00  2320   0.326E+00    0.481E-01
DAV:   3    -0.136937378859E+04   -0.96808E-02   -0.13743E-01  2576   0.619E-01    0.394E-01
DAV:   4    -0.136937186268E+04    0.19259E-02   -0.13565E-02  2608   0.279E-01    0.281E-01
DAV:   5    -0.136936989072E+04    0.19720E-02   -0.80345E-03  2288   0.186E-01    0.106E-01
DAV:   6    -0.136937018965E+04   -0.29893E-03   -0.51134E-03  2480   0.133E-01    0.101E-01
DAV:   7    -0.136937014603E+04    0.43619E-04   -0.16480E-03  2512   0.780E-02    0.699E-02
DAV:   8    -0.136937011924E+04    0.26798E-04   -0.74125E-04  2568   0.509E-02    0.320E-02
DAV:   9    -0.136937011556E+04    0.36739E-05   -0.12512E-04  2256   0.248E-02    0.228E-02
DAV:  10    -0.136937011668E+04   -0.11221E-05   -0.40464E-05  2504   0.131E-02    0.111E-02
DAV:  11    -0.136937011676E+04   -0.75859E-07   -0.12970E-05  2080   0.824E-03    0.518E-03
DAV:  12    -0.136937011708E+04   -0.31645E-06   -0.49424E-06  1328   0.551E-03
  11 F= -.13693701E+04 E0= -.13693701E+04  d E =-.286568E+00
 BRION: g(F)=  0.116E+00 g(S)=  0.000E+00 retain N=  3 mean eig= 5.67
 eig:   7.583  7.583  1.846
 bond charge predicted
       N       E                     dE             d eps       ncg     rms          rms(c)
DAV:   1    -0.136948712071E+04   -0.11700E+00   -0.23308E+01  1384   0.701E+00    0.839E-01
DAV:   2    -0.136961430235E+04   -0.12718E+00   -0.13597E+00  2320   0.293E+00    0.420E-01
DAV:   3    -0.136962180765E+04   -0.75053E-02   -0.10766E-01  2576   0.547E-01    0.341E-01
DAV:   4    -0.136962025101E+04    0.15566E-02   -0.10188E-02  2600   0.246E-01    0.250E-01
DAV:   5    -0.136961845688E+04    0.17941E-02   -0.62800E-03  2272   0.166E-01    0.939E-02
DAV:   6    -0.136961866633E+04   -0.20945E-03   -0.44513E-03  2416   0.124E-01    0.868E-02
DAV:   7    -0.136961865067E+04    0.15661E-04   -0.13969E-03  2432   0.704E-02    0.634E-02
DAV:   8    -0.136961863179E+04    0.18877E-04   -0.58070E-04  2576   0.452E-02    0.302E-02
DAV:   9    -0.136961862346E+04    0.83314E-05   -0.12583E-04  2232   0.238E-02    0.197E-02
DAV:  10    -0.136961862509E+04   -0.16370E-05   -0.34233E-05  2432   0.122E-02    0.116E-02
DAV:  11    -0.136961862436E+04    0.73558E-06   -0.14639E-05  1976   0.798E-03    0.470E-03
DAV:  12    -0.136961862454E+04   -0.17890E-06   -0.34475E-06  1168   0.554E-03
  12 F= -.13696186E+04 E0= -.13696186E+04  d E =-.248507E+00
 BRION: g(F)=  0.107E+00 g(S)=  0.000E+00 retain N=  3 mean eig= 5.08
 eig:   6.709  6.709  1.815
 bond charge predicted
       N       E                     dE             d eps       ncg     rms          rms(c)
DAV:   1    -0.136973118890E+04   -0.11256E+00   -0.23332E+01  1376   0.698E+00    0.833E-01
DAV:   2    -0.136985804847E+04   -0.12686E+00   -0.13514E+00  2328   0.289E+00    0.417E-01
DAV:   3    -0.136986523567E+04   -0.71872E-02   -0.10413E-01  2592   0.544E-01    0.333E-01
DAV:   4    -0.136986356574E+04    0.16699E-02   -0.96736E-03  2600   0.242E-01    0.239E-01
DAV:   5    -0.136986189972E+04    0.16660E-02   -0.62412E-03  2264   0.167E-01    0.842E-02
DAV:   6    -0.136986216133E+04   -0.26162E-03   -0.40838E-03  2480   0.116E-01    0.862E-02
DAV:   7    -0.136986214519E+04    0.16145E-04   -0.10541E-03  2536   0.624E-02    0.625E-02
DAV:   8    -0.136986211802E+04    0.27166E-04   -0.46350E-04  2552   0.403E-02    0.298E-02
DAV:   9    -0.136986211007E+04    0.79578E-05   -0.97470E-05  2240   0.214E-02    0.190E-02
DAV:  10    -0.136986211107E+04   -0.10080E-05   -0.29206E-05  2256   0.112E-02    0.980E-03
DAV:  11    -0.136986211087E+04    0.19965E-06   -0.12205E-05  1872   0.680E-03    0.418E-03
DAV:  12    -0.136986211086E+04    0.10739E-07   -0.15409E-06   992   0.483E-03
  13 F= -.13698621E+04 E0= -.13698621E+04  d E =-.243486E+00
 BRION: g(F)=  0.101E+00 g(S)=  0.000E+00 retain N=  3 mean eig= 5.91
 eig:   7.870  7.870  1.982
 bond charge predicted
       N       E                     dE             d eps       ncg     rms          rms(c)
DAV:   1    -0.136997546362E+04   -0.11335E+00   -0.18220E+01  1376   0.614E+00    0.713E-01
DAV:   2    -0.137007235667E+04   -0.96893E-01   -0.10286E+00  2304   0.252E+00    0.357E-01
DAV:   3    -0.137007824070E+04   -0.58840E-02   -0.82007E-02  2584   0.476E-01    0.291E-01
DAV:   4    -0.137007715381E+04    0.10869E-02   -0.70202E-03  2600   0.205E-01    0.217E-01
DAV:   5    -0.137007570332E+04    0.14505E-02   -0.47631E-03  2224   0.143E-01    0.780E-02
DAV:   6    -0.137007589663E+04   -0.19331E-03   -0.33904E-03  2400   0.103E-01    0.792E-02
DAV:   7    -0.137007587665E+04    0.19976E-04   -0.85944E-04  2504   0.563E-02    0.576E-02
DAV:   8    -0.137007585172E+04    0.24926E-04   -0.38267E-04  2528   0.366E-02    0.282E-02
DAV:   9    -0.137007584156E+04    0.10167E-04   -0.98359E-05  2216   0.206E-02    0.169E-02
DAV:  10    -0.137007584313E+04   -0.15743E-05   -0.29672E-05  2304   0.108E-02    0.104E-02
DAV:  11    -0.137007584209E+04    0.10457E-05   -0.10495E-05  1608   0.693E-03    0.406E-03
DAV:  12    -0.137007584204E+04    0.41138E-07   -0.23813E-06   992   0.605E-03
  14 F= -.13700758E+04 E0= -.13700758E+04  d E =-.213731E+00
 BRION: g(F)=  0.970E-01 g(S)=  0.000E+00 retain N=  3 mean eig= 5.33
 eig:   6.991  6.991  2.004
 bond charge predicted
       N       E                     dE             d eps       ncg     rms          rms(c)
DAV:   1    -0.137017842205E+04   -0.10258E+00   -0.11201E+01  1376   0.480E+00    0.557E-01
DAV:   2    -0.137023688838E+04   -0.58466E-01   -0.61689E-01  2304   0.192E+00    0.279E-01
DAV:   3    -0.137024025067E+04   -0.33623E-02   -0.47975E-02  2592   0.370E-01    0.221E-01
DAV:   4    -0.137023946260E+04    0.78807E-03   -0.42188E-03  2592   0.157E-01    0.157E-01
DAV:   5    -0.137023871439E+04    0.74821E-03   -0.28934E-03  2208   0.111E-01    0.523E-02
DAV:   6    -0.137023884623E+04   -0.13184E-03   -0.17573E-03  2496   0.743E-02    0.578E-02
DAV:   7    -0.137023883800E+04    0.82325E-05   -0.41532E-04  2560   0.394E-02    0.411E-02
DAV:   8    -0.137023882169E+04    0.16307E-04   -0.17120E-04  2528   0.249E-02    0.203E-02
DAV:   9    -0.137023881892E+04    0.27720E-05   -0.39256E-05  2344   0.137E-02    0.119E-02
DAV:  10    -0.137023881929E+04   -0.37736E-06   -0.11019E-05  2064   0.739E-03    0.560E-03
DAV:  11    -0.137023881914E+04    0.15233E-06   -0.21699E-06  1008   0.466E-03
  15 F= -.13702388E+04 E0= -.13702388E+04  d E =-.162977E+00
 BRION: g(F)=  0.945E-01 g(S)=  0.000E+00 retain N=  3 mean eig= 4.15
 eig:   5.377  5.377  1.682
 bond charge predicted
       N       E                     dE             d eps       ncg     rms          rms(c)
DAV:   1    -0.137034723046E+04   -0.10841E+00   -0.12324E+01  1368   0.499E+00    0.566E-01
DAV:   2    -0.137041082188E+04   -0.63591E-01   -0.66966E-01  2320   0.199E+00    0.286E-01
DAV:   3    -0.137041435737E+04   -0.35355E-02   -0.50372E-02  2592   0.382E-01    0.226E-01
DAV:   4    -0.137041355380E+04    0.80357E-03   -0.44156E-03  2584   0.159E-01    0.160E-01
DAV:   5    -0.137041278335E+04    0.77045E-03   -0.30156E-03  2176   0.111E-01    0.528E-02
DAV:   6    -0.137041292285E+04   -0.13950E-03   -0.17254E-03  2496   0.720E-02    0.589E-02
DAV:   7    -0.137041291295E+04    0.98994E-05   -0.38637E-04  2584   0.379E-02    0.412E-02
DAV:   8    -0.137041289373E+04    0.19220E-04   -0.17066E-04  2528   0.253E-02    0.200E-02
DAV:   9    -0.137041289274E+04    0.98799E-06   -0.39559E-05  2424   0.136E-02    0.121E-02
DAV:  10    -0.137041289281E+04   -0.67754E-07   -0.77890E-06  1752   0.716E-03
  16 F= -.13704129E+04 E0= -.13704129E+04  d E =-.174074E+00
 BRION: g(F)=  0.929E-01 g(S)=  0.000E+00 retain N=  3 mean eig= 3.60
 eig:   4.651  4.651  1.512
 bond charge predicted
       N       E                     dE             d eps       ncg     rms          rms(c)
DAV:   1    -0.137051363054E+04   -0.10074E+00   -0.89040E+00  1376   0.424E+00    0.478E-01
DAV:   2    -0.137055917323E+04   -0.45543E-01   -0.47875E-01  2320   0.168E+00    0.242E-01
DAV:   3    -0.137056160081E+04   -0.24276E-02   -0.35129E-02  2592   0.327E-01    0.189E-01
DAV:   4    -0.137056098484E+04    0.61596E-03   -0.32246E-03  2592   0.134E-01    0.129E-01
DAV:   5    -0.137056051311E+04    0.47174E-03   -0.21192E-03  2200   0.918E-02    0.428E-02
DAV:   6    -0.137056060438E+04   -0.91272E-04   -0.10710E-03  2528   0.572E-02    0.459E-02
DAV:   7    -0.137056059863E+04    0.57481E-05   -0.25785E-04  2544   0.311E-02    0.305E-02
DAV:   8    -0.137056058896E+04    0.96724E-05   -0.10333E-04  2568   0.200E-02    0.148E-02
DAV:   9    -0.137056058963E+04   -0.67554E-06   -0.20969E-05  2264   0.107E-02    0.941E-03
DAV:  10    -0.137056058975E+04   -0.11992E-06   -0.46464E-06  1352   0.580E-03
  17 F= -.13705606E+04 E0= -.13705606E+04  d E =-.147697E+00
 BRION: g(F)=  0.916E-01 g(S)=  0.000E+00 retain N=  3 mean eig= 2.87
 eig:   3.643  3.643  1.338
 bond charge predicted
       N       E                     dE             d eps       ncg     rms          rms(c)
DAV:   1    -0.137065638860E+04   -0.95799E-01   -0.70068E+00  1376   0.375E+00    0.419E-01
DAV:   2    -0.137069176534E+04   -0.35377E-01   -0.37098E-01  2304   0.147E+00    0.211E-01
DAV:   3    -0.137069369926E+04   -0.19339E-02   -0.27622E-02  2592   0.293E-01    0.163E-01
DAV:   4    -0.137069321424E+04    0.48502E-03   -0.25044E-03  2576   0.118E-01    0.110E-01
DAV:   5    -0.137069287658E+04    0.33766E-03   -0.15750E-03  2224   0.788E-02    0.361E-02
DAV:   6    -0.137069294197E+04   -0.65389E-04   -0.75522E-04  2528   0.490E-02    0.370E-02
DAV:   7    -0.137069293993E+04    0.20381E-05   -0.18498E-04  2552   0.265E-02    0.244E-02
DAV:   8    -0.137069293412E+04    0.58120E-05   -0.69170E-05  2560   0.169E-02    0.120E-02
DAV:   9    -0.137069293476E+04   -0.64373E-06   -0.14105E-05  2096   0.917E-03    0.769E-03
DAV:  10    -0.137069293499E+04   -0.22295E-06   -0.49291E-06  1408   0.551E-03
  18 F= -.13706929E+04 E0= -.13706929E+04  d E =-.132345E+00
 BRION: g(F)=  0.908E-01 g(S)=  0.000E+00 retain N=  3 mean eig= 2.81
 eig:   3.505  3.505  1.407
 bond charge predicted
       N       E                     dE             d eps       ncg     rms          rms(c)
DAV:   1    -0.137078863155E+04   -0.95697E-01   -0.65425E+00  1368   0.360E+00    0.399E-01
DAV:   2    -0.137082135020E+04   -0.32719E-01   -0.34315E-01  2296   0.141E+00    0.200E-01
DAV:   3    -0.137082326305E+04   -0.19128E-02   -0.26398E-02  2592   0.278E-01    0.156E-01
DAV:   4    -0.137082287117E+04    0.39187E-03   -0.22106E-03  2584   0.111E-01    0.110E-01
DAV:   5    -0.137082252888E+04    0.34229E-03   -0.13922E-03  2216   0.736E-02    0.368E-02
DAV:   6    -0.137082258626E+04   -0.57380E-04   -0.74083E-04  2512   0.477E-02    0.368E-02
DAV:   7    -0.137082258353E+04    0.27333E-05   -0.19905E-04  2512   0.269E-02    0.243E-02
DAV:   8    -0.137082257803E+04    0.54947E-05   -0.78012E-05  2536   0.176E-02    0.121E-02
DAV:   9    -0.137082257808E+04   -0.45096E-07   -0.13514E-05  2056   0.895E-03    0.846E-03
DAV:  10    -0.137082257825E+04   -0.16762E-06   -0.69870E-06  1576   0.587E-03
  19 F= -.13708226E+04 E0= -.13708226E+04  d E =-.129643E+00
 BRION: g(F)=  0.904E-01 g(S)=  0.000E+00 retain N=  3 mean eig= 2.44
 eig:   2.968  2.968  1.397
 bond charge predicted
       N       E                     dE             d eps       ncg     rms          rms(c)
DAV:   1    -0.137091050088E+04   -0.87923E-01   -0.49245E+00  1360   0.314E+00    0.351E-01
DAV:   2    -0.137093519367E+04   -0.24693E-01   -0.25898E-01  2296   0.122E+00    0.176E-01
DAV:   3    -0.137093657608E+04   -0.13824E-02   -0.19512E-02  2592   0.246E-01    0.135E-01
DAV:   4    -0.137093624378E+04    0.33229E-03   -0.17272E-03  2584   0.978E-02    0.910E-02
DAV:   5    -0.137093602009E+04    0.22369E-03   -0.10528E-03  2232   0.640E-02    0.303E-02
DAV:   6    -0.137093606157E+04   -0.41478E-04   -0.49640E-04  2528   0.400E-02    0.295E-02
DAV:   7    -0.137093606101E+04    0.55402E-06   -0.13199E-04  2544   0.222E-02    0.190E-02
DAV:   8    -0.137093605809E+04    0.29264E-05   -0.45541E-05  2552   0.139E-02    0.972E-03
DAV:   9    -0.137093605822E+04   -0.13800E-06   -0.72175E-06  1568   0.746E-03
  20 F= -.13709361E+04 E0= -.13709361E+04  d E =-.113480E+00
 BRION: g(F)=  0.898E-01 g(S)=  0.000E+00 retain N=  3 mean eig= 2.22
 eig:   2.625  2.625  1.400
