 running on  160 total cores
 distrk:  each k-point on  160 cores,    1 groups
 distr:  one band on   20 cores,    8 groups
 using from now: INCAR     
 vasp.5.4.4.18Apr17-6-g9f103f2a35 (build May 01 2020 14:22:42) gamma-only       
  
 POSCAR found type information on POSCAR  O  La Zr Li Al
 POSCAR found :  5 types and     192 ions
 scaLAPACK will be used
 LDA part: xc-table for Pade appr. of Perdew
 POSCAR, INCAR and KPOINTS ok, starting setup
 FFT: planning ...
 WAVECAR not read
 WARNING: random wavefunctions but no delay for mixing, default for NELMDL
 entering main loop
       N       E                     dE             d eps       ncg     rms          rms(c)
DAV:   1     0.254252896262E+05    0.25425E+05   -0.41892E+05  1568   0.253E+03
DAV:   2     0.953511310788E+04   -0.15890E+05   -0.14645E+05  1408   0.710E+02
DAV:   3     0.272043963546E+04   -0.68147E+04   -0.62121E+04  1512   0.359E+02
DAV:   4    -0.373335132147E+03   -0.30938E+04   -0.28939E+04  2048   0.226E+02
DAV:   5    -0.143322236594E+04   -0.10599E+04   -0.10255E+04  2520   0.141E+02    0.117E+02
DAV:   6    -0.131057383487E+04    0.12265E+03   -0.14020E+03  2448   0.655E+01    0.502E+01
DAV:   7    -0.133485236809E+04   -0.24279E+02   -0.39794E+02  2552   0.333E+01    0.246E+01
DAV:   8    -0.134599012152E+04   -0.11138E+02   -0.28239E+02  2536   0.275E+01    0.276E+01
DAV:   9    -0.133719382515E+04    0.87963E+01   -0.65464E+01  2456   0.156E+01    0.791E+00
DAV:  10    -0.133858492980E+04   -0.13911E+01   -0.16506E+01  2600   0.872E+00    0.891E+00
DAV:  11    -0.133859848488E+04   -0.13555E-01   -0.86744E+00  2608   0.493E+00    0.453E+00
DAV:  12    -0.133844371268E+04    0.15477E+00   -0.31821E+00  2576   0.393E+00    0.307E+00
DAV:  13    -0.133854451961E+04   -0.10081E+00   -0.10229E+00  2528   0.186E+00    0.239E+00
DAV:  14    -0.133851003708E+04    0.34483E-01   -0.43823E-01  2568   0.130E+00    0.117E+00
DAV:  15    -0.133852339335E+04   -0.13356E-01   -0.14392E-01  2568   0.734E-01    0.113E+00
DAV:  16    -0.133852208898E+04    0.13044E-02   -0.47713E-02  2600   0.437E-01    0.757E-01
DAV:  17    -0.133851881042E+04    0.32786E-02   -0.35271E-02  2488   0.354E-01    0.339E-01
DAV:  18    -0.133851930139E+04   -0.49096E-03   -0.63237E-03  2552   0.178E-01    0.217E-01
DAV:  19    -0.133851898618E+04    0.31521E-03   -0.38459E-03  2512   0.117E-01    0.149E-01
DAV:  20    -0.133851901880E+04   -0.32620E-04   -0.10046E-03  2560   0.622E-02    0.441E-02
DAV:  21    -0.133851903339E+04   -0.14593E-04   -0.25038E-04  2616   0.324E-02    0.472E-02
DAV:  22    -0.133851905362E+04   -0.20224E-04   -0.98242E-05  2472   0.209E-02    0.168E-02
DAV:  23    -0.133851905230E+04    0.13125E-05   -0.32477E-05  2192   0.114E-02    0.117E-02
DAV:  24    -0.133851905612E+04   -0.38186E-05   -0.16143E-05  1768   0.923E-03    0.379E-03
DAV:  25    -0.133851905563E+04    0.49490E-06   -0.40609E-06  1040   0.562E-03
   1 F= -.13385191E+04 E0= -.13385191E+04  d E =-.133852E+04
 BRION: g(F)=  0.399E+02 g(S)=  0.000E+00
 bond charge predicted
       N       E                     dE             d eps       ncg     rms          rms(c)
DAV:   1    -0.132722488109E+04    0.11294E+02   -0.47350E+03  1664   0.106E+02    0.178E+01
DAV:   2    -0.135785879283E+04   -0.30634E+02   -0.36496E+02  2584   0.459E+01    0.101E+01
DAV:   3    -0.135740453907E+04    0.45425E+00   -0.23610E+01  2616   0.124E+01    0.720E+00
DAV:   4    -0.135610907034E+04    0.12955E+01   -0.54749E+00  2552   0.519E+00    0.387E+00
DAV:   5    -0.135564146448E+04    0.46761E+00   -0.20893E+00  2368   0.387E+00    0.230E+00
DAV:   6    -0.135561840897E+04    0.23056E-01   -0.25076E+00  2440   0.315E+00    0.124E+00
DAV:   7    -0.135565111809E+04   -0.32709E-01   -0.62624E-01  2408   0.162E+00    0.131E+00
DAV:   8    -0.135564510735E+04    0.60107E-02   -0.15278E-01  2616   0.668E-01    0.749E-01
DAV:   9    -0.135564102789E+04    0.40795E-02   -0.58155E-02  2624   0.478E-01    0.342E-01
DAV:  10    -0.135564072620E+04    0.30169E-03   -0.13653E-02  2488   0.296E-01    0.214E-01
DAV:  11    -0.135564077274E+04   -0.46540E-04   -0.99695E-03  2576   0.199E-01    0.125E-01
DAV:  12    -0.135564089664E+04   -0.12390E-03   -0.34047E-03  2528   0.111E-01    0.692E-02
DAV:  13    -0.135564097113E+04   -0.74495E-04   -0.12677E-03  2536   0.632E-02    0.439E-02
DAV:  14    -0.135564095180E+04    0.19332E-04   -0.28407E-04  2616   0.402E-02    0.217E-02
DAV:  15    -0.135564096298E+04   -0.11180E-04   -0.20406E-04  2616   0.255E-02    0.160E-02
DAV:  16    -0.135564096250E+04    0.48481E-06   -0.28008E-05  2576   0.118E-02    0.108E-02
DAV:  17    -0.135564096170E+04    0.79664E-06   -0.12713E-05  1912   0.756E-03    0.525E-03
DAV:  18    -0.135564096205E+04   -0.35201E-06   -0.41187E-06  1240   0.560E-03
   2 F= -.13556410E+04 E0= -.13556410E+04  d E =-.171219E+02
 BRION: g(F)=  0.158E+02 g(S)=  0.000E+00 retain N=  1 mean eig= 0.68
 eig:   0.678
 bond charge predicted
       N       E                     dE             d eps       ncg     rms          rms(c)
DAV:   1    -0.135185278770E+04    0.37882E+01   -0.14387E+03  1456   0.545E+01    0.101E+01
DAV:   2    -0.136050152753E+04   -0.86487E+01   -0.10686E+02  2496   0.241E+01    0.804E+00
DAV:   3    -0.136079276570E+04   -0.29124E+00   -0.86346E+00  2560   0.678E+00    0.637E+00
DAV:   4    -0.136048420574E+04    0.30856E+00   -0.21050E+00  2568   0.308E+00    0.376E+00
DAV:   5    -0.136034766248E+04    0.13654E+00   -0.10803E+00  2136   0.264E+00    0.232E+00
DAV:   6    -0.136031370098E+04    0.33961E-01   -0.10565E+00  2504   0.188E+00    0.144E+00
DAV:   7    -0.136031572644E+04   -0.20255E-02   -0.35332E-01  2528   0.110E+00    0.815E-01
DAV:   8    -0.136031438420E+04    0.13422E-02   -0.47126E-02  2624   0.447E-01    0.556E-01
DAV:   9    -0.136031303015E+04    0.13541E-02   -0.21583E-02  2608   0.298E-01    0.358E-01
DAV:  10    -0.136031230483E+04    0.72532E-03   -0.74552E-03  2312   0.195E-01    0.277E-01
DAV:  11    -0.136031184284E+04    0.46198E-03   -0.11819E-02  2304   0.163E-01    0.934E-02
DAV:  12    -0.136031178328E+04    0.59561E-04   -0.14227E-03  2448   0.927E-02    0.492E-02
DAV:  13    -0.136031182135E+04   -0.38067E-04   -0.73945E-04  2472   0.500E-02    0.310E-02
DAV:  14    -0.136031181879E+04    0.25649E-05   -0.15938E-04  2528   0.293E-02    0.217E-02
DAV:  15    -0.136031182192E+04   -0.31298E-05   -0.11291E-04  2416   0.173E-02    0.113E-02
DAV:  16    -0.136031182141E+04    0.50805E-06   -0.13306E-05  1896   0.894E-03    0.879E-03
DAV:  17    -0.136031182049E+04    0.91879E-06   -0.93514E-06  1648   0.675E-03
   3 F= -.13603118E+04 E0= -.13603118E+04  d E =-.467086E+01
 BRION: g(F)=  0.378E+01 g(S)=  0.000E+00 retain N=  2 mean eig= 0.70
 eig:   0.438  0.958
 bond charge predicted
       N       E                     dE             d eps       ncg     rms          rms(c)
DAV:   1    -0.136119676459E+04   -0.88494E+00   -0.33602E+02  1368   0.269E+01    0.491E+00
DAV:   2    -0.136283171106E+04   -0.16349E+01   -0.18565E+01  2304   0.102E+01    0.214E+00
DAV:   3    -0.136289113445E+04   -0.59423E-01   -0.16246E+00  2608   0.241E+00    0.182E+00
DAV:   4    -0.136284122385E+04    0.49911E-01   -0.29820E-01  2608   0.122E+00    0.994E-01
DAV:   5    -0.136282389732E+04    0.17327E-01   -0.14072E-01  2264   0.797E-01    0.555E-01
DAV:   6    -0.136282449284E+04   -0.59552E-03   -0.81865E-02  2592   0.575E-01    0.440E-01
DAV:   7    -0.136282395313E+04    0.53970E-03   -0.41971E-02  2392   0.360E-01    0.288E-01
DAV:   8    -0.136282366643E+04    0.28670E-03   -0.10139E-02  2592   0.191E-01    0.152E-01
DAV:   9    -0.136282351328E+04    0.15315E-03   -0.22220E-03  2616   0.105E-01    0.991E-02
DAV:  10    -0.136282369646E+04   -0.18318E-03   -0.27884E-03  2248   0.850E-02    0.107E-01
DAV:  11    -0.136282352805E+04    0.16840E-03   -0.10139E-03  2528   0.667E-02    0.393E-02
DAV:  12    -0.136282356006E+04   -0.32010E-04   -0.64697E-04  2528   0.429E-02    0.374E-02
DAV:  13    -0.136282354259E+04    0.17473E-04   -0.15595E-04  2472   0.251E-02    0.124E-02
DAV:  14    -0.136282354577E+04   -0.31799E-05   -0.25634E-05  2168   0.112E-02    0.846E-03
DAV:  15    -0.136282354604E+04   -0.26902E-06   -0.86937E-06  1680   0.618E-03
   4 F= -.13628235E+04 E0= -.13628235E+04  d E =-.251173E+01
 BRION: g(F)=  0.112E+01 g(S)=  0.000E+00 retain N=  3 mean eig= 1.41
 eig:   0.750  1.733  1.733
 bond charge predicted
       N       E                     dE             d eps       ncg     rms          rms(c)
DAV:   1    -0.136337275797E+04   -0.54921E+00   -0.16713E+02  1360   0.187E+01    0.234E+00
DAV:   2    -0.136418814799E+04   -0.81539E+00   -0.86867E+00  2312   0.711E+00    0.119E+00
DAV:   3    -0.136423192337E+04   -0.43775E-01   -0.67576E-01  2600   0.140E+00    0.994E-01
DAV:   4    -0.136421970566E+04    0.12218E-01   -0.78691E-02  2616   0.647E-01    0.661E-01
DAV:   5    -0.136421100615E+04    0.86995E-02   -0.43567E-02  2336   0.411E-01    0.278E-01
DAV:   6    -0.136421221478E+04   -0.12086E-02   -0.23936E-02  2504   0.306E-01    0.265E-01
DAV:   7    -0.136421170289E+04    0.51189E-03   -0.13850E-02  2408   0.218E-01    0.167E-01
DAV:   8    -0.136421166038E+04    0.42509E-04   -0.51781E-03  2584   0.137E-01    0.910E-02
DAV:   9    -0.136421162479E+04    0.35585E-04   -0.82876E-04  2576   0.635E-02    0.659E-02
DAV:  10    -0.136421163060E+04   -0.58050E-05   -0.49290E-04  2496   0.382E-02    0.387E-02
DAV:  11    -0.136421162722E+04    0.33796E-05   -0.20672E-04  2504   0.311E-02    0.210E-02
DAV:  12    -0.136421162789E+04   -0.66993E-06   -0.87106E-05  2432   0.206E-02    0.195E-02
DAV:  13    -0.136421162537E+04    0.25220E-05   -0.49754E-05  2272   0.125E-02    0.101E-02
DAV:  14    -0.136421162507E+04    0.29252E-06   -0.15091E-05  1760   0.745E-03    0.459E-03
DAV:  15    -0.136421162520E+04   -0.12615E-06   -0.16519E-06   992   0.468E-03
   5 F= -.13642116E+04 E0= -.13642116E+04  d E =-.138808E+01
 BRION: g(F)=  0.630E+00 g(S)=  0.000E+00 retain N=  4 mean eig= 1.79
 eig:   2.493  2.493  1.091  1.091
 bond charge predicted
       N       E                     dE             d eps       ncg     rms          rms(c)
DAV:   1    -0.136460460071E+04   -0.39298E+00   -0.82544E+01  1376   0.132E+01    0.171E+00
DAV:   2    -0.136502790845E+04   -0.42331E+00   -0.45290E+00  2296   0.520E+00    0.845E-01
DAV:   3    -0.136505456612E+04   -0.26658E-01   -0.37749E-01  2584   0.105E+00    0.706E-01
DAV:   4    -0.136504917827E+04    0.53878E-02   -0.41351E-02  2616   0.481E-01    0.487E-01
DAV:   5    -0.136504488835E+04    0.42899E-02   -0.26242E-02  2248   0.313E-01    0.207E-01
DAV:   6    -0.136504567225E+04   -0.78391E-03   -0.13697E-02  2512   0.233E-01    0.217E-01
DAV:   7    -0.136504532684E+04    0.34541E-03   -0.83234E-03  2432   0.166E-01    0.134E-01
DAV:   8    -0.136504524613E+04    0.80704E-04   -0.29565E-03  2560   0.105E-01    0.636E-02
DAV:   9    -0.136504523492E+04    0.11210E-04   -0.42957E-04  2536   0.462E-02    0.453E-02
DAV:  10    -0.136504524222E+04   -0.72962E-05   -0.28683E-04  2360   0.299E-02    0.251E-02
DAV:  11    -0.136504523927E+04    0.29521E-05   -0.81761E-05  2496   0.215E-02    0.120E-02
DAV:  12    -0.136504524349E+04   -0.42192E-05   -0.55636E-05  2368   0.139E-02    0.155E-02
DAV:  13    -0.136504524022E+04    0.32654E-05   -0.20111E-05  2016   0.917E-03    0.741E-03
DAV:  14    -0.136504524014E+04    0.82757E-07   -0.59059E-06  1504   0.592E-03
   6 F= -.13650452E+04 E0= -.13650452E+04  d E =-.833615E+00
 BRION: g(F)=  0.428E+00 g(S)=  0.000E+00 retain N=  5 mean eig= 2.42
 eig:   4.118  4.118  1.476  1.476  0.890
 bond charge predicted
       N       E                     dE             d eps       ncg     rms          rms(c)
DAV:   1    -0.136538422781E+04   -0.33899E+00   -0.90030E+01  1376   0.137E+01    0.171E+00
DAV:   2    -0.136585580262E+04   -0.47157E+00   -0.49907E+00  2304   0.560E+00    0.855E-01
DAV:   3    -0.136588293109E+04   -0.27128E-01   -0.38812E-01  2592   0.105E+00    0.691E-01
DAV:   4    -0.136587672466E+04    0.62064E-02   -0.43309E-02  2624   0.488E-01    0.459E-01
DAV:   5    -0.136587272223E+04    0.40024E-02   -0.22481E-02  2328   0.298E-01    0.187E-01
DAV:   6    -0.136587359009E+04   -0.86785E-03   -0.12172E-02  2528   0.214E-01    0.173E-01
DAV:   7    -0.136587337971E+04    0.21038E-03   -0.57738E-03  2480   0.143E-01    0.114E-01
DAV:   8    -0.136587335817E+04    0.21534E-04   -0.24229E-03  2608   0.930E-02    0.624E-02
DAV:   9    -0.136587333753E+04    0.20644E-04   -0.37933E-04  2552   0.425E-02    0.448E-02
DAV:  10    -0.136587334200E+04   -0.44675E-05   -0.24592E-04  2552   0.277E-02    0.251E-02
DAV:  11    -0.136587334193E+04    0.64319E-07   -0.81840E-05  2472   0.198E-02    0.141E-02
DAV:  12    -0.136587334229E+04   -0.36063E-06   -0.33110E-05  2328   0.130E-02    0.123E-02
DAV:  13    -0.136587334127E+04    0.10248E-05   -0.22656E-05  1992   0.873E-03    0.588E-03
DAV:  14    -0.136587334105E+04    0.21899E-06   -0.34246E-06  1168   0.570E-03
   7 F= -.13658733E+04 E0= -.13658733E+04  d E =-.828101E+00
 BRION: g(F)=  0.309E+00 g(S)=  0.000E+00 retain N=  6 mean eig= 3.15
 eig:   5.963  5.963  2.390  2.390  1.099  1.099
 bond charge predicted
       N       E                     dE             d eps       ncg     rms          rms(c)
DAV:   1    -0.136617378132E+04   -0.30044E+00   -0.78023E+01  1368   0.126E+01    0.157E+00
DAV:   2    -0.136658344692E+04   -0.40967E+00   -0.43352E+00  2304   0.512E+00    0.785E-01
DAV:   3    -0.136660738257E+04   -0.23936E-01   -0.33896E-01  2576   0.962E-01    0.627E-01
DAV:   4    -0.136660201577E+04    0.53668E-02   -0.37244E-02  2608   0.447E-01    0.409E-01
DAV:   5    -0.136659889131E+04    0.31245E-02   -0.19108E-02  2352   0.273E-01    0.159E-01
DAV:   6    -0.136659964297E+04   -0.75166E-03   -0.88338E-03  2544   0.178E-01    0.142E-01
DAV:   7    -0.136659951630E+04    0.12667E-03   -0.37035E-03  2536   0.116E-01    0.893E-02
DAV:   8    -0.136659950403E+04    0.12274E-04   -0.14079E-03  2600   0.726E-02    0.499E-02
DAV:   9    -0.136659949571E+04    0.83180E-05   -0.23963E-04  2568   0.342E-02    0.358E-02
DAV:  10    -0.136659950189E+04   -0.61808E-05   -0.13956E-04  2568   0.215E-02    0.187E-02
DAV:  11    -0.136659950176E+04    0.13394E-06   -0.44207E-05  2488   0.147E-02    0.985E-03
DAV:  12    -0.136659950242E+04   -0.66381E-06   -0.17306E-05  2080   0.934E-03    0.855E-03
DAV:  13    -0.136659950196E+04    0.46544E-06   -0.94349E-06  1616   0.624E-03
   8 F= -.13665995E+04 E0= -.13665995E+04  d E =-.726161E+00
 BRION: g(F)=  0.246E+00 g(S)=  0.000E+00 retain N=  5 mean eig= 4.00
 eig:   7.357  7.357  2.107  2.107  1.085
 bond charge predicted
       N       E                     dE             d eps       ncg     rms          rms(c)
DAV:   1    -0.136689319873E+04   -0.29370E+00   -0.58174E+01  1376   0.108E+01    0.130E+00
DAV:   2    -0.136720037703E+04   -0.30718E+00   -0.32597E+00  2296   0.441E+00    0.661E-01
DAV:   3    -0.136721831155E+04   -0.17935E-01   -0.25678E-01  2584   0.829E-01    0.525E-01
DAV:   4    -0.136721399683E+04    0.43147E-02   -0.26518E-02  2584   0.383E-01    0.345E-01
DAV:   5    -0.136721131060E+04    0.26862E-02   -0.13236E-02  2336   0.234E-01    0.128E-01
DAV:   6    -0.136721184963E+04   -0.53903E-03   -0.72400E-03  2520   0.158E-01    0.112E-01
DAV:   7    -0.136721180991E+04    0.39716E-04   -0.24921E-03  2504   0.965E-02    0.764E-02
DAV:   8    -0.136721180465E+04    0.52665E-05   -0.10344E-03  2600   0.607E-02    0.413E-02
DAV:   9    -0.136721179736E+04    0.72903E-05   -0.16912E-04  2528   0.300E-02    0.312E-02
DAV:  10    -0.136721179942E+04   -0.20634E-05   -0.11409E-04  2568   0.198E-02    0.168E-02
DAV:  11    -0.136721179947E+04   -0.51732E-07   -0.33977E-05  2392   0.129E-02    0.830E-03
DAV:  12    -0.136721180019E+04   -0.71923E-06   -0.12138E-05  1856   0.807E-03    0.702E-03
DAV:  13    -0.136721179978E+04    0.41070E-06   -0.55915E-06  1376   0.569E-03
   9 F= -.13672118E+04 E0= -.13672118E+04  d E =-.612298E+00
 BRION: g(F)=  0.212E+00 g(S)=  0.000E+00 retain N=  3 mean eig= 5.42
 eig:   6.994  6.994  2.282
 bond charge predicted
       N       E                     dE             d eps       ncg     rms          rms(c)
DAV:   1    -0.136749260250E+04   -0.28080E+00   -0.31598E+01  1384   0.798E+00    0.938E-01
DAV:   2    -0.136766154272E+04   -0.16894E+00   -0.17948E+00  2304   0.324E+00    0.477E-01
DAV:   3    -0.136767168847E+04   -0.10146E-01   -0.14354E-01  2568   0.616E-01    0.383E-01
DAV:   4    -0.136766951298E+04    0.21755E-02   -0.14147E-02  2592   0.280E-01    0.263E-01
DAV:   5    -0.136766770963E+04    0.18033E-02   -0.71235E-03  2336   0.168E-01    0.984E-02
DAV:   6    -0.136766793224E+04   -0.22261E-03   -0.40644E-03  2432   0.116E-01    0.823E-02
DAV:   7    -0.136766791883E+04    0.13409E-04   -0.15949E-03  2472   0.743E-02    0.566E-02
DAV:   8    -0.136766791669E+04    0.21426E-05   -0.61081E-04  2568   0.476E-02    0.330E-02
DAV:   9    -0.136766791041E+04    0.62784E-05   -0.11697E-04  2384   0.239E-02    0.245E-02
DAV:  10    -0.136766791136E+04   -0.95162E-06   -0.67422E-05  2448   0.150E-02    0.127E-02
DAV:  11    -0.136766791173E+04   -0.37013E-06   -0.19559E-05  2160   0.101E-02    0.698E-03
DAV:  12    -0.136766791204E+04   -0.30817E-06   -0.10094E-05  1760   0.705E-03    0.615E-03
DAV:  13    -0.136766791160E+04    0.44049E-06   -0.33385E-06  1168   0.526E-03
  10 F= -.13676679E+04 E0= -.13676679E+04  d E =-.456112E+00
 BRION: g(F)=  0.197E+00 g(S)=  0.000E+00 retain N=  3 mean eig= 5.79
 eig:   7.474  7.474  2.437
 bond charge predicted
       N       E                     dE             d eps       ncg     rms          rms(c)
DAV:   1    -0.136793070057E+04   -0.26279E+00   -0.28523E+01  1384   0.758E+00    0.895E-01
DAV:   2    -0.136808206879E+04   -0.15137E+00   -0.16072E+00  2312   0.309E+00    0.453E-01
DAV:   3    -0.136809077928E+04   -0.87105E-02   -0.12632E-01  2568   0.580E-01    0.365E-01
DAV:   4    -0.136808865314E+04    0.21261E-02   -0.12228E-02  2568   0.260E-01    0.251E-01
DAV:   5    -0.136808680451E+04    0.18486E-02   -0.70188E-03  2272   0.168E-01    0.896E-02
DAV:   6    -0.136808706744E+04   -0.26294E-03   -0.41746E-03  2456   0.116E-01    0.873E-02
DAV:   7    -0.136808703722E+04    0.30225E-04   -0.13994E-03  2464   0.699E-02    0.597E-02
DAV:   8    -0.136808702023E+04    0.16986E-04   -0.57524E-04  2560   0.453E-02    0.300E-02
DAV:   9    -0.136808701695E+04    0.32832E-05   -0.96496E-05  2336   0.222E-02    0.223E-02
DAV:  10    -0.136808701781E+04   -0.86175E-06   -0.45702E-05  2424   0.131E-02    0.113E-02
DAV:  11    -0.136808701791E+04   -0.95926E-07   -0.13806E-05  2056   0.884E-03    0.560E-03
DAV:  12    -0.136808701864E+04   -0.72793E-06   -0.98193E-06  1744   0.600E-03
  11 F= -.13680870E+04 E0= -.13680870E+04  d E =-.419107E+00
 BRION: g(F)=  0.187E+00 g(S)=  0.000E+00 retain N=  3 mean eig= 5.34
 eig:   6.832  6.832  2.346
 bond charge predicted
       N       E                     dE             d eps       ncg     rms          rms(c)
DAV:   1    -0.136833446626E+04   -0.24745E+00   -0.23541E+01  1376   0.686E+00    0.796E-01
DAV:   2    -0.136845727531E+04   -0.12281E+00   -0.12996E+00  2312   0.273E+00    0.403E-01
DAV:   3    -0.136846403244E+04   -0.67571E-02   -0.99906E-02  2560   0.527E-01    0.322E-01
DAV:   4    -0.136846220187E+04    0.18306E-02   -0.10168E-02  2552   0.233E-01    0.214E-01
DAV:   5    -0.136846084978E+04    0.13521E-02   -0.54838E-03  2248   0.147E-01    0.763E-02
DAV:   6    -0.136846105095E+04   -0.20117E-03   -0.29734E-03  2488   0.975E-02    0.730E-02
DAV:   7    -0.136846102979E+04    0.21158E-04   -0.96134E-04  2512   0.590E-02    0.490E-02
DAV:   8    -0.136846102019E+04    0.96017E-05   -0.38177E-04  2576   0.372E-02    0.252E-02
DAV:   9    -0.136846101879E+04    0.13963E-05   -0.63535E-05  2432   0.180E-02    0.187E-02
DAV:  10    -0.136846101965E+04   -0.85663E-06   -0.37388E-05  2400   0.116E-02    0.905E-03
DAV:  11    -0.136846101942E+04    0.22634E-06   -0.81088E-06  1600   0.801E-03
  12 F= -.13684610E+04 E0= -.13684610E+04  d E =-.374001E+00
 BRION: g(F)=  0.180E+00 g(S)=  0.000E+00 retain N=  3 mean eig= 4.62
 eig:   5.952  5.952  1.966
 bond charge predicted
       N       E                     dE             d eps       ncg     rms          rms(c)
DAV:   1    -0.136869251727E+04   -0.23150E+00   -0.21888E+01  1376   0.661E+00    0.767E-01
DAV:   2    -0.136880727997E+04   -0.11476E+00   -0.12123E+00  2312   0.265E+00    0.387E-01
DAV:   3    -0.136881323871E+04   -0.59587E-02   -0.89901E-02  2560   0.511E-01    0.309E-01
DAV:   4    -0.136881148889E+04    0.17498E-02   -0.94113E-03  2576   0.223E-01    0.206E-01
DAV:   5    -0.136881018574E+04    0.13031E-02   -0.52688E-03  2280   0.145E-01    0.736E-02
DAV:   6    -0.136881037465E+04   -0.18891E-03   -0.27955E-03  2472   0.965E-02    0.724E-02
DAV:   7    -0.136881034770E+04    0.26953E-04   -0.95874E-04  2504   0.586E-02    0.478E-02
DAV:   8    -0.136881033832E+04    0.93714E-05   -0.37305E-04  2560   0.369E-02    0.248E-02
DAV:   9    -0.136881033701E+04    0.13155E-05   -0.64099E-05  2416   0.178E-02    0.184E-02
DAV:  10    -0.136881033770E+04   -0.68852E-06   -0.35530E-05  2376   0.113E-02    0.964E-03
DAV:  11    -0.136881033734E+04    0.35788E-06   -0.94361E-06  1704   0.822E-03
  13 F= -.13688103E+04 E0= -.13688103E+04  d E =-.349318E+00
 BRION: g(F)=  0.172E+00 g(S)=  0.000E+00 retain N=  3 mean eig= 4.50
 eig:   5.863  5.863  1.778
 bond charge predicted
       N       E                     dE             d eps       ncg     rms          rms(c)
DAV:   1    -0.136904684445E+04   -0.23651E+00   -0.27175E+01  1360   0.736E+00    0.855E-01
DAV:   2    -0.136918762309E+04   -0.14078E+00   -0.14846E+00  2312   0.293E+00    0.431E-01
DAV:   3    -0.136919490446E+04   -0.72814E-02   -0.10952E-01  2560   0.564E-01    0.342E-01
DAV:   4    -0.136919277090E+04    0.21336E-02   -0.11737E-02  2560   0.246E-01    0.225E-01
DAV:   5    -0.136919125148E+04    0.15194E-02   -0.62751E-03  2264   0.160E-01    0.800E-02
DAV:   6    -0.136919148498E+04   -0.23350E-03   -0.32583E-03  2528   0.103E-01    0.771E-02
DAV:   7    -0.136919145471E+04    0.30264E-04   -0.95906E-04  2552   0.600E-02    0.507E-02
DAV:   8    -0.136919144428E+04    0.10434E-04   -0.41565E-04  2552   0.386E-02    0.258E-02
DAV:   9    -0.136919144416E+04    0.12314E-06   -0.68708E-05  2480   0.188E-02    0.190E-02
DAV:  10    -0.136919144463E+04   -0.47340E-06   -0.33492E-05  2496   0.116E-02    0.915E-03
DAV:  11    -0.136919144454E+04    0.94864E-07   -0.88623E-06  1680   0.750E-03
  14 F= -.13691914E+04 E0= -.13691914E+04  d E =-.381107E+00
 BRION: g(F)=  0.164E+00 g(S)=  0.000E+00 retain N=  3 mean eig= 4.63
 eig:   6.050  6.050  1.805
 bond charge predicted
       N       E                     dE             d eps       ncg     rms          rms(c)
DAV:   1    -0.136942729176E+04   -0.23585E+00   -0.35427E+01  1368   0.837E+00    0.962E-01
DAV:   2    -0.136960963888E+04   -0.18235E+00   -0.19204E+00  2312   0.329E+00    0.485E-01
DAV:   3    -0.136961928144E+04   -0.96426E-02   -0.14320E-01  2568   0.646E-01    0.387E-01
DAV:   4    -0.136961670958E+04    0.25719E-02   -0.14819E-02  2584   0.277E-01    0.260E-01
DAV:   5    -0.136961460795E+04    0.21016E-02   -0.75104E-03  2296   0.176E-01    0.961E-02
DAV:   6    -0.136961483933E+04   -0.23138E-03   -0.42810E-03  2448   0.118E-01    0.854E-02
DAV:   7    -0.136961480956E+04    0.29769E-04   -0.14658E-03  2464   0.728E-02    0.585E-02
DAV:   8    -0.136961479938E+04    0.10178E-04   -0.61934E-04  2560   0.471E-02    0.323E-02
DAV:   9    -0.136961479631E+04    0.30689E-05   -0.11736E-04  2424   0.235E-02    0.237E-02
DAV:  10    -0.136961479625E+04    0.61002E-07   -0.58964E-05  2536   0.145E-02    0.126E-02
DAV:  11    -0.136961479630E+04   -0.52707E-07   -0.19412E-05  2200   0.101E-02    0.627E-03
DAV:  12    -0.136961479671E+04   -0.41084E-06   -0.10265E-05  1760   0.671E-03    0.583E-03
DAV:  13    -0.136961479626E+04    0.45715E-06   -0.19401E-06  1008   0.477E-03
  15 F= -.13696148E+04 E0= -.13696148E+04  d E =-.423352E+00
 BRION: g(F)=  0.154E+00 g(S)=  0.000E+00 retain N=  3 mean eig= 5.25
 eig:   6.870  6.870  2.014
 bond charge predicted
       N       E                     dE             d eps       ncg     rms          rms(c)
DAV:   1    -0.136983259705E+04   -0.21780E+00   -0.33493E+01  1368   0.820E+00    0.946E-01
DAV:   2    -0.137000439934E+04   -0.17180E+00   -0.18137E+00  2312   0.322E+00    0.477E-01
DAV:   3    -0.137001331858E+04   -0.89192E-02   -0.13500E-01  2552   0.630E-01    0.379E-01
DAV:   4    -0.137001084466E+04    0.24739E-02   -0.14937E-02  2576   0.277E-01    0.254E-01
DAV:   5    -0.137000885403E+04    0.19906E-02   -0.72823E-03  2320   0.176E-01    0.971E-02
DAV:   6    -0.137000904811E+04   -0.19408E-03   -0.42365E-03  2448   0.120E-01    0.854E-02
DAV:   7    -0.137000902342E+04    0.24690E-04   -0.15420E-03  2440   0.753E-02    0.605E-02
DAV:   8    -0.137000901368E+04    0.97457E-05   -0.68461E-04  2552   0.489E-02    0.334E-02
DAV:   9    -0.137000901022E+04    0.34583E-05   -0.12852E-04  2456   0.246E-02    0.244E-02
DAV:  10    -0.137000900996E+04    0.25601E-06   -0.65957E-05  2520   0.153E-02    0.147E-02
DAV:  11    -0.137000900945E+04    0.50782E-06   -0.24577E-05  2296   0.110E-02    0.735E-03
DAV:  12    -0.137000900974E+04   -0.28846E-06   -0.11386E-05  1760   0.747E-03    0.657E-03
DAV:  13    -0.137000900928E+04    0.46253E-06   -0.44132E-06  1280   0.540E-03
  16 F= -.13700090E+04 E0= -.13700090E+04  d E =-.394213E+00
 BRION: g(F)=  0.144E+00 g(S)=  0.000E+00 retain N=  3 mean eig= 5.69
 eig:   7.419  7.419  2.233
 bond charge predicted
       N       E                     dE             d eps       ncg     rms          rms(c)
DAV:   1    -0.137020977512E+04   -0.20077E+00   -0.25335E+01  1368   0.710E+00    0.812E-01
DAV:   2    -0.137033683087E+04   -0.12706E+00   -0.13398E+00  2288   0.273E+00    0.408E-01
DAV:   3    -0.137034405670E+04   -0.72258E-02   -0.10505E-01  2568   0.551E-01    0.327E-01
DAV:   4    -0.137034240483E+04    0.16519E-02   -0.10697E-02  2592   0.236E-01    0.225E-01
DAV:   5    -0.137034083276E+04    0.15721E-02   -0.50833E-03  2264   0.147E-01    0.880E-02
DAV:   6    -0.137034094442E+04   -0.11166E-03   -0.33363E-03  2360   0.105E-01    0.744E-02
DAV:   7    -0.137034093245E+04    0.11968E-04   -0.12744E-03  2400   0.677E-02    0.549E-02
DAV:   8    -0.137034092163E+04    0.10822E-04   -0.53052E-04  2536   0.429E-02    0.309E-02
DAV:   9    -0.137034091705E+04    0.45765E-05   -0.11696E-04  2448   0.226E-02    0.214E-02
DAV:  10    -0.137034091744E+04   -0.38657E-06   -0.52764E-05  2536   0.134E-02    0.129E-02
DAV:  11    -0.137034091726E+04    0.18129E-06   -0.16715E-05  2080   0.963E-03    0.756E-03
DAV:  12    -0.137034091714E+04    0.11594E-06   -0.10646E-05  1736   0.703E-03    0.630E-03
DAV:  13    -0.137034091672E+04    0.41969E-06   -0.36127E-06  1184   0.529E-03
  17 F= -.13703409E+04 E0= -.13703409E+04  d E =-.331907E+00
 BRION: g(F)=  0.136E+00 g(S)=  0.000E+00 retain N=  3 mean eig= 5.58
 eig:   7.307  7.307  2.115
 bond charge predicted
       N       E                     dE             d eps       ncg     rms          rms(c)
DAV:   1    -0.137053092169E+04   -0.19000E+00   -0.28379E+01  1368   0.754E+00    0.853E-01
DAV:   2    -0.137067329726E+04   -0.14238E+00   -0.15036E+00  2280   0.290E+00    0.431E-01
DAV:   3    -0.137068167253E+04   -0.83753E-02   -0.12090E-01  2560   0.585E-01    0.348E-01
DAV:   4    -0.137067995164E+04    0.17209E-02   -0.11963E-02  2584   0.250E-01    0.247E-01
DAV:   5    -0.137067801479E+04    0.19369E-02   -0.56446E-03  2328   0.155E-01    0.105E-01
DAV:   6    -0.137067801099E+04    0.38014E-05   -0.41795E-03  2296   0.122E-01    0.777E-02
DAV:   7    -0.137067804636E+04   -0.35374E-04   -0.21014E-03  2400   0.839E-02    0.658E-02
DAV:   8    -0.137067802360E+04    0.22764E-04   -0.63543E-04  2536   0.500E-02    0.401E-02
DAV:   9    -0.137067801186E+04    0.11738E-04   -0.21108E-04  2512   0.278E-02    0.232E-02
DAV:  10    -0.137067801552E+04   -0.36631E-05   -0.78831E-05  2584   0.167E-02    0.165E-02
DAV:  11    -0.137067801492E+04    0.60056E-06   -0.25380E-05  2240   0.112E-02    0.108E-02
DAV:  12    -0.137067801435E+04    0.57511E-06   -0.21209E-05  2088   0.949E-03    0.924E-03
DAV:  13    -0.137067801363E+04    0.71012E-06   -0.96828E-06  1760   0.665E-03
  18 F= -.13706780E+04 E0= -.13706780E+04  d E =-.337097E+00
 BRION: g(F)=  0.128E+00 g(S)=  0.000E+00 retain N=  3 mean eig= 5.49
 eig:   7.242  7.242  1.981
 bond charge predicted
       N       E                     dE             d eps       ncg     rms          rms(c)
DAV:   1    -0.137085601823E+04   -0.17800E+00   -0.30145E+01  1368   0.775E+00    0.876E-01
DAV:   2    -0.137100637973E+04   -0.15036E+00   -0.15837E+00  2296   0.296E+00    0.445E-01
DAV:   3    -0.137101466076E+04   -0.82810E-02   -0.12228E-01  2584   0.588E-01    0.353E-01
DAV:   4    -0.137101267187E+04    0.19889E-02   -0.12333E-02  2608   0.254E-01    0.243E-01
DAV:   5    -0.137101081695E+04    0.18549E-02   -0.55915E-03  2336   0.156E-01    0.988E-02
DAV:   6    -0.137101086764E+04   -0.50687E-04   -0.38087E-03  2344   0.113E-01    0.714E-02
DAV:   7    -0.137101088612E+04   -0.18481E-04   -0.15174E-03  2408   0.734E-02    0.573E-02
DAV:   8    -0.137101087475E+04    0.11371E-04   -0.55212E-04  2560   0.445E-02    0.338E-02
DAV:   9    -0.137101086886E+04    0.58873E-05   -0.15618E-04  2512   0.248E-02    0.215E-02
DAV:  10    -0.137101087097E+04   -0.21052E-05   -0.59749E-05  2584   0.148E-02    0.154E-02
DAV:  11    -0.137101086963E+04    0.13399E-05   -0.22193E-05  2176   0.103E-02    0.816E-03
DAV:  12    -0.137101086948E+04    0.14716E-06   -0.12970E-05  1776   0.793E-03    0.655E-03
DAV:  13    -0.137101086912E+04    0.36393E-06   -0.50021E-06  1312   0.550E-03
  19 F= -.13710109E+04 E0= -.13710109E+04  d E =-.332855E+00
 BRION: g(F)=  0.120E+00 g(S)=  0.000E+00 retain N=  3 mean eig= 5.81
 eig:   7.696  7.696  2.023
 bond charge predicted
       N       E                     dE             d eps       ncg     rms          rms(c)
DAV:   1    -0.137117406080E+04   -0.16319E+00   -0.33657E+01  1368   0.816E+00    0.918E-01
DAV:   2    -0.137134167204E+04   -0.16761E+00   -0.17675E+00  2288   0.312E+00    0.468E-01
DAV:   3    -0.137135142821E+04   -0.97562E-02   -0.14057E-01  2568   0.625E-01    0.376E-01
DAV:   4    -0.137134951612E+04    0.19121E-02   -0.13877E-02  2624   0.268E-01    0.267E-01
DAV:   5    -0.137134736339E+04    0.21527E-02   -0.59384E-03  2376   0.160E-01    0.119E-01
DAV:   6    -0.137134726846E+04    0.94930E-04   -0.46145E-03  2272   0.128E-01    0.754E-02
DAV:   7    -0.137134733682E+04   -0.68361E-04   -0.23603E-03  2416   0.893E-02    0.694E-02
DAV:   8    -0.137134731374E+04    0.23089E-04   -0.64544E-04  2584   0.504E-02    0.465E-02
DAV:   9    -0.137134729380E+04    0.19936E-04   -0.26858E-04  2560   0.302E-02    0.242E-02
DAV:  10    -0.137134729958E+04   -0.57852E-05   -0.96458E-05  2520   0.185E-02    0.176E-02
DAV:  11    -0.137134729887E+04    0.71820E-06   -0.23837E-05  2232   0.108E-02    0.119E-02
DAV:  12    -0.137134729763E+04    0.12413E-05   -0.29159E-05  1968   0.104E-02    0.898E-03
DAV:  13    -0.137134729732E+04    0.30884E-06   -0.11405E-05  1760   0.716E-03    0.645E-03
DAV:  14    -0.137134729696E+04    0.35443E-06   -0.64653E-06  1552   0.514E-03
  20 F= -.13713473E+04 E0= -.13713473E+04  d E =-.336428E+00
 BRION: g(F)=  0.111E+00 g(S)=  0.000E+00 retain N=  2 mean eig= 5.26
 eig:   5.261  5.261
