 running on  160 total cores
 distrk:  each k-point on  160 cores,    1 groups
 distr:  one band on   20 cores,    8 groups
 using from now: INCAR     
 vasp.5.4.4.18Apr17-6-g9f103f2a35 (build May 01 2020 14:22:42) gamma-only       
  
 POSCAR found type information on POSCAR  O  La Zr Li Al
 POSCAR found :  5 types and     192 ions
 scaLAPACK will be used
 LDA part: xc-table for Pade appr. of Perdew
 POSCAR, INCAR and KPOINTS ok, starting setup
 FFT: planning ...
 WAVECAR not read
 WARNING: random wavefunctions but no delay for mixing, default for NELMDL
 entering main loop
       N       E                     dE             d eps       ncg     rms          rms(c)
DAV:   1     0.251707986489E+05    0.25171E+05   -0.42295E+05  1584   0.253E+03
DAV:   2     0.930663680791E+04   -0.15864E+05   -0.14688E+05  1440   0.701E+02
DAV:   3     0.262071356441E+04   -0.66859E+04   -0.60778E+04  1512   0.356E+02
DAV:   4    -0.405488620238E+03   -0.30262E+04   -0.28344E+04  2032   0.223E+02
DAV:   5    -0.143373481924E+04   -0.10282E+04   -0.99213E+03  2528   0.138E+02    0.117E+02
DAV:   6    -0.131174070965E+04    0.12199E+03   -0.14166E+03  2400   0.654E+01    0.503E+01
DAV:   7    -0.133528381879E+04   -0.23543E+02   -0.38436E+02  2536   0.335E+01    0.237E+01
DAV:   8    -0.134579215157E+04   -0.10508E+02   -0.24928E+02  2544   0.262E+01    0.259E+01
DAV:   9    -0.133836531061E+04    0.74268E+01   -0.64154E+01  2464   0.151E+01    0.673E+00
DAV:  10    -0.133987296677E+04   -0.15077E+01   -0.14444E+01  2592   0.868E+00    0.824E+00
DAV:  11    -0.133989768886E+04   -0.24722E-01   -0.75640E+00  2616   0.473E+00    0.361E+00
DAV:  12    -0.133981453481E+04    0.83154E-01   -0.27805E+00  2608   0.368E+00    0.263E+00
DAV:  13    -0.133990381206E+04   -0.89277E-01   -0.93480E-01  2576   0.186E+00    0.222E+00
DAV:  14    -0.133987547880E+04    0.28333E-01   -0.35388E-01  2592   0.119E+00    0.137E+00
DAV:  15    -0.133988296647E+04   -0.74877E-02   -0.13254E-01  2480   0.714E-01    0.108E+00
DAV:  16    -0.133988440206E+04   -0.14356E-02   -0.36524E-02  2624   0.377E-01    0.729E-01
DAV:  17    -0.133987994178E+04    0.44603E-02   -0.23626E-02  2488   0.320E-01    0.411E-01
DAV:  18    -0.133988022104E+04   -0.27927E-03   -0.66383E-03  2512   0.166E-01    0.235E-01
DAV:  19    -0.133987992145E+04    0.29959E-03   -0.27864E-03  2528   0.982E-02    0.181E-01
DAV:  20    -0.133987989674E+04    0.24713E-04   -0.12416E-03  2512   0.733E-02    0.615E-02
DAV:  21    -0.133987989973E+04   -0.29923E-05   -0.29875E-04  2504   0.382E-02    0.657E-02
DAV:  22    -0.133987990757E+04   -0.78355E-05   -0.12929E-04  2512   0.242E-02    0.342E-02
DAV:  23    -0.133987991168E+04   -0.41151E-05   -0.34849E-05  2376   0.123E-02    0.221E-02
DAV:  24    -0.133987991615E+04   -0.44715E-05   -0.92449E-06  1240   0.824E-03    0.107E-02
DAV:  25    -0.133987991736E+04   -0.12027E-05   -0.38685E-06  1104   0.537E-03    0.741E-03
DAV:  26    -0.133987991733E+04    0.22133E-07   -0.17482E-06  1000   0.487E-03
   1 F= -.13398799E+04 E0= -.13398799E+04  d E =-.133988E+04
 BRION: g(F)=  0.382E+02 g(S)=  0.000E+00
 bond charge predicted
       N       E                     dE             d eps       ncg     rms          rms(c)
DAV:   1    -0.132826575205E+04    0.11614E+02   -0.45820E+03  1632   0.104E+02    0.195E+01
DAV:   2    -0.135800704002E+04   -0.29741E+02   -0.35489E+02  2568   0.448E+01    0.100E+01
DAV:   3    -0.135752324905E+04    0.48379E+00   -0.22636E+01  2624   0.124E+01    0.715E+00
DAV:   4    -0.135632501468E+04    0.11982E+01   -0.54901E+00  2520   0.513E+00    0.369E+00
DAV:   5    -0.135598277586E+04    0.34224E+00   -0.19975E+00  2416   0.362E+00    0.225E+00
DAV:   6    -0.135597546734E+04    0.73085E-02   -0.22302E+00  2472   0.283E+00    0.127E+00
DAV:   7    -0.135598931943E+04   -0.13852E-01   -0.44767E-01  2472   0.143E+00    0.114E+00
DAV:   8    -0.135598269402E+04    0.66254E-02   -0.18923E-01  2576   0.696E-01    0.463E-01
DAV:   9    -0.135598390844E+04   -0.12144E-02   -0.36741E-02  2624   0.431E-01    0.383E-01
DAV:  10    -0.135598253651E+04    0.13719E-02   -0.17477E-02  2528   0.290E-01    0.181E-01
DAV:  11    -0.135598297001E+04   -0.43350E-03   -0.11282E-02  2544   0.208E-01    0.118E-01
DAV:  12    -0.135598299050E+04   -0.20492E-04   -0.20099E-03  2592   0.960E-02    0.689E-02
DAV:  13    -0.135598298159E+04    0.89086E-05   -0.10075E-03  2624   0.554E-02    0.293E-02
DAV:  14    -0.135598298735E+04   -0.57587E-05   -0.26359E-04  2624   0.374E-02    0.161E-02
DAV:  15    -0.135598299261E+04   -0.52641E-05   -0.70480E-05  2392   0.187E-02    0.115E-02
DAV:  16    -0.135598299242E+04    0.19268E-06   -0.22470E-05  2432   0.857E-03    0.556E-03
DAV:  17    -0.135598299275E+04   -0.32652E-06   -0.41036E-06  1280   0.638E-03
   2 F= -.13559830E+04 E0= -.13559830E+04  d E =-.161031E+02
 BRION: g(F)=  0.166E+02 g(S)=  0.000E+00 retain N=  1 mean eig= 0.66
 eig:   0.661
 bond charge predicted
       N       E                     dE             d eps       ncg     rms          rms(c)
DAV:   1    -0.135183011202E+04    0.41529E+01   -0.14715E+03  1456   0.543E+01    0.108E+01
DAV:   2    -0.136088591637E+04   -0.90558E+01   -0.11066E+02  2472   0.239E+01    0.895E+00
DAV:   3    -0.136122019723E+04   -0.33428E+00   -0.89379E+00  2584   0.681E+00    0.712E+00
DAV:   4    -0.136091075439E+04    0.30944E+00   -0.22778E+00  2576   0.319E+00    0.400E+00
DAV:   5    -0.136080177033E+04    0.10898E+00   -0.10157E+00  2168   0.257E+00    0.244E+00
DAV:   6    -0.136075627156E+04    0.45499E-01   -0.11289E+00  2496   0.193E+00    0.123E+00
DAV:   7    -0.136076455913E+04   -0.82876E-02   -0.29307E-01  2520   0.104E+00    0.778E-01
DAV:   8    -0.136076252382E+04    0.20353E-02   -0.42211E-02  2624   0.441E-01    0.522E-01
DAV:   9    -0.136076243368E+04    0.90138E-04   -0.23147E-02  2584   0.286E-01    0.384E-01
DAV:  10    -0.136076089433E+04    0.15394E-02   -0.64724E-03  2416   0.198E-01    0.250E-01
DAV:  11    -0.136076082837E+04    0.65964E-04   -0.10643E-02  2424   0.160E-01    0.920E-02
DAV:  12    -0.136076073651E+04    0.91863E-04   -0.13382E-03  2480   0.879E-02    0.388E-02
DAV:  13    -0.136076078327E+04   -0.46765E-04   -0.48021E-04  2448   0.429E-02    0.312E-02
DAV:  14    -0.136076077378E+04    0.94956E-05   -0.10416E-04  2624   0.253E-02    0.126E-02
DAV:  15    -0.136076078078E+04   -0.70044E-05   -0.91765E-05  2440   0.164E-02    0.122E-02
DAV:  16    -0.136076078027E+04    0.50597E-06   -0.93483E-06  1712   0.786E-03
   3 F= -.13607608E+04 E0= -.13607608E+04  d E =-.477779E+01
 BRION: g(F)=  0.385E+01 g(S)=  0.000E+00 retain N=  2 mean eig= 0.80
 eig:   0.432  1.166
 bond charge predicted
       N       E                     dE             d eps       ncg     rms          rms(c)
DAV:   1    -0.136188187764E+04   -0.11211E+01   -0.31850E+02  1368   0.261E+01    0.508E+00
DAV:   2    -0.136339304855E+04   -0.15112E+01   -0.17031E+01  2288   0.992E+00    0.217E+00
DAV:   3    -0.136344492442E+04   -0.51876E-01   -0.14578E+00  2600   0.222E+00    0.185E+00
DAV:   4    -0.136339853463E+04    0.46390E-01   -0.29086E-01  2576   0.117E+00    0.969E-01
DAV:   5    -0.136338880047E+04    0.97342E-02   -0.12845E-01  2248   0.735E-01    0.554E-01
DAV:   6    -0.136338851696E+04    0.28351E-03   -0.65807E-02  2592   0.505E-01    0.387E-01
DAV:   7    -0.136338811301E+04    0.40394E-03   -0.30065E-02  2504   0.313E-01    0.249E-01
DAV:   8    -0.136338783346E+04    0.27955E-03   -0.68619E-03  2608   0.163E-01    0.136E-01
DAV:   9    -0.136338775655E+04    0.76907E-04   -0.18856E-03  2600   0.914E-02    0.849E-02
DAV:  10    -0.136338787158E+04   -0.11503E-03   -0.15757E-03  2240   0.659E-02    0.880E-02
DAV:  11    -0.136338777013E+04    0.10146E-03   -0.65150E-04  2528   0.497E-02    0.366E-02
DAV:  12    -0.136338777781E+04   -0.76870E-05   -0.40226E-04  2528   0.349E-02    0.260E-02
DAV:  13    -0.136338777327E+04    0.45457E-05   -0.77303E-05  2488   0.191E-02    0.131E-02
DAV:  14    -0.136338777453E+04   -0.12638E-05   -0.25446E-05  2232   0.926E-03    0.499E-03
DAV:  15    -0.136338777454E+04   -0.75670E-08   -0.23002E-06  1056   0.552E-03
   4 F= -.13633878E+04 E0= -.13633878E+04  d E =-.262699E+01
 BRION: g(F)=  0.119E+01 g(S)=  0.000E+00 retain N=  3 mean eig= 1.41
 eig:   0.755  1.732  1.732
 bond charge predicted
       N       E                     dE             d eps       ncg     rms          rms(c)
DAV:   1    -0.136403704664E+04   -0.64927E+00   -0.18019E+02  1368   0.192E+01    0.237E+00
DAV:   2    -0.136490036839E+04   -0.86332E+00   -0.91531E+00  2304   0.724E+00    0.120E+00
DAV:   3    -0.136494025744E+04   -0.39889E-01   -0.68293E-01  2584   0.143E+00    0.988E-01
DAV:   4    -0.136492481349E+04    0.15444E-01   -0.84880E-02  2600   0.644E-01    0.627E-01
DAV:   5    -0.136491529188E+04    0.95216E-02   -0.43809E-02  2232   0.414E-01    0.260E-01
DAV:   6    -0.136491647824E+04   -0.11864E-02   -0.23554E-02  2408   0.295E-01    0.252E-01
DAV:   7    -0.136491599508E+04    0.48316E-03   -0.13044E-02  2328   0.204E-01    0.161E-01
DAV:   8    -0.136491598669E+04    0.83882E-05   -0.55020E-03  2584   0.135E-01    0.933E-02
DAV:   9    -0.136491594476E+04    0.41935E-04   -0.87191E-04  2576   0.662E-02    0.709E-02
DAV:  10    -0.136491594738E+04   -0.26213E-05   -0.69912E-04  2328   0.437E-02    0.454E-02
DAV:  11    -0.136491593476E+04    0.12620E-04   -0.29545E-04  2504   0.368E-02    0.225E-02
DAV:  12    -0.136491593871E+04   -0.39560E-05   -0.13304E-04  2400   0.231E-02    0.228E-02
DAV:  13    -0.136491593353E+04    0.51820E-05   -0.53954E-05  2264   0.138E-02    0.117E-02
DAV:  14    -0.136491593348E+04    0.55457E-07   -0.26376E-05  2032   0.885E-03    0.587E-03
DAV:  15    -0.136491593344E+04    0.32989E-07   -0.16103E-06   992   0.515E-03
   5 F= -.13649159E+04 E0= -.13649159E+04  d E =-.152816E+01
 BRION: g(F)=  0.680E+00 g(S)=  0.000E+00 retain N=  4 mean eig= 1.76
 eig:   2.387  2.387  1.127  1.127
 bond charge predicted
       N       E                     dE             d eps       ncg     rms          rms(c)
DAV:   1    -0.136534035788E+04   -0.42442E+00   -0.89675E+01  1360   0.138E+01    0.172E+00
DAV:   2    -0.136578812081E+04   -0.44776E+00   -0.47988E+00  2288   0.528E+00    0.886E-01
DAV:   3    -0.136581371649E+04   -0.25596E-01   -0.38904E-01  2592   0.111E+00    0.731E-01
DAV:   4    -0.136580728766E+04    0.64288E-02   -0.46343E-02  2608   0.495E-01    0.491E-01
DAV:   5    -0.136580288508E+04    0.44026E-02   -0.27002E-02  2232   0.317E-01    0.215E-01
DAV:   6    -0.136580353671E+04   -0.65163E-03   -0.13536E-02  2488   0.235E-01    0.214E-01
DAV:   7    -0.136580323559E+04    0.30112E-03   -0.95869E-03  2400   0.176E-01    0.132E-01
DAV:   8    -0.136580321651E+04    0.19086E-04   -0.31227E-03  2552   0.109E-01    0.763E-02
DAV:   9    -0.136580318928E+04    0.27233E-04   -0.47854E-04  2568   0.496E-02    0.525E-02
DAV:  10    -0.136580319590E+04   -0.66227E-05   -0.41489E-04  2336   0.336E-02    0.287E-02
DAV:  11    -0.136580319066E+04    0.52420E-05   -0.11526E-04  2456   0.257E-02    0.123E-02
DAV:  12    -0.136580319559E+04   -0.49361E-05   -0.72606E-05  2360   0.163E-02    0.163E-02
DAV:  13    -0.136580319194E+04    0.36548E-05   -0.23788E-05  2072   0.102E-02    0.827E-03
DAV:  14    -0.136580319182E+04    0.11404E-06   -0.10183E-05  1744   0.685E-03    0.287E-03
DAV:  15    -0.136580319188E+04   -0.56505E-07   -0.13331E-06   992   0.396E-03
   6 F= -.13658032E+04 E0= -.13658032E+04  d E =-.887258E+00
 BRION: g(F)=  0.457E+00 g(S)=  0.000E+00 retain N=  5 mean eig= 2.26
 eig:   3.681  3.681  1.527  1.527  0.890
 bond charge predicted
       N       E                     dE             d eps       ncg     rms          rms(c)
DAV:   1    -0.136608899222E+04   -0.28580E+00   -0.12484E+02  1376   0.160E+01    0.191E+00
DAV:   2    -0.136670452706E+04   -0.61553E+00   -0.64841E+00  2296   0.619E+00    0.971E-01
DAV:   3    -0.136673776184E+04   -0.33235E-01   -0.49759E-01  2576   0.118E+00    0.776E-01
DAV:   4    -0.136672866232E+04    0.90995E-02   -0.55528E-02  2584   0.532E-01    0.506E-01
DAV:   5    -0.136672277216E+04    0.58902E-02   -0.29567E-02  2328   0.349E-01    0.204E-01
DAV:   6    -0.136672382390E+04   -0.10517E-02   -0.16297E-02  2488   0.247E-01    0.191E-01
DAV:   7    -0.136672357643E+04    0.24747E-03   -0.65631E-03  2472   0.155E-01    0.128E-01
DAV:   8    -0.136672355160E+04    0.24831E-04   -0.30604E-03  2568   0.101E-01    0.661E-02
DAV:   9    -0.136672352992E+04    0.21685E-04   -0.44719E-04  2528   0.477E-02    0.490E-02
DAV:  10    -0.136672353092E+04   -0.10001E-05   -0.29619E-04  2400   0.312E-02    0.282E-02
DAV:  11    -0.136672352948E+04    0.14313E-05   -0.10252E-04  2488   0.225E-02    0.140E-02
DAV:  12    -0.136672353199E+04   -0.25045E-05   -0.51149E-05  2344   0.142E-02    0.150E-02
DAV:  13    -0.136672352961E+04    0.23833E-05   -0.25346E-05  2096   0.958E-03    0.718E-03
DAV:  14    -0.136672352938E+04    0.22394E-06   -0.49906E-06  1312   0.600E-03
   7 F= -.13667235E+04 E0= -.13667235E+04  d E =-.920338E+00
 BRION: g(F)=  0.300E+00 g(S)=  0.000E+00 retain N=  6 mean eig= 3.12
 eig:   6.025  6.025  2.225  2.225  1.114  1.114
 bond charge predicted
       N       E                     dE             d eps       ncg     rms          rms(c)
DAV:   1    -0.136690773366E+04   -0.18420E+00   -0.10518E+02  1368   0.145E+01    0.177E+00
DAV:   2    -0.136742283069E+04   -0.51510E+00   -0.54325E+00  2288   0.571E+00    0.882E-01
DAV:   3    -0.136744894174E+04   -0.26111E-01   -0.40356E-01  2592   0.109E+00    0.694E-01
DAV:   4    -0.136744102414E+04    0.79176E-02   -0.45825E-02  2568   0.482E-01    0.441E-01
DAV:   5    -0.136743667180E+04    0.43523E-02   -0.23911E-02  2336   0.321E-01    0.173E-01
DAV:   6    -0.136743750833E+04   -0.83652E-03   -0.11701E-02  2544   0.210E-01    0.160E-01
DAV:   7    -0.136743738936E+04    0.11897E-03   -0.39061E-03  2568   0.121E-01    0.105E-01
DAV:   8    -0.136743735759E+04    0.31768E-04   -0.18864E-03  2568   0.802E-02    0.532E-02
DAV:   9    -0.136743735071E+04    0.68774E-05   -0.26881E-04  2552   0.386E-02    0.387E-02
DAV:  10    -0.136743735134E+04   -0.62953E-06   -0.18315E-04  2512   0.257E-02    0.197E-02
DAV:  11    -0.136743735137E+04   -0.26819E-07   -0.52015E-05  2472   0.166E-02    0.903E-03
DAV:  12    -0.136743735331E+04   -0.19397E-05   -0.25317E-05  2248   0.955E-03    0.951E-03
DAV:  13    -0.136743735221E+04    0.10957E-05   -0.75839E-06  1520   0.647E-03    0.441E-03
DAV:  14    -0.136743735225E+04   -0.32844E-07   -0.38449E-06  1168   0.571E-03
   8 F= -.13674374E+04 E0= -.13674374E+04  d E =-.713823E+00
 BRION: g(F)=  0.211E+00 g(S)=  0.000E+00 retain N=  4 mean eig= 4.86
 eig:   7.610  7.610  2.109  2.109
 bond charge predicted
       N       E                     dE             d eps       ncg     rms          rms(c)
DAV:   1    -0.136755804674E+04   -0.12069E+00   -0.86740E+01  1360   0.132E+01    0.157E+00
DAV:   2    -0.136798722562E+04   -0.42918E+00   -0.45278E+00  2304   0.519E+00    0.795E-01
DAV:   3    -0.136800907121E+04   -0.21846E-01   -0.33757E-01  2592   0.983E-01    0.628E-01
DAV:   4    -0.136800224595E+04    0.68253E-02   -0.36943E-02  2560   0.438E-01    0.399E-01
DAV:   5    -0.136799834481E+04    0.39011E-02   -0.19893E-02  2296   0.287E-01    0.151E-01
DAV:   6    -0.136799905170E+04   -0.70689E-03   -0.93431E-03  2544   0.184E-01    0.139E-01
DAV:   7    -0.136799896295E+04    0.88752E-04   -0.27649E-03  2608   0.103E-01    0.893E-02
DAV:   8    -0.136799893536E+04    0.27589E-04   -0.13175E-03  2600   0.679E-02    0.453E-02
DAV:   9    -0.136799893284E+04    0.25189E-05   -0.18762E-04  2520   0.323E-02    0.335E-02
DAV:  10    -0.136799893353E+04   -0.68678E-06   -0.11976E-04  2560   0.209E-02    0.150E-02
DAV:  11    -0.136799893429E+04   -0.75987E-06   -0.31843E-05  2440   0.128E-02    0.741E-03
DAV:  12    -0.136799893513E+04   -0.84445E-06   -0.11533E-05  1776   0.746E-03    0.664E-03
DAV:  13    -0.136799893455E+04    0.58414E-06   -0.32721E-06  1152   0.561E-03
   9 F= -.13679989E+04 E0= -.13679989E+04  d E =-.561582E+00
 BRION: g(F)=  0.164E+00 g(S)=  0.000E+00 retain N=  3 mean eig= 5.44
 eig:   2.403  6.960  6.960
 bond charge predicted
       N       E                     dE             d eps       ncg     rms          rms(c)
DAV:   1    -0.136813555446E+04   -0.13662E+00   -0.44750E+01  1368   0.957E+00    0.113E+00
DAV:   2    -0.136836198223E+04   -0.22643E+00   -0.23991E+00  2296   0.379E+00    0.572E-01
DAV:   3    -0.136837447143E+04   -0.12489E-01   -0.18653E-01  2592   0.727E-01    0.453E-01
DAV:   4    -0.136837112884E+04    0.33426E-02   -0.18762E-02  2592   0.320E-01    0.309E-01
DAV:   5    -0.136836837502E+04    0.27538E-02   -0.10857E-02  2304   0.221E-01    0.116E-01
DAV:   6    -0.136836876484E+04   -0.38982E-03   -0.68523E-03  2440   0.158E-01    0.113E-01
DAV:   7    -0.136836872202E+04    0.42826E-04   -0.22087E-03  2424   0.905E-02    0.798E-02
DAV:   8    -0.136836869323E+04    0.28783E-04   -0.99310E-04  2560   0.574E-02    0.376E-02
DAV:   9    -0.136836868595E+04    0.72881E-05   -0.17040E-04  2352   0.293E-02    0.268E-02
DAV:  10    -0.136836868654E+04   -0.59379E-06   -0.74673E-05  2376   0.176E-02    0.145E-02
DAV:  11    -0.136836868639E+04    0.14984E-06   -0.24992E-05  2352   0.112E-02    0.706E-03
DAV:  12    -0.136836868745E+04   -0.10610E-05   -0.14394E-05  1928   0.741E-03    0.753E-03
DAV:  13    -0.136836868654E+04    0.90642E-06   -0.20519E-06   992   0.538E-03
  10 F= -.13683687E+04 E0= -.13683687E+04  d E =-.369752E+00
 BRION: g(F)=  0.141E+00 g(S)=  0.000E+00 retain N=  3 mean eig= 6.05
 eig:   7.932  7.932  2.300
 bond charge predicted
       N       E                     dE             d eps       ncg     rms          rms(c)
DAV:   1    -0.136849868565E+04   -0.13000E+00   -0.32743E+01  1376   0.814E+00    0.961E-01
DAV:   2    -0.136866830655E+04   -0.16962E+00   -0.17993E+00  2288   0.330E+00    0.485E-01
DAV:   3    -0.136867826118E+04   -0.99546E-02   -0.14223E-01  2584   0.629E-01    0.397E-01
DAV:   4    -0.136867619320E+04    0.20680E-02   -0.13188E-02  2600   0.271E-01    0.282E-01
DAV:   5    -0.136867399639E+04    0.21968E-02   -0.83925E-03  2224   0.182E-01    0.101E-01
DAV:   6    -0.136867433195E+04   -0.33557E-03   -0.51190E-03  2464   0.129E-01    0.106E-01
DAV:   7    -0.136867427022E+04    0.61733E-04   -0.16564E-03  2544   0.764E-02    0.689E-02
DAV:   8    -0.136867423348E+04    0.36741E-04   -0.69132E-04  2544   0.502E-02    0.326E-02
DAV:   9    -0.136867423249E+04    0.99304E-06   -0.10991E-04  2360   0.235E-02    0.234E-02
DAV:  10    -0.136867423353E+04   -0.10395E-05   -0.40231E-05  2432   0.128E-02    0.102E-02
DAV:  11    -0.136867423412E+04   -0.59386E-06   -0.82040E-06  1656   0.778E-03
  11 F= -.13686742E+04 E0= -.13686742E+04  d E =-.305548E+00
 BRION: g(F)=  0.127E+00 g(S)=  0.000E+00 retain N=  3 mean eig= 5.99
 eig:   7.963  7.963  2.036
 bond charge predicted
       N       E                     dE             d eps       ncg     rms          rms(c)
DAV:   1    -0.136879935521E+04   -0.12512E+00   -0.23248E+01  1376   0.689E+00    0.794E-01
DAV:   2    -0.136892061210E+04   -0.12126E+00   -0.12816E+00  2288   0.277E+00    0.403E-01
DAV:   3    -0.136892768059E+04   -0.70685E-02   -0.10080E-01  2592   0.524E-01    0.324E-01
DAV:   4    -0.136892612775E+04    0.15528E-02   -0.89212E-03  2608   0.226E-01    0.233E-01
DAV:   5    -0.136892446578E+04    0.16620E-02   -0.57952E-03  2200   0.151E-01    0.815E-02
DAV:   6    -0.136892469748E+04   -0.23170E-03   -0.37243E-03  2456   0.108E-01    0.801E-02
DAV:   7    -0.136892467671E+04    0.20773E-04   -0.11384E-03  2472   0.627E-02    0.538E-02
DAV:   8    -0.136892465826E+04    0.18449E-04   -0.38947E-04  2584   0.385E-02    0.274E-02
DAV:   9    -0.136892465402E+04    0.42382E-05   -0.77350E-05  2288   0.190E-02    0.183E-02
DAV:  10    -0.136892465526E+04   -0.12330E-05   -0.26321E-05  2360   0.107E-02    0.762E-03
DAV:  11    -0.136892465530E+04   -0.47599E-07   -0.31786E-06  1128   0.615E-03
  12 F= -.13689247E+04 E0= -.13689247E+04  d E =-.250421E+00
 BRION: g(F)=  0.118E+00 g(S)=  0.000E+00 retain N=  3 mean eig= 4.65
 eig:   6.087  6.087  1.789
 bond charge predicted
       N       E                     dE             d eps       ncg     rms          rms(c)
DAV:   1    -0.136904745871E+04   -0.12280E+00   -0.22210E+01  1376   0.675E+00    0.774E-01
DAV:   2    -0.136916284759E+04   -0.11539E+00   -0.12196E+00  2296   0.272E+00    0.392E-01
DAV:   3    -0.136916967590E+04   -0.68283E-02   -0.95608E-02  2600   0.509E-01    0.316E-01
DAV:   4    -0.136916830865E+04    0.13672E-02   -0.81803E-03  2616   0.218E-01    0.229E-01
DAV:   5    -0.136916676675E+04    0.15419E-02   -0.53724E-03  2184   0.145E-01    0.792E-02
DAV:   6    -0.136916699416E+04   -0.22741E-03   -0.33782E-03  2480   0.103E-01    0.804E-02
DAV:   7    -0.136916696877E+04    0.25395E-04   -0.99352E-04  2504   0.585E-02    0.536E-02
DAV:   8    -0.136916694528E+04    0.23485E-04   -0.38128E-04  2584   0.377E-02    0.266E-02
DAV:   9    -0.136916694199E+04    0.32944E-05   -0.68383E-05  2264   0.184E-02    0.182E-02
DAV:  10    -0.136916694285E+04   -0.86307E-06   -0.24796E-05  2304   0.102E-02    0.705E-03
DAV:  11    -0.136916694304E+04   -0.18804E-06   -0.26147E-06  1056   0.589E-03
  13 F= -.13691669E+04 E0= -.13691669E+04  d E =-.242288E+00
 BRION: g(F)=  0.112E+00 g(S)=  0.000E+00 retain N=  3 mean eig= 4.96
 eig:   6.573  6.573  1.742
 bond charge predicted
       N       E                     dE             d eps       ncg     rms          rms(c)
DAV:   1    -0.136929021864E+04   -0.12328E+00   -0.18712E+01  1384   0.614E+00    0.691E-01
DAV:   2    -0.136938678270E+04   -0.96564E-01   -0.10165E+00  2296   0.247E+00    0.352E-01
DAV:   3    -0.136939250230E+04   -0.57196E-02   -0.79254E-02  2592   0.458E-01    0.284E-01
DAV:   4    -0.136939142120E+04    0.10811E-02   -0.65525E-03  2608   0.194E-01    0.208E-01
DAV:   5    -0.136939006755E+04    0.13536E-02   -0.42616E-03  2168   0.131E-01    0.724E-02
DAV:   6    -0.136939025318E+04   -0.18563E-03   -0.29791E-03  2408   0.940E-02    0.709E-02
DAV:   7    -0.136939024223E+04    0.10950E-04   -0.77106E-04  2504   0.517E-02    0.505E-02
DAV:   8    -0.136939022103E+04    0.21201E-04   -0.29689E-04  2560   0.332E-02    0.260E-02
DAV:   9    -0.136939021351E+04    0.75196E-05   -0.74038E-05  2192   0.179E-02    0.163E-02
DAV:  10    -0.136939021445E+04   -0.93150E-06   -0.21372E-05  2248   0.979E-03    0.794E-03
DAV:  11    -0.136939021440E+04    0.50335E-07   -0.61761E-06  1456   0.575E-03
  14 F= -.13693902E+04 E0= -.13693902E+04  d E =-.223271E+00
 BRION: g(F)=  0.108E+00 g(S)=  0.000E+00 retain N=  3 mean eig= 4.72
 eig:   6.197  6.197  1.757
 bond charge predicted
       N       E                     dE             d eps       ncg     rms          rms(c)
DAV:   1    -0.136950851352E+04   -0.11830E+00   -0.14071E+01  1384   0.533E+00    0.605E-01
DAV:   2    -0.136958094989E+04   -0.72436E-01   -0.76304E-01  2296   0.214E+00    0.308E-01
DAV:   3    -0.136958528230E+04   -0.43324E-02   -0.60054E-02  2584   0.398E-01    0.246E-01
DAV:   4    -0.136958443497E+04    0.84733E-03   -0.51408E-03  2608   0.170E-01    0.178E-01
DAV:   5    -0.136958349368E+04    0.94130E-03   -0.31422E-03  2184   0.113E-01    0.639E-02
DAV:   6    -0.136958361719E+04   -0.12352E-03   -0.21036E-03  2440   0.803E-02    0.605E-02
DAV:   7    -0.136958361104E+04    0.61573E-05   -0.65112E-04  2480   0.469E-02    0.427E-02
DAV:   8    -0.136958359704E+04    0.13992E-04   -0.23331E-04  2592   0.296E-02    0.217E-02
DAV:   9    -0.136958359290E+04    0.41480E-05   -0.52852E-05  2216   0.154E-02    0.140E-02
DAV:  10    -0.136958359358E+04   -0.68416E-06   -0.16737E-05  2184   0.857E-03    0.663E-03
DAV:  11    -0.136958359330E+04    0.28445E-06   -0.19295E-06  1008   0.506E-03
  15 F= -.13695836E+04 E0= -.13695836E+04  d E =-.193379E+00
 BRION: g(F)=  0.106E+00 g(S)=  0.000E+00 retain N=  3 mean eig= 4.00
 eig:   5.124  5.124  1.765
 bond charge predicted
       N       E                     dE             d eps       ncg     rms          rms(c)
DAV:   1    -0.136971093192E+04   -0.12734E+00   -0.16379E+01  1384   0.574E+00    0.640E-01
DAV:   2    -0.136979489006E+04   -0.83958E-01   -0.88397E-01  2304   0.230E+00    0.327E-01
DAV:   3    -0.136979976423E+04   -0.48742E-02   -0.67837E-02  2576   0.430E-01    0.263E-01
DAV:   4    -0.136979884126E+04    0.92297E-03   -0.59106E-03  2600   0.180E-01    0.190E-01
DAV:   5    -0.136979777441E+04    0.10669E-02   -0.35099E-03  2208   0.120E-01    0.690E-02
DAV:   6    -0.136979791427E+04   -0.13987E-03   -0.23998E-03  2408   0.849E-02    0.657E-02
DAV:   7    -0.136979790255E+04    0.11717E-04   -0.69780E-04  2504   0.495E-02    0.472E-02
DAV:   8    -0.136979788485E+04    0.17702E-04   -0.29480E-04  2552   0.327E-02    0.233E-02
DAV:   9    -0.136979788047E+04    0.43801E-05   -0.64253E-05  2168   0.168E-02    0.156E-02
DAV:  10    -0.136979788125E+04   -0.77556E-06   -0.20592E-05  2224   0.939E-03    0.823E-03
DAV:  11    -0.136979788070E+04    0.55152E-06   -0.29325E-06  1096   0.575E-03
  16 F= -.13697979E+04 E0= -.13697979E+04  d E =-.214287E+00
 BRION: g(F)=  0.103E+00 g(S)=  0.000E+00 retain N=  3 mean eig= 4.17
 eig:   5.393  5.393  1.726
 bond charge predicted
       N       E                     dE             d eps       ncg     rms          rms(c)
DAV:   1    -0.136992330279E+04   -0.12542E+00   -0.14178E+01  1384   0.532E+00    0.596E-01
DAV:   2    -0.136999569259E+04   -0.72390E-01   -0.76161E-01  2296   0.211E+00    0.304E-01
DAV:   3    -0.137000003416E+04   -0.43416E-02   -0.60292E-02  2576   0.397E-01    0.241E-01
DAV:   4    -0.136999918834E+04    0.84582E-03   -0.51364E-03  2600   0.168E-01    0.175E-01
DAV:   5    -0.136999825275E+04    0.93559E-03   -0.29318E-03  2240   0.111E-01    0.658E-02
DAV:   6    -0.136999833926E+04   -0.86508E-04   -0.20730E-03  2376   0.805E-02    0.565E-02
DAV:   7    -0.136999834220E+04   -0.29395E-05   -0.67264E-04  2448   0.479E-02    0.419E-02
DAV:   8    -0.136999833187E+04    0.10329E-04   -0.24054E-04  2544   0.300E-02    0.218E-02
DAV:   9    -0.136999832654E+04    0.53264E-05   -0.65782E-05  2192   0.167E-02    0.138E-02
DAV:  10    -0.136999832732E+04   -0.77547E-06   -0.18651E-05  2128   0.929E-03    0.826E-03
DAV:  11    -0.136999832669E+04    0.62690E-06   -0.57300E-06  1376   0.610E-03
  17 F= -.13699983E+04 E0= -.13699983E+04  d E =-.200446E+00
 BRION: g(F)=  0.101E+00 g(S)=  0.000E+00 retain N=  3 mean eig= 3.45
 eig:   4.384  4.384  1.587
 bond charge predicted
       N       E                     dE             d eps       ncg     rms          rms(c)
DAV:   1    -0.137012288426E+04   -0.12456E+00   -0.12292E+01  1384   0.497E+00    0.556E-01
DAV:   2    -0.137018555085E+04   -0.62667E-01   -0.66059E-01  2304   0.198E+00    0.285E-01
DAV:   3    -0.137018934595E+04   -0.37951E-02   -0.52452E-02  2584   0.370E-01    0.228E-01
DAV:   4    -0.137018864711E+04    0.69884E-03   -0.44605E-03  2600   0.158E-01    0.165E-01
DAV:   5    -0.137018785521E+04    0.79191E-03   -0.25015E-03  2272   0.102E-01    0.639E-02
DAV:   6    -0.137018792229E+04   -0.67084E-04   -0.17373E-03  2328   0.740E-02    0.543E-02
DAV:   7    -0.137018791872E+04    0.35748E-05   -0.63649E-04  2440   0.466E-02    0.397E-02
DAV:   8    -0.137018791017E+04    0.85479E-05   -0.24866E-04  2528   0.302E-02    0.214E-02
DAV:   9    -0.137018790609E+04    0.40751E-05   -0.61541E-05  2168   0.161E-02    0.142E-02
DAV:  10    -0.137018790690E+04   -0.80412E-06   -0.23854E-05  2152   0.950E-03    0.858E-03
DAV:  11    -0.137018790610E+04    0.79472E-06   -0.37742E-06  1184   0.632E-03
  18 F= -.13701879E+04 E0= -.13701879E+04  d E =-.189579E+00
 BRION: g(F)=  0.981E-01 g(S)=  0.000E+00 retain N=  3 mean eig= 3.94
 eig:   5.093  5.093  1.627
 bond charge predicted
       N       E                     dE             d eps       ncg     rms          rms(c)
DAV:   1    -0.137032703465E+04   -0.13913E+00   -0.22183E+01  1384   0.662E+00    0.736E-01
DAV:   2    -0.137043944388E+04   -0.11241E+00   -0.11822E+00  2296   0.261E+00    0.377E-01
DAV:   3    -0.137044625571E+04   -0.68118E-02   -0.94333E-02  2584   0.497E-01    0.299E-01
DAV:   4    -0.137044499022E+04    0.12655E-02   -0.79778E-03  2616   0.210E-01    0.216E-01
DAV:   5    -0.137044358406E+04    0.14062E-02   -0.40443E-03  2296   0.133E-01    0.881E-02
DAV:   6    -0.137044363528E+04   -0.51216E-04   -0.30793E-03  2328   0.100E-01    0.656E-02
DAV:   7    -0.137044365022E+04   -0.14945E-04   -0.11926E-03  2432   0.639E-02    0.517E-02
DAV:   8    -0.137044363916E+04    0.11064E-04   -0.40689E-04  2544   0.392E-02    0.298E-02
DAV:   9    -0.137044362899E+04    0.10173E-04   -0.13022E-04  2272   0.225E-02    0.180E-02
DAV:  10    -0.137044363154E+04   -0.25569E-05   -0.52432E-05  2336   0.138E-02    0.127E-02
DAV:  11    -0.137044363017E+04    0.13727E-05   -0.16393E-05  1928   0.939E-03    0.594E-03
DAV:  12    -0.137044363053E+04   -0.36357E-06   -0.90310E-06  1760   0.682E-03
  19 F= -.13704436E+04 E0= -.13704436E+04  d E =-.255724E+00
 BRION: g(F)=  0.940E-01 g(S)=  0.000E+00 retain N=  3 mean eig= 5.03
 eig:   6.665  6.665  1.773
 bond charge predicted
       N       E                     dE             d eps       ncg     rms          rms(c)
DAV:   1    -0.137057481779E+04   -0.13119E+00   -0.31796E+01  1376   0.795E+00    0.895E-01
DAV:   2    -0.137073708397E+04   -0.16227E+00   -0.17086E+00  2288   0.313E+00    0.459E-01
DAV:   3    -0.137074675129E+04   -0.96673E-02   -0.13622E-01  2576   0.602E-01    0.362E-01
DAV:   4    -0.137074475613E+04    0.19952E-02   -0.12202E-02  2584   0.258E-01    0.257E-01
DAV:   5    -0.137074281946E+04    0.19367E-02   -0.59525E-03  2360   0.161E-01    0.105E-01
DAV:   6    -0.137074287511E+04   -0.55654E-04   -0.42269E-03  2360   0.121E-01    0.760E-02
DAV:   7    -0.137074290739E+04   -0.32281E-04   -0.17748E-03  2432   0.787E-02    0.613E-02
DAV:   8    -0.137074289085E+04    0.16538E-04   -0.58100E-04  2576   0.472E-02    0.355E-02
DAV:   9    -0.137074287951E+04    0.11345E-04   -0.18535E-04  2408   0.268E-02    0.215E-02
DAV:  10    -0.137074288304E+04   -0.35332E-05   -0.76620E-05  2464   0.167E-02    0.158E-02
DAV:  11    -0.137074288137E+04    0.16714E-05   -0.28893E-05  2304   0.117E-02    0.792E-03
DAV:  12    -0.137074288150E+04   -0.12563E-06   -0.12764E-05  1768   0.800E-03    0.704E-03
DAV:  13    -0.137074288100E+04    0.49634E-06   -0.56935E-06  1392   0.554E-03
  20 F= -.13707429E+04 E0= -.13707429E+04  d E =-.299250E+00
 BRION: g(F)=  0.884E-01 g(S)=  0.000E+00 retain N=  3 mean eig= 5.93
 eig:   7.837  7.837  2.126
