 running on  160 total cores
 distrk:  each k-point on  160 cores,    1 groups
 distr:  one band on   20 cores,    8 groups
 using from now: INCAR     
 vasp.5.4.4.18Apr17-6-g9f103f2a35 (build May 01 2020 14:22:42) gamma-only       
  
 POSCAR found type information on POSCAR  O  La Zr Li Al
 POSCAR found :  5 types and     192 ions
 scaLAPACK will be used
 LDA part: xc-table for Pade appr. of Perdew
 POSCAR, INCAR and KPOINTS ok, starting setup
 FFT: planning ...
 WAVECAR not read
 WARNING: random wavefunctions but no delay for mixing, default for NELMDL
 entering main loop
       N       E                     dE             d eps       ncg     rms          rms(c)
DAV:   1     0.254884605707E+05    0.25488E+05   -0.41882E+05  1552   0.253E+03
DAV:   2     0.951565239762E+04   -0.15973E+05   -0.14804E+05  1432   0.708E+02
DAV:   3     0.269616774981E+04   -0.68195E+04   -0.62089E+04  1504   0.357E+02
DAV:   4    -0.374081920767E+03   -0.30702E+04   -0.28766E+04  2048   0.225E+02
DAV:   5    -0.142433775690E+04   -0.10503E+04   -0.10086E+04  2536   0.139E+02    0.117E+02
DAV:   6    -0.131133916650E+04    0.11300E+03   -0.14648E+03  2424   0.658E+01    0.503E+01
DAV:   7    -0.133470904719E+04   -0.23370E+02   -0.39401E+02  2552   0.341E+01    0.244E+01
DAV:   8    -0.134546932814E+04   -0.10760E+02   -0.27338E+02  2536   0.275E+01    0.270E+01
DAV:   9    -0.133713830145E+04    0.83310E+01   -0.65079E+01  2464   0.156E+01    0.729E+00
DAV:  10    -0.133851814425E+04   -0.13798E+01   -0.15229E+01  2608   0.866E+00    0.819E+00
DAV:  11    -0.133864806229E+04   -0.12992E+00   -0.82262E+00  2624   0.479E+00    0.397E+00
DAV:  12    -0.133851286188E+04    0.13520E+00   -0.31075E+00  2544   0.392E+00    0.281E+00
DAV:  13    -0.133861164173E+04   -0.98780E-01   -0.97224E-01  2552   0.181E+00    0.231E+00
DAV:  14    -0.133857892184E+04    0.32720E-01   -0.42565E-01  2560   0.130E+00    0.126E+00
DAV:  15    -0.133859010441E+04   -0.11183E-01   -0.12776E-01  2472   0.707E-01    0.110E+00
DAV:  16    -0.133858927761E+04    0.82680E-03   -0.41861E-02  2624   0.401E-01    0.727E-01
DAV:  17    -0.133858478683E+04    0.44908E-02   -0.32499E-02  2504   0.351E-01    0.363E-01
DAV:  18    -0.133858533822E+04   -0.55139E-03   -0.69706E-03  2472   0.181E-01    0.227E-01
DAV:  19    -0.133858506050E+04    0.27772E-03   -0.33851E-03  2520   0.109E-01    0.168E-01
DAV:  20    -0.133858505308E+04    0.74279E-05   -0.12055E-03  2520   0.710E-02    0.499E-02
DAV:  21    -0.133858506548E+04   -0.12400E-04   -0.28553E-04  2576   0.375E-02    0.587E-02
DAV:  22    -0.133858508157E+04   -0.16100E-04   -0.11766E-04  2528   0.250E-02    0.253E-02
DAV:  23    -0.133858508311E+04   -0.15333E-05   -0.33878E-05  2360   0.118E-02    0.183E-02
DAV:  24    -0.133858508880E+04   -0.56933E-05   -0.15278E-05  1864   0.965E-03    0.868E-03
DAV:  25    -0.133858508959E+04   -0.78777E-06   -0.37335E-06  1088   0.563E-03
   1 F= -.13385851E+04 E0= -.13385851E+04  d E =-.133859E+04
 BRION: g(F)=  0.405E+02 g(S)=  0.000E+00
 bond charge predicted
       N       E                     dE             d eps       ncg     rms          rms(c)
DAV:   1    -0.132829113152E+04    0.10294E+02   -0.47268E+03  1712   0.105E+02    0.176E+01
DAV:   2    -0.135915380246E+04   -0.30863E+02   -0.36254E+02  2592   0.468E+01    0.101E+01
DAV:   3    -0.135858628526E+04    0.56752E+00   -0.22393E+01  2624   0.121E+01    0.718E+00
DAV:   4    -0.135725860466E+04    0.13277E+01   -0.54523E+00  2560   0.518E+00    0.383E+00
DAV:   5    -0.135683007698E+04    0.42853E+00   -0.20837E+00  2400   0.379E+00    0.226E+00
DAV:   6    -0.135681172568E+04    0.18351E-01   -0.23491E+00  2512   0.298E+00    0.122E+00
DAV:   7    -0.135683257429E+04   -0.20849E-01   -0.51406E-01  2488   0.149E+00    0.117E+00
DAV:   8    -0.135682598532E+04    0.65890E-02   -0.16582E-01  2624   0.695E-01    0.539E-01
DAV:   9    -0.135682461052E+04    0.13748E-02   -0.34584E-02  2624   0.423E-01    0.316E-01
DAV:  10    -0.135682377529E+04    0.83523E-03   -0.13410E-02  2552   0.301E-01    0.178E-01
DAV:  11    -0.135682447384E+04   -0.69854E-03   -0.11703E-02  2568   0.200E-01    0.122E-01
DAV:  12    -0.135682449277E+04   -0.18934E-04   -0.21486E-03  2616   0.951E-02    0.569E-02
DAV:  13    -0.135682451186E+04   -0.19087E-04   -0.73229E-04  2624   0.541E-02    0.291E-02
DAV:  14    -0.135682451578E+04   -0.39282E-05   -0.26350E-04  2624   0.345E-02    0.211E-02
DAV:  15    -0.135682451940E+04   -0.36141E-05   -0.70578E-05  2624   0.190E-02    0.134E-02
DAV:  16    -0.135682451798E+04    0.14170E-05   -0.21261E-05  2544   0.888E-03    0.778E-03
DAV:  17    -0.135682451902E+04   -0.10434E-05   -0.11281E-05  1872   0.757E-03    0.381E-03
DAV:  18    -0.135682451888E+04    0.14236E-06   -0.11616E-06   992   0.487E-03
   2 F= -.13568245E+04 E0= -.13568245E+04  d E =-.182394E+02
 BRION: g(F)=  0.140E+02 g(S)=  0.000E+00 retain N=  1 mean eig= 0.71
 eig:   0.711
 bond charge predicted
       N       E                     dE             d eps       ncg     rms          rms(c)
DAV:   1    -0.135215503496E+04    0.46695E+01   -0.14088E+03  1440   0.524E+01    0.969E+00
DAV:   2    -0.136115691200E+04   -0.90019E+01   -0.10918E+02  2488   0.236E+01    0.873E+00
DAV:   3    -0.136154091877E+04   -0.38401E+00   -0.86704E+00  2568   0.684E+00    0.691E+00
DAV:   4    -0.136126985230E+04    0.27107E+00   -0.22557E+00  2568   0.307E+00    0.429E+00
DAV:   5    -0.136113882577E+04    0.13103E+00   -0.10448E+00  2144   0.261E+00    0.254E+00
DAV:   6    -0.136108763927E+04    0.51186E-01   -0.10540E+00  2512   0.191E+00    0.149E+00
DAV:   7    -0.136109057840E+04   -0.29391E-02   -0.31127E-01  2528   0.106E+00    0.886E-01
DAV:   8    -0.136108934453E+04    0.12339E-02   -0.42015E-02  2624   0.426E-01    0.683E-01
DAV:   9    -0.136108658104E+04    0.27635E-02   -0.21421E-02  2496   0.280E-01    0.465E-01
DAV:  10    -0.136108448157E+04    0.20995E-02   -0.10905E-02  2352   0.223E-01    0.304E-01
DAV:  11    -0.136108423311E+04    0.24846E-03   -0.13332E-02  2376   0.183E-01    0.990E-02
DAV:  12    -0.136108417922E+04    0.53882E-04   -0.13256E-03  2520   0.862E-02    0.541E-02
DAV:  13    -0.136108421733E+04   -0.38106E-04   -0.57794E-04  2552   0.448E-02    0.354E-02
DAV:  14    -0.136108420916E+04    0.81670E-05   -0.11551E-04  2416   0.275E-02    0.206E-02
DAV:  15    -0.136108421481E+04   -0.56434E-05   -0.11708E-04  2312   0.174E-02    0.130E-02
DAV:  16    -0.136108421204E+04    0.27611E-05   -0.17652E-05  2176   0.103E-02    0.638E-03
DAV:  17    -0.136108421219E+04   -0.14687E-06   -0.10486E-05  1816   0.649E-03    0.216E-03
DAV:  18    -0.136108421238E+04   -0.18688E-06   -0.12479E-06  1040   0.405E-03
   3 F= -.13610842E+04 E0= -.13610842E+04  d E =-.425969E+01
 BRION: g(F)=  0.390E+01 g(S)=  0.000E+00 retain N=  2 mean eig= 0.37
 eig:   0.394  0.337
 bond charge predicted
       N       E                     dE             d eps       ncg     rms          rms(c)
DAV:   1    -0.136204288199E+04   -0.95867E+00   -0.31836E+02  1368   0.257E+01    0.501E+00
DAV:   2    -0.136356063812E+04   -0.15178E+01   -0.17233E+01  2280   0.964E+00    0.218E+00
DAV:   3    -0.136361202476E+04   -0.51387E-01   -0.15219E+00  2600   0.232E+00    0.184E+00
DAV:   4    -0.136356108143E+04    0.50943E-01   -0.31571E-01  2576   0.119E+00    0.946E-01
DAV:   5    -0.136354915538E+04    0.11926E-01   -0.13171E-01  2296   0.785E-01    0.594E-01
DAV:   6    -0.136354835674E+04    0.79864E-03   -0.79055E-02  2552   0.559E-01    0.399E-01
DAV:   7    -0.136354807381E+04    0.28293E-03   -0.34101E-02  2408   0.334E-01    0.268E-01
DAV:   8    -0.136354776596E+04    0.30785E-03   -0.78984E-03  2624   0.169E-01    0.142E-01
DAV:   9    -0.136354764180E+04    0.12416E-03   -0.22007E-03  2624   0.996E-02    0.862E-02
DAV:  10    -0.136354775043E+04   -0.10864E-03   -0.15860E-03  2240   0.694E-02    0.901E-02
DAV:  11    -0.136354765326E+04    0.97176E-04   -0.75567E-04  2448   0.528E-02    0.371E-02
DAV:  12    -0.136354766632E+04   -0.13062E-04   -0.45912E-04  2512   0.364E-02    0.300E-02
DAV:  13    -0.136354765890E+04    0.74143E-05   -0.89564E-05  2552   0.205E-02    0.149E-02
DAV:  14    -0.136354766007E+04   -0.11682E-05   -0.22662E-05  2208   0.928E-03    0.798E-03
DAV:  15    -0.136354765974E+04    0.32803E-06   -0.57525E-06  1448   0.578E-03
   4 F= -.13635477E+04 E0= -.13635477E+04  d E =-.246345E+01
 BRION: g(F)=  0.119E+01 g(S)=  0.000E+00 retain N=  3 mean eig= 1.28
 eig:   0.748  1.542  1.542
 bond charge predicted
       N       E                     dE             d eps       ncg     rms          rms(c)
DAV:   1    -0.136423596849E+04   -0.68831E+00   -0.16193E+02  1352   0.183E+01    0.235E+00
DAV:   2    -0.136501006182E+04   -0.77409E+00   -0.82175E+00  2304   0.686E+00    0.117E+00
DAV:   3    -0.136504906842E+04   -0.39007E-01   -0.62770E-01  2616   0.135E+00    0.965E-01
DAV:   4    -0.136503654582E+04    0.12523E-01   -0.76616E-02  2608   0.607E-01    0.618E-01
DAV:   5    -0.136502890340E+04    0.76424E-02   -0.38698E-02  2248   0.396E-01    0.251E-01
DAV:   6    -0.136503016280E+04   -0.12594E-02   -0.19668E-02  2520   0.271E-01    0.242E-01
DAV:   7    -0.136502967685E+04    0.48594E-03   -0.10189E-02  2424   0.187E-01    0.148E-01
DAV:   8    -0.136502963729E+04    0.39562E-04   -0.38520E-03  2568   0.119E-01    0.785E-02
DAV:   9    -0.136502962218E+04    0.15111E-04   -0.60000E-04  2576   0.546E-02    0.569E-02
DAV:  10    -0.136502963695E+04   -0.14771E-04   -0.39250E-04  2368   0.346E-02    0.348E-02
DAV:  11    -0.136502962735E+04    0.95965E-05   -0.15908E-04  2504   0.278E-02    0.164E-02
DAV:  12    -0.136502963192E+04   -0.45652E-05   -0.84138E-05  2392   0.178E-02    0.184E-02
DAV:  13    -0.136502962816E+04    0.37619E-05   -0.30726E-05  2080   0.109E-02    0.882E-03
DAV:  14    -0.136502962818E+04   -0.20271E-07   -0.11410E-05  1792   0.717E-03    0.348E-03
DAV:  15    -0.136502962838E+04   -0.20608E-06   -0.14054E-06   992   0.421E-03
   5 F= -.13650296E+04 E0= -.13650296E+04  d E =-.148197E+01
 BRION: g(F)=  0.694E+00 g(S)=  0.000E+00 retain N=  4 mean eig= 1.68
 eig:   2.222  2.222  1.143  1.143
 bond charge predicted
       N       E                     dE             d eps       ncg     rms          rms(c)
DAV:   1    -0.136554006522E+04   -0.51044E+00   -0.92133E+01  1384   0.139E+01    0.170E+00
DAV:   2    -0.136600894743E+04   -0.46888E+00   -0.49716E+00  2304   0.537E+00    0.855E-01
DAV:   3    -0.136603747167E+04   -0.28524E-01   -0.40195E-01  2584   0.107E+00    0.710E-01
DAV:   4    -0.136603181129E+04    0.56604E-02   -0.42868E-02  2608   0.483E-01    0.494E-01
DAV:   5    -0.136602659050E+04    0.52208E-02   -0.23718E-02  2328   0.312E-01    0.205E-01
DAV:   6    -0.136602732515E+04   -0.73465E-03   -0.15276E-02  2432   0.243E-01    0.199E-01
DAV:   7    -0.136602709753E+04    0.22762E-03   -0.82715E-03  2376   0.167E-01    0.136E-01
DAV:   8    -0.136602704698E+04    0.50547E-04   -0.32352E-03  2576   0.107E-01    0.718E-02
DAV:   9    -0.136602701437E+04    0.32614E-04   -0.53940E-04  2488   0.512E-02    0.508E-02
DAV:  10    -0.136602701762E+04   -0.32506E-05   -0.32843E-04  2528   0.318E-02    0.277E-02
DAV:  11    -0.136602701959E+04   -0.19696E-05   -0.10857E-04  2464   0.230E-02    0.174E-02
DAV:  12    -0.136602701944E+04    0.14767E-06   -0.46865E-05  2352   0.155E-02    0.163E-02
DAV:  13    -0.136602701684E+04    0.26062E-05   -0.38521E-05  2144   0.110E-02    0.751E-03
DAV:  14    -0.136602701691E+04   -0.69078E-07   -0.11960E-05  1760   0.683E-03    0.329E-03
DAV:  15    -0.136602701708E+04   -0.17625E-06   -0.12147E-06   992   0.403E-03
   6 F= -.13660270E+04 E0= -.13660270E+04  d E =-.997389E+00
 BRION: g(F)=  0.486E+00 g(S)=  0.000E+00 retain N=  5 mean eig= 2.20
 eig:   3.347  3.347  1.722  1.722  0.874
 bond charge predicted
       N       E                     dE             d eps       ncg     rms          rms(c)
DAV:   1    -0.136643098189E+04   -0.40396E+00   -0.11711E+02  1392   0.153E+01    0.189E+00
DAV:   2    -0.136703237915E+04   -0.60140E+00   -0.63390E+00  2312   0.620E+00    0.961E-01
DAV:   3    -0.136706476265E+04   -0.32383E-01   -0.47842E-01  2592   0.115E+00    0.770E-01
DAV:   4    -0.136705568393E+04    0.90787E-02   -0.55935E-02  2592   0.537E-01    0.480E-01
DAV:   5    -0.136705120819E+04    0.44757E-02   -0.26126E-02  2360   0.333E-01    0.192E-01
DAV:   6    -0.136705224392E+04   -0.10357E-02   -0.13290E-02  2528   0.219E-01    0.166E-01
DAV:   7    -0.136705207153E+04    0.17238E-03   -0.49309E-03  2488   0.137E-01    0.111E-01
DAV:   8    -0.136705206906E+04    0.24763E-05   -0.22649E-03  2576   0.879E-02    0.592E-02
DAV:   9    -0.136705204799E+04    0.21062E-04   -0.36136E-04  2496   0.426E-02    0.440E-02
DAV:  10    -0.136705205353E+04   -0.55334E-05   -0.26146E-04  2536   0.292E-02    0.261E-02
DAV:  11    -0.136705205188E+04    0.16466E-05   -0.90284E-05  2472   0.203E-02    0.131E-02
DAV:  12    -0.136705205297E+04   -0.10938E-05   -0.32021E-05  2344   0.126E-02    0.120E-02
DAV:  13    -0.136705205186E+04    0.11177E-05   -0.22058E-05  1912   0.866E-03    0.570E-03
DAV:  14    -0.136705205174E+04    0.11561E-06   -0.42815E-06  1248   0.589E-03
   7 F= -.13670521E+04 E0= -.13670521E+04  d E =-.102503E+01
 BRION: g(F)=  0.352E+00 g(S)=  0.000E+00 retain N=  6 mean eig= 3.06
 eig:   5.894  5.894  2.144  2.144  1.144  1.144
 bond charge predicted
       N       E                     dE             d eps       ncg     rms          rms(c)
DAV:   1    -0.136739287534E+04   -0.34082E+00   -0.86528E+01  1376   0.132E+01    0.164E+00
DAV:   2    -0.136783480330E+04   -0.44193E+00   -0.46672E+00  2296   0.525E+00    0.810E-01
DAV:   3    -0.136785949797E+04   -0.24695E-01   -0.36188E-01  2600   0.993E-01    0.648E-01
DAV:   4    -0.136785276896E+04    0.67290E-02   -0.39308E-02  2600   0.459E-01    0.412E-01
DAV:   5    -0.136784894034E+04    0.38286E-02   -0.19420E-02  2344   0.299E-01    0.154E-01
DAV:   6    -0.136784977351E+04   -0.83317E-03   -0.10829E-02  2520   0.197E-01    0.145E-01
DAV:   7    -0.136784968591E+04    0.87599E-04   -0.33919E-03  2512   0.114E-01    0.100E-01
DAV:   8    -0.136784964469E+04    0.41221E-04   -0.15072E-03  2592   0.724E-02    0.485E-02
DAV:   9    -0.136784963517E+04    0.95175E-05   -0.24412E-04  2528   0.355E-02    0.354E-02
DAV:  10    -0.136784963806E+04   -0.28922E-05   -0.14850E-04  2544   0.236E-02    0.201E-02
DAV:  11    -0.136784963733E+04    0.73176E-06   -0.45952E-05  2440   0.151E-02    0.969E-03
DAV:  12    -0.136784963891E+04   -0.15734E-05   -0.21453E-05  2264   0.928E-03    0.931E-03
DAV:  13    -0.136784963805E+04    0.85503E-06   -0.86501E-06  1600   0.643E-03
   8 F= -.13678496E+04 E0= -.13678496E+04  d E =-.797586E+00
 BRION: g(F)=  0.277E+00 g(S)=  0.000E+00 retain N=  4 mean eig= 4.74
 eig:   7.341  7.341  2.135  2.135
 bond charge predicted
       N       E                     dE             d eps       ncg     rms          rms(c)
DAV:   1    -0.136813609493E+04   -0.28646E+00   -0.79629E+01  1376   0.126E+01    0.153E+00
DAV:   2    -0.136854784644E+04   -0.41175E+00   -0.43598E+00  2296   0.507E+00    0.761E-01
DAV:   3    -0.136857135074E+04   -0.23504E-01   -0.34186E-01  2592   0.937E-01    0.615E-01
DAV:   4    -0.136856516195E+04    0.61888E-02   -0.35354E-02  2560   0.438E-01    0.393E-01
DAV:   5    -0.136856144589E+04    0.37161E-02   -0.17414E-02  2336   0.270E-01    0.145E-01
DAV:   6    -0.136856211109E+04   -0.66520E-03   -0.91640E-03  2496   0.178E-01    0.129E-01
DAV:   7    -0.136856204947E+04    0.61616E-04   -0.31750E-03  2536   0.110E-01    0.869E-02
DAV:   8    -0.136856203619E+04    0.13283E-04   -0.12721E-03  2608   0.675E-02    0.461E-02
DAV:   9    -0.136856202568E+04    0.10512E-04   -0.24139E-04  2384   0.339E-02    0.353E-02
DAV:  10    -0.136856202836E+04   -0.26845E-05   -0.14553E-04  2424   0.225E-02    0.200E-02
DAV:  11    -0.136856202735E+04    0.10176E-05   -0.52322E-05  2376   0.159E-02    0.954E-03
DAV:  12    -0.136856202880E+04   -0.14546E-05   -0.23064E-05  2304   0.103E-02    0.947E-03
DAV:  13    -0.136856202792E+04    0.88300E-06   -0.10023E-05  1608   0.677E-03    0.433E-03
DAV:  14    -0.136856202786E+04    0.58790E-07   -0.24650E-06  1008   0.580E-03
   9 F= -.13685620E+04 E0= -.13685620E+04  d E =-.712390E+00
 BRION: g(F)=  0.232E+00 g(S)=  0.000E+00 retain N=  3 mean eig= 5.23
 eig:   6.725  6.725  2.241
 bond charge predicted
       N       E                     dE             d eps       ncg     rms          rms(c)
DAV:   1    -0.136882471931E+04   -0.26269E+00   -0.54391E+01  1376   0.105E+01    0.126E+00
DAV:   2    -0.136910972854E+04   -0.28501E+00   -0.30265E+00  2320   0.424E+00    0.635E-01
DAV:   3    -0.136912515436E+04   -0.15426E-01   -0.23171E-01  2584   0.808E-01    0.503E-01
DAV:   4    -0.136912078889E+04    0.43655E-02   -0.24682E-02  2592   0.367E-01    0.326E-01
DAV:   5    -0.136911806318E+04    0.27257E-02   -0.12877E-02  2312   0.231E-01    0.122E-01
DAV:   6    -0.136911849928E+04   -0.43610E-03   -0.65647E-03  2504   0.153E-01    0.112E-01
DAV:   7    -0.136911846118E+04    0.38097E-04   -0.23870E-03  2504   0.935E-02    0.745E-02
DAV:   8    -0.136911844536E+04    0.15823E-04   -0.92565E-04  2616   0.582E-02    0.399E-02
DAV:   9    -0.136911844038E+04    0.49809E-05   -0.16179E-04  2536   0.289E-02    0.296E-02
DAV:  10    -0.136911844260E+04   -0.22199E-05   -0.11353E-04  2480   0.196E-02    0.168E-02
DAV:  11    -0.136911844175E+04    0.84638E-06   -0.35383E-05  2376   0.136E-02    0.785E-03
DAV:  12    -0.136911844277E+04   -0.10196E-05   -0.15695E-05  2008   0.835E-03    0.732E-03
DAV:  13    -0.136911844204E+04    0.73476E-06   -0.34120E-06  1152   0.572E-03
  10 F= -.13691184E+04 E0= -.13691184E+04  d E =-.556414E+00
 BRION: g(F)=  0.204E+00 g(S)=  0.000E+00 retain N=  3 mean eig= 5.70
 eig:   7.453  7.453  2.196
 bond charge predicted
       N       E                     dE             d eps       ncg     rms          rms(c)
DAV:   1    -0.136936493810E+04   -0.24650E+00   -0.45644E+01  1384   0.955E+00    0.113E+00
DAV:   2    -0.136960134448E+04   -0.23641E+00   -0.25053E+00  2312   0.382E+00    0.566E-01
DAV:   3    -0.136961406757E+04   -0.12723E-01   -0.19124E-01  2584   0.720E-01    0.454E-01
DAV:   4    -0.136961042130E+04    0.36463E-02   -0.19267E-02  2560   0.324E-01    0.298E-01
DAV:   5    -0.136960782827E+04    0.25930E-02   -0.10492E-02  2296   0.213E-01    0.106E-01
DAV:   6    -0.136960823729E+04   -0.40901E-03   -0.60130E-03  2496   0.142E-01    0.104E-01
DAV:   7    -0.136960819348E+04    0.43805E-04   -0.18035E-03  2552   0.829E-02    0.716E-02
DAV:   8    -0.136960816960E+04    0.23878E-04   -0.76046E-04  2536   0.517E-02    0.351E-02
DAV:   9    -0.136960816526E+04    0.43435E-05   -0.13525E-04  2360   0.261E-02    0.261E-02
DAV:  10    -0.136960816551E+04   -0.24629E-06   -0.65406E-05  2432   0.167E-02    0.138E-02
DAV:  11    -0.136960816561E+04   -0.10549E-06   -0.26004E-05  2344   0.109E-02    0.625E-03
DAV:  12    -0.136960816637E+04   -0.75599E-06   -0.97803E-06  1768   0.696E-03
  11 F= -.13696082E+04 E0= -.13696082E+04  d E =-.489724E+00
 BRION: g(F)=  0.182E+00 g(S)=  0.000E+00 retain N=  2 mean eig= 4.12
 eig:   4.115  4.115
 bond charge predicted
       N       E                     dE             d eps       ncg     rms          rms(c)
DAV:   1    -0.136982537263E+04   -0.21721E+00   -0.35494E+01  1384   0.845E+00    0.996E-01
DAV:   2    -0.137001268888E+04   -0.18732E+00   -0.19854E+00  2320   0.342E+00    0.503E-01
DAV:   3    -0.137002275421E+04   -0.10065E-01   -0.15141E-01  2584   0.647E-01    0.405E-01
DAV:   4    -0.137001991342E+04    0.28408E-02   -0.14687E-02  2576   0.286E-01    0.277E-01
DAV:   5    -0.137001752814E+04    0.23853E-02   -0.93754E-03  2224   0.191E-01    0.979E-02
DAV:   6    -0.137001787879E+04   -0.35065E-03   -0.52889E-03  2488   0.130E-01    0.102E-01
DAV:   7    -0.137001783172E+04    0.47072E-04   -0.16913E-03  2528   0.776E-02    0.674E-02
DAV:   8    -0.137001779757E+04    0.34150E-04   -0.62567E-04  2576   0.484E-02    0.325E-02
DAV:   9    -0.137001779615E+04    0.14240E-05   -0.11073E-04  2464   0.234E-02    0.229E-02
DAV:  10    -0.137001779777E+04   -0.16267E-05   -0.46527E-05  2488   0.139E-02    0.106E-02
DAV:  11    -0.137001779784E+04   -0.72701E-07   -0.14020E-05  2056   0.899E-03    0.514E-03
DAV:  12    -0.137001779861E+04   -0.76058E-06   -0.96290E-06  1744   0.598E-03
  12 F= -.13700178E+04 E0= -.13700178E+04  d E =-.409632E+00
 BRION: g(F)=  0.166E+00 g(S)=  0.000E+00 retain N=  3 mean eig= 5.49
 eig:   7.196  7.196  2.063
 bond charge predicted
       N       E                     dE             d eps       ncg     rms          rms(c)
DAV:   1    -0.137021155665E+04   -0.19376E+00   -0.45844E+01  1392   0.965E+00    0.113E+00
DAV:   2    -0.137045273091E+04   -0.24117E+00   -0.25587E+00  2328   0.391E+00    0.568E-01
DAV:   3    -0.137046600407E+04   -0.13273E-01   -0.19596E-01  2584   0.736E-01    0.462E-01
DAV:   4    -0.137046275912E+04    0.32449E-02   -0.18506E-02  2608   0.322E-01    0.325E-01
DAV:   5    -0.137045952499E+04    0.32341E-02   -0.11426E-02  2232   0.214E-01    0.119E-01
DAV:   6    -0.137045992528E+04   -0.40029E-03   -0.71175E-03  2432   0.151E-01    0.121E-01
DAV:   7    -0.137045984225E+04    0.83025E-04   -0.24408E-03  2464   0.920E-02    0.820E-02
DAV:   8    -0.137045979896E+04    0.43295E-04   -0.10661E-03  2584   0.616E-02    0.400E-02
DAV:   9    -0.137045979347E+04    0.54866E-05   -0.18371E-04  2328   0.297E-02    0.288E-02
DAV:  10    -0.137045979460E+04   -0.11316E-05   -0.77846E-05  2408   0.174E-02    0.143E-02
DAV:  11    -0.137045979477E+04   -0.16610E-06   -0.24323E-05  2296   0.111E-02    0.652E-03
DAV:  12    -0.137045979554E+04   -0.76574E-06   -0.11820E-05  1808   0.715E-03    0.631E-03
DAV:  13    -0.137045979504E+04    0.49421E-06   -0.16398E-06   992   0.472E-03
  13 F= -.13704598E+04 E0= -.13704598E+04  d E =-.441996E+00
 BRION: g(F)=  0.148E+00 g(S)=  0.000E+00 retain N=  2 mean eig= 4.31
 eig:   4.305  4.305
 bond charge predicted
       N       E                     dE             d eps       ncg     rms          rms(c)
DAV:   1    -0.137061043396E+04   -0.15064E+00   -0.54494E+01  1392   0.104E+01    0.119E+00
DAV:   2    -0.137089555405E+04   -0.28512E+00   -0.30037E+00  2296   0.421E+00    0.604E-01
DAV:   3    -0.137091132737E+04   -0.15773E-01   -0.23079E-01  2576   0.775E-01    0.494E-01
DAV:   4    -0.137090775545E+04    0.35719E-02   -0.20489E-02  2592   0.336E-01    0.362E-01
DAV:   5    -0.137090299688E+04    0.47586E-02   -0.11966E-02  2184   0.235E-01    0.142E-01
DAV:   6    -0.137090328413E+04   -0.28724E-03   -0.11055E-02  2280   0.188E-01    0.122E-01
DAV:   7    -0.137090331410E+04   -0.29969E-04   -0.37559E-03  2376   0.108E-01    0.101E-01
DAV:   8    -0.137090326622E+04    0.47880E-04   -0.11686E-03  2592   0.660E-02    0.550E-02
DAV:   9    -0.137090320729E+04    0.58931E-04   -0.49457E-04  2320   0.431E-02    0.288E-02
DAV:  10    -0.137090322221E+04   -0.14924E-04   -0.16418E-04  2336   0.253E-02    0.256E-02
DAV:  11    -0.137090321368E+04    0.85323E-05   -0.68495E-05  2384   0.165E-02    0.114E-02
DAV:  12    -0.137090321450E+04   -0.82543E-06   -0.26920E-05  2200   0.112E-02    0.948E-03
DAV:  13    -0.137090321420E+04    0.29877E-06   -0.14127E-05  1768   0.710E-03    0.472E-03
DAV:  14    -0.137090321402E+04    0.18047E-06   -0.20672E-06  1024   0.488E-03
  14 F= -.13709032E+04 E0= -.13709032E+04  d E =-.443419E+00
 BRION: g(F)=  0.131E+00 g(S)=  0.000E+00 retain N=  2 mean eig= 5.16
 eig:   5.156  5.156
 bond charge predicted
       N       E                     dE             d eps       ncg     rms          rms(c)
DAV:   1    -0.137102836006E+04   -0.12515E+00   -0.39958E+01  1384   0.905E+00    0.105E+00
DAV:   2    -0.137123833711E+04   -0.20998E+00   -0.22253E+00  2312   0.368E+00    0.530E-01
DAV:   3    -0.137125053217E+04   -0.12195E-01   -0.17466E-01  2568   0.685E-01    0.433E-01
DAV:   4    -0.137124788105E+04    0.26511E-02   -0.15804E-02  2584   0.298E-01    0.315E-01
DAV:   5    -0.137124486319E+04    0.30179E-02   -0.10610E-02  2176   0.202E-01    0.118E-01
DAV:   6    -0.137124523181E+04   -0.36861E-03   -0.68777E-03  2424   0.146E-01    0.125E-01
DAV:   7    -0.137124514152E+04    0.90283E-04   -0.25097E-03  2472   0.922E-02    0.835E-02
DAV:   8    -0.137124508097E+04    0.60552E-04   -0.10061E-03  2576   0.608E-02    0.388E-02
DAV:   9    -0.137124507614E+04    0.48363E-05   -0.17202E-04  2344   0.289E-02    0.264E-02
DAV:  10    -0.137124507709E+04   -0.95284E-06   -0.58367E-05  2480   0.154E-02    0.115E-02
DAV:  11    -0.137124507789E+04   -0.80414E-06   -0.15885E-05  2200   0.934E-03    0.485E-03
DAV:  12    -0.137124507829E+04   -0.39475E-06   -0.51102E-06  1384   0.556E-03
  15 F= -.13712451E+04 E0= -.13712451E+04  d E =-.341864E+00
 BRION: g(F)=  0.115E+00 g(S)=  0.000E+00 retain N=  2 mean eig= 5.23
 eig:   5.233  5.233
 bond charge predicted
       N       E                     dE             d eps       ncg     rms          rms(c)
DAV:   1    -0.137130045363E+04   -0.55376E-01   -0.62202E+01  1384   0.111E+01    0.125E+00
DAV:   2    -0.137162270634E+04   -0.32225E+00   -0.33921E+00  2296   0.446E+00    0.641E-01
DAV:   3    -0.137164087562E+04   -0.18169E-01   -0.26035E-01  2568   0.823E-01    0.528E-01
DAV:   4    -0.137163742973E+04    0.34459E-02   -0.23163E-02  2608   0.352E-01    0.394E-01
DAV:   5    -0.137163216101E+04    0.52687E-02   -0.12167E-02  2208   0.238E-01    0.168E-01
DAV:   6    -0.137163224766E+04   -0.86645E-04   -0.12852E-02  2240   0.205E-01    0.127E-01
DAV:   7    -0.137163231981E+04   -0.72155E-04   -0.50883E-03  2360   0.125E-01    0.111E-01
DAV:   8    -0.137163226638E+04    0.53434E-04   -0.13762E-03  2576   0.743E-02    0.644E-02
DAV:   9    -0.137163219183E+04    0.74542E-04   -0.68112E-04  2440   0.490E-02    0.317E-02
DAV:  10    -0.137163221250E+04   -0.20670E-04   -0.23397E-04  2432   0.301E-02    0.289E-02
DAV:  11    -0.137163220364E+04    0.88595E-05   -0.97690E-05  2400   0.199E-02    0.150E-02
DAV:  12    -0.137163220376E+04   -0.11489E-06   -0.40672E-05  2288   0.133E-02    0.130E-02
DAV:  13    -0.137163220279E+04    0.96984E-06   -0.25677E-05  2008   0.883E-03    0.653E-03
DAV:  14    -0.137163220237E+04    0.41405E-06   -0.31467E-06  1168   0.529E-03
  16 F= -.13716322E+04 E0= -.13716322E+04  d E =-.387124E+00
 BRION: g(F)=  0.982E-01 g(S)=  0.000E+00 retain N=  2 mean eig= 5.45
 eig:   5.449  5.449
 bond charge predicted
       N       E                     dE             d eps       ncg     rms          rms(c)
DAV:   1    -0.137167061876E+04   -0.38416E-01   -0.48482E+01  1384   0.989E+00    0.111E+00
DAV:   2    -0.137191977419E+04   -0.24916E+00   -0.26213E+00  2312   0.394E+00    0.567E-01
DAV:   3    -0.137193380485E+04   -0.14031E-01   -0.20123E-01  2568   0.726E-01    0.459E-01
DAV:   4    -0.137193074161E+04    0.30632E-02   -0.17912E-02  2576   0.314E-01    0.334E-01
DAV:   5    -0.137192710440E+04    0.36372E-02   -0.10648E-02  2192   0.210E-01    0.127E-01
DAV:   6    -0.137192741032E+04   -0.30592E-03   -0.83528E-03  2360   0.162E-01    0.117E-01
DAV:   7    -0.137192739095E+04    0.19369E-04   -0.28624E-03  2368   0.958E-02    0.879E-02
DAV:   8    -0.137192733962E+04    0.51336E-04   -0.10490E-03  2600   0.625E-02    0.438E-02
DAV:   9    -0.137192731760E+04    0.22014E-04   -0.27600E-04  2232   0.340E-02    0.270E-02
DAV:  10    -0.137192732282E+04   -0.52199E-05   -0.85533E-05  2312   0.182E-02    0.180E-02
DAV:  11    -0.137192732045E+04    0.23771E-05   -0.35622E-05  2336   0.122E-02    0.764E-03
DAV:  12    -0.137192732135E+04   -0.90028E-06   -0.13853E-05  1840   0.840E-03    0.748E-03
DAV:  13    -0.137192732070E+04    0.64357E-06   -0.33569E-06  1184   0.522E-03
  17 F= -.13719273E+04 E0= -.13719273E+04  d E =-.295118E+00
 BRION: g(F)=  0.833E-01 g(S)=  0.000E+00 retain N=  2 mean eig= 5.66
 eig:   5.656  5.656
 bond charge predicted
       N       E                     dE             d eps       ncg     rms          rms(c)
DAV:   1    -0.137198484455E+04   -0.57523E-01   -0.26162E+01  1368   0.730E+00    0.813E-01
DAV:   2    -0.137211815104E+04   -0.13331E+00   -0.14074E+00  2288   0.288E+00    0.414E-01
DAV:   3    -0.137212627122E+04   -0.81202E-02   -0.11191E-01  2576   0.545E-01    0.339E-01
DAV:   4    -0.137212485816E+04    0.14131E-02   -0.97264E-03  2584   0.234E-01    0.249E-01
DAV:   5    -0.137212305868E+04    0.17995E-02   -0.58262E-03  2192   0.151E-01    0.975E-02
DAV:   6    -0.137212321933E+04   -0.16065E-03   -0.42140E-03  2344   0.117E-01    0.926E-02
DAV:   7    -0.137212318323E+04    0.36097E-04   -0.18241E-03  2352   0.761E-02    0.639E-02
DAV:   8    -0.137212316075E+04    0.22482E-04   -0.65213E-04  2536   0.499E-02    0.340E-02
DAV:   9    -0.137212315240E+04    0.83482E-05   -0.14052E-04  2272   0.250E-02    0.227E-02
DAV:  10    -0.137212315385E+04   -0.14499E-05   -0.54500E-05  2344   0.139E-02    0.123E-02
DAV:  11    -0.137212315409E+04   -0.23656E-06   -0.16655E-05  2048   0.957E-03    0.726E-03
DAV:  12    -0.137212315420E+04   -0.11365E-06   -0.99000E-06  1760   0.685E-03
  18 F= -.13721232E+04 E0= -.13721232E+04  d E =-.195833E+00
 BRION: g(F)=  0.725E-01 g(S)=  0.000E+00 retain N=  2 mean eig= 4.54
 eig:   4.541  4.541
 bond charge predicted
       N       E                     dE             d eps       ncg     rms          rms(c)
DAV:   1    -0.137210078607E+04    0.22368E-01   -0.50260E+01  1376   0.100E+01    0.109E+00
DAV:   2    -0.137235557562E+04   -0.25479E+00   -0.26682E+00  2288   0.394E+00    0.560E-01
DAV:   3    -0.137237047696E+04   -0.14901E-01   -0.20552E-01  2568   0.730E-01    0.453E-01
DAV:   4    -0.137236801353E+04    0.24634E-02   -0.17860E-02  2592   0.309E-01    0.337E-01
DAV:   5    -0.137236450427E+04    0.35093E-02   -0.86351E-03  2240   0.194E-01    0.144E-01
DAV:   6    -0.137236451533E+04   -0.11056E-04   -0.82163E-03  2264   0.164E-01    0.983E-02
DAV:   7    -0.137236460346E+04   -0.88132E-04   -0.36832E-03  2432   0.105E-01    0.860E-02
DAV:   8    -0.137236456519E+04    0.38272E-04   -0.91162E-04  2584   0.628E-02    0.504E-02
DAV:   9    -0.137236453097E+04    0.34220E-04   -0.40982E-04  2408   0.377E-02    0.268E-02
DAV:  10    -0.137236454220E+04   -0.11227E-04   -0.13662E-04  2448   0.228E-02    0.221E-02
DAV:  11    -0.137236453854E+04    0.36590E-05   -0.64159E-05  2384   0.162E-02    0.118E-02
DAV:  12    -0.137236453836E+04    0.17670E-06   -0.23981E-05  2112   0.109E-02    0.106E-02
DAV:  13    -0.137236453759E+04    0.77508E-06   -0.16914E-05  1816   0.735E-03    0.553E-03
DAV:  14    -0.137236453720E+04    0.39036E-06   -0.22059E-06  1032   0.493E-03
  19 F= -.13723645E+04 E0= -.13723645E+04  d E =-.241383E+00
 BRION: g(F)=  0.613E-01 g(S)=  0.000E+00 retain N=  2 mean eig= 4.75
 eig:   4.752  4.752
 bond charge predicted
       N       E                     dE             d eps       ncg     rms          rms(c)
DAV:   1    -0.137237394287E+04   -0.94053E-02   -0.28343E+01  1376   0.758E+00    0.822E-01
DAV:   2    -0.137251727757E+04   -0.14333E+00   -0.15033E+00  2304   0.298E+00    0.422E-01
DAV:   3    -0.137252574832E+04   -0.84707E-02   -0.11617E-01  2568   0.549E-01    0.337E-01
DAV:   4    -0.137252424418E+04    0.15041E-02   -0.10104E-02  2568   0.236E-01    0.248E-01
DAV:   5    -0.137252241467E+04    0.18295E-02   -0.57798E-03  2280   0.151E-01    0.982E-02
DAV:   6    -0.137252251789E+04   -0.10322E-03   -0.41361E-03  2304   0.121E-01    0.799E-02
DAV:   7    -0.137252254268E+04   -0.24791E-04   -0.20429E-03  2424   0.793E-02    0.601E-02
DAV:   8    -0.137252252129E+04    0.21387E-04   -0.53769E-04  2536   0.480E-02    0.334E-02
DAV:   9    -0.137252251291E+04    0.83872E-05   -0.15690E-04  2376   0.252E-02    0.214E-02
DAV:  10    -0.137252251566E+04   -0.27496E-05   -0.56328E-05  2464   0.145E-02    0.141E-02
DAV:  11    -0.137252251544E+04    0.21682E-06   -0.28450E-05  2208   0.114E-02    0.852E-03
DAV:  12    -0.137252251516E+04    0.27976E-06   -0.11573E-05  1768   0.829E-03    0.780E-03
DAV:  13    -0.137252251472E+04    0.44452E-06   -0.73790E-06  1584   0.558E-03
  20 F= -.13725225E+04 E0= -.13725225E+04  d E =-.157978E+00
 BRION: g(F)=  0.527E-01 g(S)=  0.000E+00 retain N=  3 mean eig= 5.90
 eig:   7.810  7.810  2.072
