 running on  160 total cores
 distrk:  each k-point on  160 cores,    1 groups
 distr:  one band on   20 cores,    8 groups
 using from now: INCAR     
 vasp.5.4.4.18Apr17-6-g9f103f2a35 (build May 01 2020 14:22:42) gamma-only       
  
 POSCAR found type information on POSCAR  O  La Zr Li Al
 POSCAR found :  5 types and     192 ions
 scaLAPACK will be used
 LDA part: xc-table for Pade appr. of Perdew
 POSCAR, INCAR and KPOINTS ok, starting setup
 FFT: planning ...
 WAVECAR not read
 WARNING: random wavefunctions but no delay for mixing, default for NELMDL
 entering main loop
       N       E                     dE             d eps       ncg     rms          rms(c)
DAV:   1     0.254281982139E+05    0.25428E+05   -0.41992E+05  1576   0.253E+03
DAV:   2     0.952078721533E+04   -0.15907E+05   -0.14743E+05  1432   0.707E+02
DAV:   3     0.267246449338E+04   -0.68483E+04   -0.62391E+04  1536   0.358E+02
DAV:   4    -0.408331699183E+03   -0.30808E+04   -0.28844E+04  2048   0.228E+02
DAV:   5    -0.143434811906E+04   -0.10260E+04   -0.98867E+03  2536   0.139E+02    0.117E+02
DAV:   6    -0.131087836650E+04    0.12347E+03   -0.14095E+03  2432   0.655E+01    0.501E+01
DAV:   7    -0.133521770394E+04   -0.24339E+02   -0.38846E+02  2560   0.335E+01    0.239E+01
DAV:   8    -0.134698364561E+04   -0.11766E+02   -0.26783E+02  2560   0.267E+01    0.271E+01
DAV:   9    -0.133825035102E+04    0.87333E+01   -0.69745E+01  2448   0.157E+01    0.725E+00
DAV:  10    -0.133991963009E+04   -0.16693E+01   -0.15755E+01  2584   0.905E+00    0.899E+00
DAV:  11    -0.133984111413E+04    0.78516E-01   -0.91343E+00  2624   0.502E+00    0.404E+00
DAV:  12    -0.133972557143E+04    0.11554E+00   -0.32446E+00  2600   0.403E+00    0.271E+00
DAV:  13    -0.133981827636E+04   -0.92705E-01   -0.10427E+00  2584   0.195E+00    0.217E+00
DAV:  14    -0.133979280075E+04    0.25476E-01   -0.41725E-01  2592   0.129E+00    0.121E+00
DAV:  15    -0.133980503450E+04   -0.12234E-01   -0.15647E-01  2496   0.784E-01    0.110E+00
DAV:  16    -0.133980590000E+04   -0.86550E-03   -0.43314E-02  2624   0.430E-01    0.758E-01
DAV:  17    -0.133980069309E+04    0.52069E-02   -0.30569E-02  2496   0.349E-01    0.360E-01
DAV:  18    -0.133980123671E+04   -0.54362E-03   -0.67345E-03  2488   0.174E-01    0.227E-01
DAV:  19    -0.133980089181E+04    0.34489E-03   -0.36794E-03  2512   0.107E-01    0.185E-01
DAV:  20    -0.133980089093E+04    0.88081E-06   -0.13920E-03  2560   0.763E-02    0.621E-02
DAV:  21    -0.133980089331E+04   -0.23749E-05   -0.36115E-04  2552   0.409E-02    0.623E-02
DAV:  22    -0.133980090606E+04   -0.12756E-04   -0.12218E-04  2544   0.239E-02    0.315E-02
DAV:  23    -0.133980091410E+04   -0.80353E-05   -0.31908E-05  2152   0.112E-02    0.121E-02
DAV:  24    -0.133980091577E+04   -0.16656E-05   -0.15302E-05  1624   0.885E-03    0.114E-02
DAV:  25    -0.133980091850E+04   -0.27304E-05   -0.33497E-06  1040   0.615E-03    0.441E-03
DAV:  26    -0.133980091733E+04    0.11698E-05   -0.22141E-06  1016   0.513E-03    0.559E-03
DAV:  27    -0.133980091803E+04   -0.69890E-06   -0.14608E-06   968   0.461E-03
   1 F= -.13398009E+04 E0= -.13398009E+04  d E =-.133980E+04
 BRION: g(F)=  0.376E+02 g(S)=  0.000E+00
 bond charge predicted
       N       E                     dE             d eps       ncg     rms          rms(c)
DAV:   1    -0.133446823394E+04    0.53327E+01   -0.38726E+03  1680   0.961E+01    0.150E+01
DAV:   2    -0.135880198725E+04   -0.24334E+02   -0.28693E+02  2568   0.414E+01    0.906E+00
DAV:   3    -0.135867587047E+04    0.12612E+00   -0.18694E+01  2608   0.109E+01    0.668E+00
DAV:   4    -0.135788656802E+04    0.78930E+00   -0.43441E+00  2608   0.437E+00    0.381E+00
DAV:   5    -0.135755760402E+04    0.32896E+00   -0.13506E+00  2304   0.300E+00    0.207E+00
DAV:   6    -0.135750756096E+04    0.50043E-01   -0.14438E+00  2368   0.257E+00    0.994E-01
DAV:   7    -0.135755089666E+04   -0.43336E-01   -0.67188E-01  2312   0.153E+00    0.111E+00
DAV:   8    -0.135754929798E+04    0.15987E-02   -0.10426E-01  2616   0.622E-01    0.828E-01
DAV:   9    -0.135754333222E+04    0.59658E-02   -0.84616E-02  2624   0.534E-01    0.387E-01
DAV:  10    -0.135754391302E+04   -0.58079E-03   -0.27545E-02  2360   0.354E-01    0.297E-01
DAV:  11    -0.135754302213E+04    0.89088E-03   -0.11336E-02  2576   0.233E-01    0.163E-01
DAV:  12    -0.135754346467E+04   -0.44253E-03   -0.96224E-03  2400   0.157E-01    0.142E-01
DAV:  13    -0.135754322067E+04    0.24400E-03   -0.20342E-03  2576   0.894E-02    0.524E-02
DAV:  14    -0.135754325054E+04   -0.29871E-04   -0.63345E-04  2624   0.482E-02    0.229E-02
DAV:  15    -0.135754325972E+04   -0.91764E-05   -0.11581E-04  2456   0.224E-02    0.105E-02
DAV:  16    -0.135754326293E+04   -0.32100E-05   -0.39046E-05  2536   0.111E-02    0.847E-03
DAV:  17    -0.135754326245E+04    0.47666E-06   -0.55040E-06  1416   0.722E-03
   2 F= -.13575433E+04 E0= -.13575433E+04  d E =-.177423E+02
 BRION: g(F)=  0.120E+02 g(S)=  0.000E+00 retain N=  1 mean eig= 0.74
 eig:   0.740
 bond charge predicted
       N       E                     dE             d eps       ncg     rms          rms(c)
DAV:   1    -0.135490074687E+04    0.26425E+01   -0.12048E+03  1488   0.500E+01    0.872E+00
DAV:   2    -0.136185674009E+04   -0.69560E+01   -0.85981E+01  2504   0.218E+01    0.663E+00
DAV:   3    -0.136216021030E+04   -0.30347E+00   -0.74491E+00  2576   0.639E+00    0.538E+00
DAV:   4    -0.136194390041E+04    0.21631E+00   -0.15364E+00  2600   0.260E+00    0.331E+00
DAV:   5    -0.136185319445E+04    0.90706E-01   -0.95749E-01  2136   0.206E+00    0.208E+00
DAV:   6    -0.136181656174E+04    0.36633E-01   -0.59774E-01  2512   0.152E+00    0.143E+00
DAV:   7    -0.136181035166E+04    0.62101E-02   -0.35867E-01  2392   0.104E+00    0.635E-01
DAV:   8    -0.136181109037E+04   -0.73871E-03   -0.45970E-02  2544   0.442E-01    0.411E-01
DAV:   9    -0.136181059742E+04    0.49295E-03   -0.13754E-02  2488   0.247E-01    0.254E-01
DAV:  10    -0.136181110340E+04   -0.50598E-03   -0.71494E-03  2256   0.162E-01    0.237E-01
DAV:  11    -0.136181039058E+04    0.71282E-03   -0.52923E-03  2416   0.123E-01    0.735E-02
DAV:  12    -0.136181043180E+04   -0.41220E-04   -0.12224E-03  2520   0.719E-02    0.439E-02
DAV:  13    -0.136181043716E+04   -0.53582E-05   -0.35230E-04  2592   0.374E-02    0.257E-02
DAV:  14    -0.136181043972E+04   -0.25626E-05   -0.14623E-04  2616   0.216E-02    0.126E-02
DAV:  15    -0.136181044122E+04   -0.15000E-05   -0.30803E-05  2544   0.125E-02    0.608E-03
DAV:  16    -0.136181044120E+04    0.20154E-07   -0.33764E-06  1088   0.571E-03
   3 F= -.13618104E+04 E0= -.13618104E+04  d E =-.426718E+01
 BRION: g(F)=  0.358E+01 g(S)=  0.000E+00 retain N=  2 mean eig= 0.15
 eig:   0.290  0.003
 bond charge predicted
       N       E                     dE             d eps       ncg     rms          rms(c)
DAV:   1    -0.136290124055E+04   -0.10908E+01   -0.29173E+02  1352   0.252E+01    0.447E+00
DAV:   2    -0.136434456863E+04   -0.14433E+01   -0.16422E+01  2288   0.962E+00    0.200E+00
DAV:   3    -0.136441104553E+04   -0.66477E-01   -0.14964E+00  2608   0.228E+00    0.174E+00
DAV:   4    -0.136437367982E+04    0.37366E-01   -0.26034E-01  2608   0.114E+00    0.983E-01
DAV:   5    -0.136436156761E+04    0.12112E-01   -0.12607E-01  2208   0.688E-01    0.528E-01
DAV:   6    -0.136436169007E+04   -0.12246E-03   -0.54520E-02  2576   0.486E-01    0.438E-01
DAV:   7    -0.136436093721E+04    0.75286E-03   -0.44736E-02  2392   0.364E-01    0.256E-01
DAV:   8    -0.136436083377E+04    0.10344E-03   -0.94338E-03  2584   0.199E-01    0.143E-01
DAV:   9    -0.136436076470E+04    0.69070E-04   -0.24632E-03  2616   0.101E-01    0.934E-02
DAV:  10    -0.136436093142E+04   -0.16672E-03   -0.21564E-03  2312   0.765E-02    0.992E-02
DAV:  11    -0.136436076475E+04    0.16667E-03   -0.11415E-03  2512   0.679E-02    0.322E-02
DAV:  12    -0.136436079979E+04   -0.35042E-04   -0.58789E-04  2528   0.445E-02    0.363E-02
DAV:  13    -0.136436078335E+04    0.16437E-04   -0.13250E-04  2536   0.238E-02    0.141E-02
DAV:  14    -0.136436078503E+04   -0.16743E-05   -0.40593E-05  2344   0.118E-02    0.526E-03
DAV:  15    -0.136436078561E+04   -0.58458E-06   -0.50920E-06  1216   0.627E-03
   4 F= -.13643608E+04 E0= -.13643608E+04  d E =-.255034E+01
 BRION: g(F)=  0.116E+01 g(S)=  0.000E+00 retain N=  3 mean eig= 1.40
 eig:   0.807  1.694  1.694
 bond charge predicted
       N       E                     dE             d eps       ncg     rms          rms(c)
DAV:   1    -0.136503536109E+04   -0.67458E+00   -0.16822E+02  1360   0.186E+01    0.234E+00
DAV:   2    -0.136584068730E+04   -0.80533E+00   -0.85695E+00  2312   0.702E+00    0.123E+00
DAV:   3    -0.136588064253E+04   -0.39955E-01   -0.66843E-01  2592   0.141E+00    0.100E+00
DAV:   4    -0.136586731432E+04    0.13328E-01   -0.85766E-02  2600   0.659E-01    0.637E-01
DAV:   5    -0.136585981536E+04    0.74990E-02   -0.38068E-02  2384   0.395E-01    0.275E-01
DAV:   6    -0.136586055411E+04   -0.73875E-03   -0.21169E-02  2392   0.290E-01    0.225E-01
DAV:   7    -0.136586036515E+04    0.18896E-03   -0.12197E-02  2328   0.207E-01    0.160E-01
DAV:   8    -0.136586037293E+04   -0.77807E-05   -0.53533E-03  2576   0.130E-01    0.102E-01
DAV:   9    -0.136586030232E+04    0.70611E-04   -0.10571E-03  2584   0.693E-02    0.714E-02
DAV:  10    -0.136586030439E+04   -0.20728E-05   -0.71259E-04  2600   0.451E-02    0.471E-02
DAV:  11    -0.136586029782E+04    0.65699E-05   -0.31905E-04  2520   0.355E-02    0.251E-02
DAV:  12    -0.136586029475E+04    0.30723E-05   -0.10838E-04  2408   0.235E-02    0.209E-02
DAV:  13    -0.136586029249E+04    0.22582E-05   -0.70320E-05  2264   0.143E-02    0.104E-02
DAV:  14    -0.136586029278E+04   -0.28996E-06   -0.23876E-05  2000   0.868E-03    0.583E-03
DAV:  15    -0.136586029258E+04    0.19647E-06   -0.13057E-06   992   0.498E-03
   5 F= -.13658603E+04 E0= -.13658603E+04  d E =-.149951E+01
 BRION: g(F)=  0.637E+00 g(S)=  0.000E+00 retain N=  4 mean eig= 1.88
 eig:   2.626  2.626  1.139  1.139
 bond charge predicted
       N       E                     dE             d eps       ncg     rms          rms(c)
DAV:   1    -0.136629482612E+04   -0.43453E+00   -0.88137E+01  1376   0.136E+01    0.164E+00
DAV:   2    -0.136674259103E+04   -0.44776E+00   -0.47740E+00  2296   0.520E+00    0.855E-01
DAV:   3    -0.136677064679E+04   -0.28056E-01   -0.40177E-01  2576   0.108E+00    0.719E-01
DAV:   4    -0.136676534611E+04    0.53007E-02   -0.44882E-02  2624   0.493E-01    0.493E-01
DAV:   5    -0.136676084407E+04    0.45020E-02   -0.21294E-02  2392   0.289E-01    0.220E-01
DAV:   6    -0.136676114378E+04   -0.29971E-03   -0.13196E-02  2344   0.230E-01    0.178E-01
DAV:   7    -0.136676108714E+04    0.56637E-04   -0.82628E-03  2384   0.171E-01    0.136E-01
DAV:   8    -0.136676104471E+04    0.42435E-04   -0.32101E-03  2592   0.106E-01    0.871E-02
DAV:   9    -0.136676098524E+04    0.59462E-04   -0.76549E-04  2560   0.555E-02    0.543E-02
DAV:  10    -0.136676099096E+04   -0.57123E-05   -0.35831E-04  2592   0.337E-02    0.331E-02
DAV:  11    -0.136676099659E+04   -0.56325E-05   -0.13039E-04  2464   0.239E-02    0.246E-02
DAV:  12    -0.136676098940E+04    0.71855E-05   -0.71153E-05  2376   0.188E-02    0.184E-02
DAV:  13    -0.136676098744E+04    0.19665E-05   -0.55982E-05  2296   0.132E-02    0.892E-03
DAV:  14    -0.136676098737E+04    0.64028E-07   -0.13742E-05  1776   0.709E-03    0.380E-03
DAV:  15    -0.136676098739E+04   -0.21959E-07   -0.16798E-06   992   0.435E-03
   6 F= -.13667610E+04 E0= -.13667610E+04  d E =-.900695E+00
 BRION: g(F)=  0.401E+00 g(S)=  0.000E+00 retain N=  5 mean eig= 2.65
 eig:   4.650  4.650  1.504  1.504  0.955
 bond charge predicted
       N       E                     dE             d eps       ncg     rms          rms(c)
DAV:   1    -0.136700242201E+04   -0.24143E+00   -0.11762E+02  1360   0.153E+01    0.184E+00
DAV:   2    -0.136760137101E+04   -0.59895E+00   -0.63160E+00  2296   0.598E+00    0.949E-01
DAV:   3    -0.136763547023E+04   -0.34099E-01   -0.50013E-01  2600   0.115E+00    0.770E-01
DAV:   4    -0.136762723094E+04    0.82393E-02   -0.55448E-02  2608   0.545E-01    0.501E-01
DAV:   5    -0.136762177878E+04    0.54522E-02   -0.23762E-02  2376   0.310E-01    0.209E-01
DAV:   6    -0.136762243326E+04   -0.65448E-03   -0.14494E-02  2424   0.228E-01    0.155E-01
DAV:   7    -0.136762237247E+04    0.60787E-04   -0.67189E-03  2432   0.158E-01    0.119E-01
DAV:   8    -0.136762237817E+04   -0.57019E-05   -0.29103E-03  2592   0.980E-02    0.738E-02
DAV:   9    -0.136762234232E+04    0.35847E-04   -0.58508E-04  2552   0.509E-02    0.525E-02
DAV:  10    -0.136762234322E+04   -0.89461E-06   -0.32553E-04  2568   0.320E-02    0.330E-02
DAV:  11    -0.136762234208E+04    0.11427E-05   -0.13807E-04  2432   0.235E-02    0.188E-02
DAV:  12    -0.136762233925E+04    0.28249E-05   -0.49987E-05  2328   0.163E-02    0.137E-02
DAV:  13    -0.136762233920E+04    0.45809E-07   -0.44013E-05  2264   0.112E-02    0.719E-03
DAV:  14    -0.136762233926E+04   -0.55545E-07   -0.87571E-06  1720   0.603E-03
   7 F= -.13676223E+04 E0= -.13676223E+04  d E =-.861352E+00
 BRION: g(F)=  0.248E+00 g(S)=  0.000E+00 retain N=  6 mean eig= 3.69
 eig:   7.480  7.480  2.355  2.355  1.223  1.223
 bond charge predicted
       N       E                     dE             d eps       ncg     rms          rms(c)
DAV:   1    -0.136772378054E+04   -0.10144E+00   -0.10112E+02  1376   0.142E+01    0.171E+00
DAV:   2    -0.136823444770E+04   -0.51067E+00   -0.53942E+00  2288   0.552E+00    0.852E-01
DAV:   3    -0.136826374866E+04   -0.29301E-01   -0.42621E-01  2584   0.107E+00    0.681E-01
DAV:   4    -0.136825639792E+04    0.73507E-02   -0.46250E-02  2560   0.497E-01    0.433E-01
DAV:   5    -0.136825226734E+04    0.41306E-02   -0.21988E-02  2336   0.290E-01    0.165E-01
DAV:   6    -0.136825306658E+04   -0.79924E-03   -0.10699E-02  2504   0.192E-01    0.135E-01
DAV:   7    -0.136825299618E+04    0.70395E-04   -0.40229E-03  2520   0.122E-01    0.904E-02
DAV:   8    -0.136825300834E+04   -0.12155E-04   -0.16240E-03  2608   0.757E-02    0.536E-02
DAV:   9    -0.136825299513E+04    0.13206E-04   -0.27506E-04  2536   0.374E-02    0.414E-02
DAV:  10    -0.136825299541E+04   -0.27564E-06   -0.20238E-04  2544   0.251E-02    0.222E-02
DAV:  11    -0.136825299496E+04    0.44848E-06   -0.71190E-05  2424   0.176E-02    0.974E-03
DAV:  12    -0.136825299607E+04   -0.11172E-05   -0.22661E-05  2200   0.108E-02    0.847E-03
DAV:  13    -0.136825299586E+04    0.21867E-06   -0.11418E-05  1704   0.671E-03    0.478E-03
DAV:  14    -0.136825299566E+04    0.19583E-06   -0.19557E-06   992   0.532E-03
   8 F= -.13682530E+04 E0= -.13682530E+04  d E =-.630656E+00
 BRION: g(F)=  0.167E+00 g(S)=  0.000E+00 retain N=  3 mean eig= 5.02
 eig:   2.066  6.495  6.495
 bond charge predicted
       N       E                     dE             d eps       ncg     rms          rms(c)
DAV:   1    -0.136835491243E+04   -0.10192E+00   -0.54399E+01  1376   0.105E+01    0.126E+00
DAV:   2    -0.136863380921E+04   -0.27890E+00   -0.29606E+00  2296   0.409E+00    0.626E-01
DAV:   3    -0.136865060243E+04   -0.16793E-01   -0.23850E-01  2576   0.809E-01    0.497E-01
DAV:   4    -0.136864683441E+04    0.37680E-02   -0.24673E-02  2576   0.367E-01    0.326E-01
DAV:   5    -0.136864442544E+04    0.24090E-02   -0.12867E-02  2320   0.218E-01    0.121E-01
DAV:   6    -0.136864486825E+04   -0.44281E-03   -0.61910E-03  2544   0.147E-01    0.105E-01
DAV:   7    -0.136864484402E+04    0.24235E-04   -0.23465E-03  2544   0.911E-02    0.677E-02
DAV:   8    -0.136864483573E+04    0.82853E-05   -0.74420E-04  2616   0.544E-02    0.375E-02
DAV:   9    -0.136864483384E+04    0.18945E-05   -0.13997E-04  2504   0.265E-02    0.292E-02
DAV:  10    -0.136864483625E+04   -0.24111E-05   -0.99391E-05  2376   0.179E-02    0.161E-02
DAV:  11    -0.136864483544E+04    0.80417E-06   -0.34332E-05  2440   0.131E-02    0.700E-03
DAV:  12    -0.136864483638E+04   -0.93895E-06   -0.14320E-05  1968   0.805E-03    0.669E-03
DAV:  13    -0.136864483576E+04    0.61801E-06   -0.19057E-06  1024   0.513E-03
   9 F= -.13686448E+04 E0= -.13686448E+04  d E =-.391840E+00
 BRION: g(F)=  0.131E+00 g(S)=  0.000E+00 retain N=  3 mean eig= 6.20
 eig:   7.999  7.999  2.596
 bond charge predicted
       N       E                     dE             d eps       ncg     rms          rms(c)
DAV:   1    -0.136872737754E+04   -0.82541E-01   -0.37387E+01  1376   0.881E+00    0.104E+00
DAV:   2    -0.136892050168E+04   -0.19312E+00   -0.20574E+00  2312   0.347E+00    0.518E-01
DAV:   3    -0.136893227718E+04   -0.11776E-01   -0.16530E-01  2576   0.676E-01    0.418E-01
DAV:   4    -0.136892990011E+04    0.23771E-02   -0.15791E-02  2584   0.303E-01    0.294E-01
DAV:   5    -0.136892763560E+04    0.22645E-02   -0.10046E-02  2256   0.199E-01    0.109E-01
DAV:   6    -0.136892798340E+04   -0.34780E-03   -0.57398E-03  2512   0.144E-01    0.111E-01
DAV:   7    -0.136892793492E+04    0.48488E-04   -0.22937E-03  2512   0.879E-02    0.713E-02
DAV:   8    -0.136892790605E+04    0.28871E-04   -0.74697E-04  2584   0.539E-02    0.346E-02
DAV:   9    -0.136892790279E+04    0.32594E-05   -0.12867E-04  2376   0.251E-02    0.252E-02
DAV:  10    -0.136892790488E+04   -0.20969E-05   -0.68470E-05  2352   0.159E-02    0.128E-02
DAV:  11    -0.136892790464E+04    0.24569E-06   -0.19226E-05  2216   0.109E-02    0.612E-03
DAV:  12    -0.136892790581E+04   -0.11771E-05   -0.15027E-05  1928   0.727E-03    0.712E-03
DAV:  13    -0.136892790495E+04    0.86948E-06   -0.16951E-06  1008   0.519E-03
  10 F= -.13689279E+04 E0= -.13689279E+04  d E =-.283069E+00
 BRION: g(F)=  0.107E+00 g(S)=  0.000E+00 retain N=  2 mean eig= 3.84
 eig:   3.836  3.836
 bond charge predicted
       N       E                     dE             d eps       ncg     rms          rms(c)
DAV:   1    -0.136900243091E+04   -0.74525E-01   -0.30792E+01  1376   0.795E+00    0.936E-01
DAV:   2    -0.136916000242E+04   -0.15757E+00   -0.16728E+00  2288   0.311E+00    0.465E-01
DAV:   3    -0.136916943865E+04   -0.94362E-02   -0.13317E-01  2568   0.615E-01    0.373E-01
DAV:   4    -0.136916743769E+04    0.20010E-02   -0.12736E-02  2576   0.268E-01    0.261E-01
DAV:   5    -0.136916549734E+04    0.19403E-02   -0.79455E-03  2272   0.182E-01    0.923E-02
DAV:   6    -0.136916580394E+04   -0.30660E-03   -0.46630E-03  2504   0.128E-01    0.927E-02
DAV:   7    -0.136916577890E+04    0.25040E-04   -0.13943E-03  2552   0.713E-02    0.620E-02
DAV:   8    -0.136916575371E+04    0.25195E-04   -0.49504E-04  2576   0.437E-02    0.300E-02
DAV:   9    -0.136916575116E+04    0.25462E-05   -0.94349E-05  2304   0.213E-02    0.211E-02
DAV:  10    -0.136916575235E+04   -0.11861E-05   -0.32445E-05  2424   0.119E-02    0.995E-03
DAV:  11    -0.136916575258E+04   -0.23612E-06   -0.11106E-05  1904   0.759E-03    0.476E-03
DAV:  12    -0.136916575280E+04   -0.21856E-06   -0.36359E-06  1136   0.535E-03
  11 F= -.13691658E+04 E0= -.13691658E+04  d E =-.237848E+00
 BRION: g(F)=  0.906E-01 g(S)=  0.000E+00 retain N=  3 mean eig= 5.26
 eig:   6.909  6.909  1.968
 bond charge predicted
       N       E                     dE             d eps       ncg     rms          rms(c)
DAV:   1    -0.136922367966E+04   -0.57927E-01   -0.27258E+01  1360   0.753E+00    0.896E-01
DAV:   2    -0.136936450689E+04   -0.14083E+00   -0.15031E+00  2304   0.297E+00    0.446E-01
DAV:   3    -0.136937326173E+04   -0.87548E-02   -0.12163E-01  2576   0.586E-01    0.361E-01
DAV:   4    -0.136937163240E+04    0.16293E-02   -0.11333E-02  2592   0.258E-01    0.261E-01
DAV:   5    -0.136936988030E+04    0.17521E-02   -0.74935E-03  2288   0.175E-01    0.996E-02
DAV:   6    -0.136937011523E+04   -0.23492E-03   -0.43295E-03  2472   0.125E-01    0.990E-02
DAV:   7    -0.136937007064E+04    0.44587E-04   -0.16668E-03  2488   0.769E-02    0.635E-02
DAV:   8    -0.136937004810E+04    0.22544E-04   -0.61968E-04  2600   0.485E-02    0.306E-02
DAV:   9    -0.136937004596E+04    0.21363E-05   -0.10554E-04  2312   0.227E-02    0.214E-02
DAV:  10    -0.136937004737E+04   -0.14120E-05   -0.45735E-05  2368   0.134E-02    0.961E-03
DAV:  11    -0.136937004752E+04   -0.14466E-06   -0.82581E-06  1696   0.827E-03
  12 F= -.13693700E+04 E0= -.13693700E+04  d E =-.204295E+00
 BRION: g(F)=  0.787E-01 g(S)=  0.000E+00 retain N=  3 mean eig= 5.31
 eig:   7.009  7.009  1.923
 bond charge predicted
       N       E                     dE             d eps       ncg     rms          rms(c)
DAV:   1    -0.136943166656E+04   -0.61619E-01   -0.21036E+01  1368   0.658E+00    0.754E-01
DAV:   2    -0.136953908863E+04   -0.10742E+00   -0.11373E+00  2304   0.261E+00    0.379E-01
DAV:   3    -0.136954543998E+04   -0.63513E-02   -0.89040E-02  2568   0.498E-01    0.302E-01
DAV:   4    -0.136954423127E+04    0.12087E-02   -0.81728E-03  2600   0.216E-01    0.223E-01
DAV:   5    -0.136954267999E+04    0.15513E-02   -0.48303E-03  2288   0.153E-01    0.880E-02
DAV:   6    -0.136954281735E+04   -0.13735E-03   -0.38721E-03  2392   0.117E-01    0.758E-02
DAV:   7    -0.136954282149E+04   -0.41407E-05   -0.12358E-03  2480   0.661E-02    0.580E-02
DAV:   8    -0.136954280672E+04    0.14772E-04   -0.42881E-04  2552   0.399E-02    0.292E-02
DAV:   9    -0.136954279561E+04    0.11106E-04   -0.12818E-04  2312   0.229E-02    0.170E-02
DAV:  10    -0.136954279846E+04   -0.28469E-05   -0.37038E-05  2384   0.129E-02    0.120E-02
DAV:  11    -0.136954279695E+04    0.15108E-05   -0.11160E-05  1672   0.770E-03    0.520E-03
DAV:  12    -0.136954279726E+04   -0.31057E-06   -0.68143E-06  1568   0.643E-03
  13 F= -.13695428E+04 E0= -.13695428E+04  d E =-.172750E+00
 BRION: g(F)=  0.703E-01 g(S)=  0.000E+00 retain N=  2 mean eig= 4.21
 eig:   4.208  4.208
 bond charge predicted
       N       E                     dE             d eps       ncg     rms          rms(c)
DAV:   1    -0.136960988061E+04   -0.67084E-01   -0.14293E+01  1368   0.545E+00    0.626E-01
DAV:   2    -0.136968374193E+04   -0.73861E-01   -0.78417E-01  2296   0.219E+00    0.317E-01
DAV:   3    -0.136968807161E+04   -0.43297E-02   -0.60724E-02  2592   0.421E-01    0.254E-01
DAV:   4    -0.136968725797E+04    0.81365E-03   -0.55429E-03  2608   0.180E-01    0.187E-01
DAV:   5    -0.136968627870E+04    0.97927E-03   -0.33214E-03  2304   0.125E-01    0.765E-02
DAV:   6    -0.136968636702E+04   -0.88321E-04   -0.25556E-03  2384   0.959E-02    0.668E-02
DAV:   7    -0.136968636250E+04    0.45209E-05   -0.91447E-04  2488   0.573E-02    0.496E-02
DAV:   8    -0.136968635027E+04    0.12231E-04   -0.34451E-04  2552   0.358E-02    0.245E-02
DAV:   9    -0.136968634488E+04    0.53894E-05   -0.85458E-05  2264   0.190E-02    0.150E-02
DAV:  10    -0.136968634664E+04   -0.17655E-05   -0.28396E-05  2416   0.108E-02    0.949E-03
DAV:  11    -0.136968634568E+04    0.96028E-06   -0.51625E-06  1312   0.673E-03
  14 F= -.13696863E+04 E0= -.13696863E+04  d E =-.143548E+00
 BRION: g(F)=  0.653E-01 g(S)=  0.000E+00 retain N=  3 mean eig= 5.79
 eig:   7.630  7.630  2.109
 bond charge predicted
       N       E                     dE             d eps       ncg     rms          rms(c)
DAV:   1    -0.136975181281E+04   -0.65466E-01   -0.15679E+01  1368   0.569E+00    0.649E-01
DAV:   2    -0.136983336213E+04   -0.81549E-01   -0.86257E-01  2304   0.231E+00    0.329E-01
DAV:   3    -0.136983826614E+04   -0.49040E-02   -0.67397E-02  2576   0.431E-01    0.263E-01
DAV:   4    -0.136983743116E+04    0.83498E-03   -0.59753E-03  2592   0.186E-01    0.198E-01
DAV:   5    -0.136983629991E+04    0.11313E-02   -0.33989E-03  2296   0.130E-01    0.841E-02
DAV:   6    -0.136983636689E+04   -0.66977E-04   -0.30564E-03  2376   0.105E-01    0.671E-02
DAV:   7    -0.136983637719E+04   -0.10305E-04   -0.11315E-03  2472   0.628E-02    0.536E-02
DAV:   8    -0.136983636474E+04    0.12453E-04   -0.35930E-04  2536   0.374E-02    0.282E-02
DAV:   9    -0.136983635291E+04    0.11829E-04   -0.12444E-04  2368   0.220E-02    0.152E-02
DAV:  10    -0.136983635618E+04   -0.32690E-05   -0.41522E-05  2480   0.132E-02    0.120E-02
DAV:  11    -0.136983635454E+04    0.16362E-05   -0.11862E-05  1728   0.822E-03    0.553E-03
DAV:  12    -0.136983635476E+04   -0.21647E-06   -0.57659E-06  1376   0.639E-03
  15 F= -.13698364E+04 E0= -.13698364E+04  d E =-.150009E+00
 BRION: g(F)=  0.614E-01 g(S)=  0.000E+00 retain N=  3 mean eig= 5.86
 eig:   7.736  7.736  2.104
 bond charge predicted
       N       E                     dE             d eps       ncg     rms          rms(c)
DAV:   1    -0.136990610250E+04   -0.69748E-01   -0.13064E+01  1376   0.518E+00    0.580E-01
DAV:   2    -0.136997370693E+04   -0.67604E-01   -0.71440E-01  2304   0.211E+00    0.297E-01
DAV:   3    -0.136997776330E+04   -0.40564E-02   -0.55726E-02  2576   0.390E-01    0.237E-01
DAV:   4    -0.136997708116E+04    0.68214E-03   -0.49162E-03  2600   0.169E-01    0.177E-01
DAV:   5    -0.136997618101E+04    0.90014E-03   -0.25859E-03  2320   0.113E-01    0.774E-02
DAV:   6    -0.136997620372E+04   -0.22705E-04   -0.23702E-03  2336   0.929E-02    0.560E-02
DAV:   7    -0.136997622366E+04   -0.19938E-04   -0.96918E-04  2496   0.578E-02    0.472E-02
DAV:   8    -0.136997621504E+04    0.86126E-05   -0.27078E-04  2568   0.334E-02    0.268E-02
DAV:   9    -0.136997620459E+04    0.10450E-04   -0.11163E-04  2448   0.204E-02    0.137E-02
DAV:  10    -0.136997620777E+04   -0.31799E-05   -0.38150E-05  2504   0.127E-02    0.116E-02
DAV:  11    -0.136997620621E+04    0.15611E-05   -0.10919E-05  1592   0.803E-03    0.579E-03
DAV:  12    -0.136997620657E+04   -0.35633E-06   -0.86929E-06  1592   0.674E-03
  16 F= -.13699762E+04 E0= -.13699762E+04  d E =-.139852E+00
 BRION: g(F)=  0.584E-01 g(S)=  0.000E+00 retain N=  3 mean eig= 5.13
 eig:   6.724  6.724  1.956
 bond charge predicted
       N       E                     dE             d eps       ncg     rms          rms(c)
DAV:   1    -0.137004445035E+04   -0.68244E-01   -0.86544E+00  1384   0.423E+00    0.481E-01
DAV:   2    -0.137009019334E+04   -0.45743E-01   -0.48430E-01  2304   0.174E+00    0.245E-01
DAV:   3    -0.137009293456E+04   -0.27412E-02   -0.37632E-02  2568   0.326E-01    0.194E-01
DAV:   4    -0.137009246580E+04    0.46876E-03   -0.34737E-03  2592   0.141E-01    0.143E-01
DAV:   5    -0.137009194435E+04    0.52145E-03   -0.18822E-03  2336   0.924E-02    0.601E-02
DAV:   6    -0.137009198176E+04   -0.37406E-04   -0.13716E-03  2352   0.701E-02    0.482E-02
DAV:   7    -0.137009198599E+04   -0.42389E-05   -0.58450E-04  2496   0.452E-02    0.368E-02
DAV:   8    -0.137009197943E+04    0.65670E-05   -0.20302E-04  2536   0.281E-02    0.199E-02
DAV:   9    -0.137009197591E+04    0.35159E-05   -0.55144E-05  2312   0.149E-02    0.121E-02
DAV:  10    -0.137009197708E+04   -0.11662E-05   -0.22970E-05  2296   0.941E-03    0.821E-03
DAV:  11    -0.137009197627E+04    0.80359E-06   -0.41492E-06  1216   0.656E-03
  17 F= -.13700920E+04 E0= -.13700920E+04  d E =-.115770E+00
 BRION: g(F)=  0.564E-01 g(S)=  0.000E+00 retain N=  3 mean eig= 4.88
 eig:   6.418  6.418  1.807
 bond charge predicted
       N       E                     dE             d eps       ncg     rms          rms(c)
DAV:   1    -0.137016458598E+04   -0.72609E-01   -0.88953E+00  1376   0.424E+00    0.471E-01
DAV:   2    -0.137021081543E+04   -0.46229E-01   -0.48647E-01  2312   0.172E+00    0.242E-01
DAV:   3    -0.137021354029E+04   -0.27249E-02   -0.37323E-02  2576   0.319E-01    0.189E-01
DAV:   4    -0.137021304328E+04    0.49701E-03   -0.32438E-03  2592   0.137E-01    0.137E-01
DAV:   5    -0.137021252243E+04    0.52085E-03   -0.16613E-03  2336   0.881E-02    0.574E-02
DAV:   6    -0.137021255165E+04   -0.29218E-04   -0.13163E-03  2360   0.675E-02    0.422E-02
DAV:   7    -0.137021256243E+04   -0.10781E-04   -0.51576E-04  2504   0.425E-02    0.341E-02
DAV:   8    -0.137021255807E+04    0.43640E-05   -0.16271E-04  2552   0.251E-02    0.188E-02
DAV:   9    -0.137021255339E+04    0.46750E-05   -0.55593E-05  2352   0.147E-02    0.108E-02
DAV:  10    -0.137021255459E+04   -0.11922E-05   -0.19494E-05  2224   0.911E-03    0.819E-03
DAV:  11    -0.137021255360E+04    0.98313E-06   -0.40555E-06  1184   0.621E-03
  18 F= -.13702126E+04 E0= -.13702126E+04  d E =-.120577E+00
 BRION: g(F)=  0.550E-01 g(S)=  0.000E+00 retain N=  3 mean eig= 5.34
 eig:   7.110  7.110  1.810
 bond charge predicted
       N       E                     dE             d eps       ncg     rms          rms(c)
DAV:   1    -0.137028656921E+04   -0.74015E-01   -0.88596E+00  1384   0.423E+00    0.471E-01
DAV:   2    -0.137033269558E+04   -0.46126E-01   -0.48564E-01  2312   0.172E+00    0.241E-01
DAV:   3    -0.137033545733E+04   -0.27617E-02   -0.37564E-02  2576   0.320E-01    0.188E-01
DAV:   4    -0.137033498052E+04    0.47681E-03   -0.33214E-03  2584   0.138E-01    0.136E-01
DAV:   5    -0.137033449700E+04    0.48352E-03   -0.16618E-03  2320   0.863E-02    0.569E-02
DAV:   6    -0.137033452551E+04   -0.28510E-04   -0.11945E-03  2336   0.646E-02    0.415E-02
DAV:   7    -0.137033453479E+04   -0.92774E-05   -0.51038E-04  2520   0.419E-02    0.327E-02
DAV:   8    -0.137033453050E+04    0.42899E-05   -0.16495E-04  2552   0.257E-02    0.188E-02
DAV:   9    -0.137033452714E+04    0.33583E-05   -0.49570E-05  2288   0.139E-02    0.114E-02
DAV:  10    -0.137033452812E+04   -0.97314E-06   -0.22062E-05  2128   0.918E-03    0.770E-03
DAV:  11    -0.137033452738E+04    0.73237E-06   -0.44123E-06  1232   0.667E-03
  19 F= -.13703345E+04 E0= -.13703345E+04  d E =-.121974E+00
 BRION: g(F)=  0.538E-01 g(S)=  0.000E+00 retain N=  3 mean eig= 5.26
 eig:   6.929  6.929  1.929
 bond charge predicted
       N       E                     dE             d eps       ncg     rms          rms(c)
DAV:   1    -0.137041003686E+04   -0.75509E-01   -0.93397E+00  1376   0.433E+00    0.481E-01
DAV:   2    -0.137045843101E+04   -0.48394E-01   -0.50874E-01  2320   0.174E+00    0.246E-01
DAV:   3    -0.137046129657E+04   -0.28656E-02   -0.39210E-02  2576   0.324E-01    0.190E-01
DAV:   4    -0.137046076482E+04    0.53175E-03   -0.34676E-03  2576   0.140E-01    0.136E-01
DAV:   5    -0.137046028534E+04    0.47948E-03   -0.17100E-03  2328   0.865E-02    0.556E-02
DAV:   6    -0.137046031709E+04   -0.31750E-04   -0.11639E-03  2368   0.632E-02    0.405E-02
DAV:   7    -0.137046032689E+04   -0.98053E-05   -0.48861E-04  2496   0.418E-02    0.314E-02
DAV:   8    -0.137046032372E+04    0.31781E-05   -0.16426E-04  2536   0.253E-02    0.183E-02
DAV:   9    -0.137046032072E+04    0.29932E-05   -0.46167E-05  2368   0.138E-02    0.117E-02
DAV:  10    -0.137046032128E+04   -0.56166E-06   -0.22267E-05  2152   0.922E-03    0.727E-03
DAV:  11    -0.137046032062E+04    0.66175E-06   -0.34273E-06  1144   0.660E-03
  20 F= -.13704603E+04 E0= -.13704603E+04  d E =-.125793E+00
 BRION: g(F)=  0.526E-01 g(S)=  0.000E+00 retain N=  3 mean eig= 5.92
 eig:   7.792  7.792  2.184
