 running on  160 total cores
 distrk:  each k-point on  160 cores,    1 groups
 distr:  one band on   20 cores,    8 groups
 using from now: INCAR     
 vasp.5.4.4.18Apr17-6-g9f103f2a35 (build May 01 2020 14:22:42) gamma-only       
  
 POSCAR found type information on POSCAR  O  La Zr Li Al
 POSCAR found :  5 types and     192 ions
 scaLAPACK will be used
 LDA part: xc-table for Pade appr. of Perdew
 POSCAR, INCAR and KPOINTS ok, starting setup
 FFT: planning ...
 WAVECAR not read
 WARNING: random wavefunctions but no delay for mixing, default for NELMDL
 entering main loop
       N       E                     dE             d eps       ncg     rms          rms(c)
DAV:   1     0.254365185881E+05    0.25437E+05   -0.41957E+05  1584   0.253E+03
DAV:   2     0.948020054318E+04   -0.15956E+05   -0.14760E+05  1440   0.708E+02
DAV:   3     0.271147524297E+04   -0.67687E+04   -0.61555E+04  1496   0.358E+02
DAV:   4    -0.376312397178E+03   -0.30878E+04   -0.28884E+04  2040   0.222E+02
DAV:   5    -0.142076075136E+04   -0.10444E+04   -0.99962E+03  2536   0.140E+02    0.116E+02
DAV:   6    -0.131219517909E+04    0.10857E+03   -0.14942E+03  2448   0.660E+01    0.504E+01
DAV:   7    -0.133524986971E+04   -0.23055E+02   -0.40099E+02  2560   0.341E+01    0.252E+01
DAV:   8    -0.134687315034E+04   -0.11623E+02   -0.30696E+02  2504   0.290E+01    0.288E+01
DAV:   9    -0.133692040927E+04    0.99527E+01   -0.70198E+01  2440   0.160E+01    0.785E+00
DAV:  10    -0.133833306472E+04   -0.14127E+01   -0.16341E+01  2608   0.888E+00    0.870E+00
DAV:  11    -0.133839424037E+04   -0.61176E-01   -0.86252E+00  2624   0.486E+00    0.432E+00
DAV:  12    -0.133827979727E+04    0.11444E+00   -0.30130E+00  2568   0.390E+00    0.288E+00
DAV:  13    -0.133836481328E+04   -0.85016E-01   -0.91804E-01  2584   0.178E+00    0.214E+00
DAV:  14    -0.133834660079E+04    0.18212E-01   -0.34640E-01  2600   0.117E+00    0.131E+00
DAV:  15    -0.133835751946E+04   -0.10919E-01   -0.11326E-01  2568   0.638E-01    0.108E+00
DAV:  16    -0.133835583242E+04    0.16870E-02   -0.43733E-02  2624   0.403E-01    0.700E-01
DAV:  17    -0.133835355517E+04    0.22772E-02   -0.26216E-02  2552   0.307E-01    0.354E-01
DAV:  18    -0.133835392542E+04   -0.37024E-03   -0.53670E-03  2608   0.153E-01    0.209E-01
DAV:  19    -0.133835375796E+04    0.16746E-03   -0.31905E-03  2464   0.104E-01    0.136E-01
DAV:  20    -0.133835381232E+04   -0.54365E-04   -0.79624E-04  2592   0.561E-02    0.374E-02
DAV:  21    -0.133835382749E+04   -0.15169E-04   -0.23172E-04  2624   0.285E-02    0.396E-02
DAV:  22    -0.133835384431E+04   -0.16822E-04   -0.82782E-05  2472   0.182E-02    0.125E-02
DAV:  23    -0.133835384558E+04   -0.12684E-05   -0.33455E-05  2120   0.983E-03    0.860E-03
DAV:  24    -0.133835385022E+04   -0.46414E-05   -0.11238E-05  1344   0.843E-03    0.432E-03
DAV:  25    -0.133835384996E+04    0.26706E-06   -0.69903E-06  1192   0.551E-03
   1 F= -.13383538E+04 E0= -.13383538E+04  d E =-.133835E+04
 BRION: g(F)=  0.413E+02 g(S)=  0.000E+00
 bond charge predicted
       N       E                     dE             d eps       ncg     rms          rms(c)
DAV:   1    -0.132726097677E+04    0.11093E+02   -0.48679E+03  1632   0.107E+02    0.197E+01
DAV:   2    -0.135883402382E+04   -0.31573E+02   -0.37532E+02  2568   0.464E+01    0.104E+01
DAV:   3    -0.135821626767E+04    0.61776E+00   -0.24338E+01  2608   0.130E+01    0.749E+00
DAV:   4    -0.135678271526E+04    0.14336E+01   -0.62481E+00  2456   0.555E+00    0.377E+00
DAV:   5    -0.135638298071E+04    0.39973E+00   -0.24443E+00  2400   0.400E+00    0.249E+00
DAV:   6    -0.135637158290E+04    0.11398E-01   -0.28454E+00  2456   0.316E+00    0.147E+00
DAV:   7    -0.135637955805E+04   -0.79752E-02   -0.55774E-01  2512   0.162E+00    0.120E+00
DAV:   8    -0.135637639987E+04    0.31582E-02   -0.28851E-01  2600   0.842E-01    0.536E-01
DAV:   9    -0.135637541788E+04    0.98200E-03   -0.30754E-02  2624   0.477E-01    0.403E-01
DAV:  10    -0.135637342150E+04    0.19964E-02   -0.28720E-02  2528   0.363E-01    0.169E-01
DAV:  11    -0.135637460860E+04   -0.11871E-02   -0.14257E-02  2536   0.239E-01    0.171E-01
DAV:  12    -0.135637447351E+04    0.13509E-03   -0.26496E-03  2600   0.966E-02    0.835E-02
DAV:  13    -0.135637443833E+04    0.35182E-04   -0.16241E-03  2608   0.762E-02    0.271E-02
DAV:  14    -0.135637446435E+04   -0.26019E-04   -0.39213E-04  2592   0.433E-02    0.228E-02
DAV:  15    -0.135637447140E+04   -0.70465E-05   -0.69506E-05  2624   0.186E-02    0.200E-02
DAV:  16    -0.135637446674E+04    0.46527E-05   -0.28978E-05  2568   0.108E-02    0.110E-02
DAV:  17    -0.135637446775E+04   -0.10113E-05   -0.23260E-05  2400   0.916E-03    0.445E-03
DAV:  18    -0.135637446733E+04    0.41876E-06   -0.12647E-06   992   0.513E-03
   2 F= -.13563745E+04 E0= -.13563745E+04  d E =-.180206E+02
 BRION: g(F)=  0.176E+02 g(S)=  0.000E+00 retain N=  1 mean eig= 0.67
 eig:   0.668
 bond charge predicted
       N       E                     dE             d eps       ncg     rms          rms(c)
DAV:   1    -0.134994098158E+04    0.64335E+01   -0.16697E+03  1384   0.566E+01    0.110E+01
DAV:   2    -0.136120767031E+04   -0.11267E+02   -0.13382E+02  2456   0.254E+01    0.102E+01
DAV:   3    -0.136153299328E+04   -0.32532E+00   -0.97525E+00  2544   0.690E+00    0.812E+00
DAV:   4    -0.136112835160E+04    0.40464E+00   -0.25806E+00  2480   0.340E+00    0.473E+00
DAV:   5    -0.136095735799E+04    0.17099E+00   -0.11842E+00  2176   0.296E+00    0.265E+00
DAV:   6    -0.136091365931E+04    0.43699E-01   -0.16252E+00  2464   0.228E+00    0.128E+00
DAV:   7    -0.136092878934E+04   -0.15130E-01   -0.32873E-01  2512   0.114E+00    0.987E-01
DAV:   8    -0.136092360275E+04    0.51866E-02   -0.56928E-02  2624   0.486E-01    0.697E-01
DAV:   9    -0.136092277848E+04    0.82427E-03   -0.43960E-02  2552   0.367E-01    0.549E-01
DAV:  10    -0.136091902779E+04    0.37507E-02   -0.16451E-02  2408   0.284E-01    0.330E-01
DAV:  11    -0.136091889163E+04    0.13616E-03   -0.12353E-02  2512   0.200E-01    0.135E-01
DAV:  12    -0.136091882122E+04    0.70413E-04   -0.16519E-03  2520   0.896E-02    0.681E-02
DAV:  13    -0.136091883292E+04   -0.11699E-04   -0.31877E-04  2480   0.383E-02    0.365E-02
DAV:  14    -0.136091883318E+04   -0.26023E-06   -0.21771E-04  2616   0.273E-02    0.127E-02
DAV:  15    -0.136091883648E+04   -0.32999E-05   -0.46680E-05  2576   0.149E-02    0.103E-02
DAV:  16    -0.136091883672E+04   -0.24648E-06   -0.91148E-06  1656   0.737E-03
   3 F= -.13609188E+04 E0= -.13609188E+04  d E =-.454437E+01
 BRION: g(F)=  0.431E+01 g(S)=  0.000E+00 retain N=  2 mean eig= 0.63
 eig:   0.403  0.857
 bond charge predicted
       N       E                     dE             d eps       ncg     rms          rms(c)
DAV:   1    -0.136201526684E+04   -0.10964E+01   -0.33198E+02  1376   0.263E+01    0.511E+00
DAV:   2    -0.136359949255E+04   -0.15842E+01   -0.18185E+01  2304   0.997E+00    0.218E+00
DAV:   3    -0.136365458794E+04   -0.55095E-01   -0.15859E+00  2592   0.237E+00    0.188E+00
DAV:   4    -0.136360560543E+04    0.48983E-01   -0.33611E-01  2600   0.124E+00    0.999E-01
DAV:   5    -0.136359207255E+04    0.13533E-01   -0.13078E-01  2272   0.767E-01    0.589E-01
DAV:   6    -0.136359175057E+04    0.32198E-03   -0.71067E-02  2576   0.534E-01    0.432E-01
DAV:   7    -0.136359097867E+04    0.77190E-03   -0.38094E-02  2400   0.343E-01    0.272E-01
DAV:   8    -0.136359077292E+04    0.20575E-03   -0.99658E-03  2592   0.187E-01    0.142E-01
DAV:   9    -0.136359064672E+04    0.12620E-03   -0.22311E-03  2600   0.104E-01    0.910E-02
DAV:  10    -0.136359077673E+04   -0.13001E-03   -0.20481E-03  2240   0.762E-02    0.963E-02
DAV:  11    -0.136359065709E+04    0.11964E-03   -0.99472E-04  2488   0.609E-02    0.348E-02
DAV:  12    -0.136359067801E+04   -0.20919E-04   -0.44902E-04  2512   0.384E-02    0.326E-02
DAV:  13    -0.136359066879E+04    0.92231E-05   -0.12394E-04  2544   0.219E-02    0.141E-02
DAV:  14    -0.136359067058E+04   -0.17900E-05   -0.24092E-05  2320   0.103E-02    0.788E-03
DAV:  15    -0.136359067069E+04   -0.11636E-06   -0.82458E-06  1640   0.646E-03
   4 F= -.13635907E+04 E0= -.13635907E+04  d E =-.267183E+01
 BRION: g(F)=  0.120E+01 g(S)=  0.000E+00 retain N=  3 mean eig= 1.34
 eig:   0.753  1.631  1.631
 bond charge predicted
       N       E                     dE             d eps       ncg     rms          rms(c)
DAV:   1    -0.136422323267E+04   -0.63256E+00   -0.15366E+02  1368   0.178E+01    0.248E+00
DAV:   2    -0.136497436301E+04   -0.75113E+00   -0.79796E+00  2296   0.676E+00    0.122E+00
DAV:   3    -0.136501079998E+04   -0.36437E-01   -0.61641E-01  2576   0.133E+00    0.102E+00
DAV:   4    -0.136499576746E+04    0.15033E-01   -0.89245E-02  2608   0.646E-01    0.606E-01
DAV:   5    -0.136498925439E+04    0.65131E-02   -0.44929E-02  2304   0.439E-01    0.276E-01
DAV:   6    -0.136499056178E+04   -0.13074E-02   -0.22022E-02  2568   0.294E-01    0.267E-01
DAV:   7    -0.136498994099E+04    0.62079E-03   -0.88474E-03  2480   0.177E-01    0.166E-01
DAV:   8    -0.136498977877E+04    0.16222E-03   -0.35399E-03  2560   0.110E-01    0.756E-02
DAV:   9    -0.136498975257E+04    0.26198E-04   -0.50342E-04  2448   0.510E-02    0.515E-02
DAV:  10    -0.136498977157E+04   -0.18997E-04   -0.36671E-04  2272   0.334E-02    0.386E-02
DAV:  11    -0.136498975935E+04    0.12224E-04   -0.13226E-04  2520   0.237E-02    0.183E-02
DAV:  12    -0.136498976128E+04   -0.19276E-05   -0.63991E-05  2360   0.153E-02    0.166E-02
DAV:  13    -0.136498975908E+04    0.21924E-05   -0.28971E-05  2088   0.105E-02    0.711E-03
DAV:  14    -0.136498975912E+04   -0.32698E-07   -0.52448E-06  1280   0.616E-03
   5 F= -.13649898E+04 E0= -.13649898E+04  d E =-.139909E+01
 BRION: g(F)=  0.687E+00 g(S)=  0.000E+00 retain N=  4 mean eig= 1.59
 eig:   2.114  2.114  1.067  1.067
 bond charge predicted
       N       E                     dE             d eps       ncg     rms          rms(c)
DAV:   1    -0.136542173650E+04   -0.43198E+00   -0.86151E+01  1384   0.135E+01    0.166E+00
DAV:   2    -0.136586864928E+04   -0.44691E+00   -0.47827E+00  2312   0.531E+00    0.840E-01
DAV:   3    -0.136589626264E+04   -0.27613E-01   -0.39763E-01  2592   0.106E+00    0.708E-01
DAV:   4    -0.136589034191E+04    0.59207E-02   -0.42058E-02  2608   0.487E-01    0.494E-01
DAV:   5    -0.136588487796E+04    0.54639E-02   -0.24983E-02  2296   0.316E-01    0.213E-01
DAV:   6    -0.136588553217E+04   -0.65421E-03   -0.16358E-02  2376   0.264E-01    0.215E-01
DAV:   7    -0.136588529142E+04    0.24075E-03   -0.10635E-02  2360   0.185E-01    0.148E-01
DAV:   8    -0.136588522333E+04    0.68086E-04   -0.37162E-03  2576   0.115E-01    0.766E-02
DAV:   9    -0.136588518011E+04    0.43220E-04   -0.63442E-04  2472   0.560E-02    0.559E-02
DAV:  10    -0.136588517941E+04    0.70228E-06   -0.39919E-04  2408   0.339E-02    0.303E-02
DAV:  11    -0.136588518014E+04   -0.72879E-06   -0.13707E-04  2440   0.258E-02    0.178E-02
DAV:  12    -0.136588518028E+04   -0.14523E-06   -0.57023E-05  2352   0.175E-02    0.171E-02
DAV:  13    -0.136588517757E+04    0.27133E-05   -0.44340E-05  2264   0.121E-02    0.900E-03
DAV:  14    -0.136588517737E+04    0.19842E-06   -0.15994E-05  1760   0.762E-03    0.367E-03
DAV:  15    -0.136588517758E+04   -0.21268E-06   -0.18495E-06  1024   0.462E-03
   6 F= -.13658852E+04 E0= -.13658852E+04  d E =-.895418E+00
 BRION: g(F)=  0.461E+00 g(S)=  0.000E+00 retain N=  5 mean eig= 1.98
 eig:   2.828  2.828  1.700  1.700  0.855
 bond charge predicted
       N       E                     dE             d eps       ncg     rms          rms(c)
DAV:   1    -0.136618948189E+04   -0.30430E+00   -0.11483E+02  1384   0.153E+01    0.181E+00
DAV:   2    -0.136678654202E+04   -0.59706E+00   -0.63000E+00  2304   0.603E+00    0.925E-01
DAV:   3    -0.136682270887E+04   -0.36167E-01   -0.50323E-01  2592   0.117E+00    0.765E-01
DAV:   4    -0.136681559748E+04    0.71114E-02   -0.49945E-02  2624   0.523E-01    0.530E-01
DAV:   5    -0.136680887981E+04    0.67177E-02   -0.26636E-02  2320   0.326E-01    0.211E-01
DAV:   6    -0.136680982145E+04   -0.94164E-03   -0.17996E-02  2432   0.252E-01    0.191E-01
DAV:   7    -0.136680963088E+04    0.19056E-03   -0.81961E-03  2408   0.166E-01    0.137E-01
DAV:   8    -0.136680957108E+04    0.59800E-04   -0.31331E-03  2592   0.107E-01    0.727E-02
DAV:   9    -0.136680953188E+04    0.39200E-04   -0.61597E-04  2432   0.520E-02    0.512E-02
DAV:  10    -0.136680953794E+04   -0.60522E-05   -0.30983E-04  2472   0.313E-02    0.291E-02
DAV:  11    -0.136680954105E+04   -0.31109E-05   -0.11897E-04  2488   0.234E-02    0.198E-02
DAV:  12    -0.136680953898E+04    0.20667E-05   -0.55372E-05  2352   0.168E-02    0.175E-02
DAV:  13    -0.136680953634E+04    0.26368E-05   -0.45504E-05  2224   0.118E-02    0.822E-03
DAV:  14    -0.136680953636E+04   -0.16182E-07   -0.12788E-05  1776   0.686E-03    0.335E-03
DAV:  15    -0.136680953657E+04   -0.21190E-06   -0.13985E-06   992   0.418E-03
   7 F= -.13668095E+04 E0= -.13668095E+04  d E =-.924359E+00
 BRION: g(F)=  0.311E+00 g(S)=  0.000E+00 retain N=  6 mean eig= 2.73
 eig:   4.987  4.987  2.097  2.097  1.104  1.104
 bond charge predicted
       N       E                     dE             d eps       ncg     rms          rms(c)
DAV:   1    -0.136705949285E+04   -0.24996E+00   -0.82481E+01  1384   0.129E+01    0.153E+00
DAV:   2    -0.136747941632E+04   -0.41992E+00   -0.44242E+00  2304   0.509E+00    0.773E-01
DAV:   3    -0.136750326832E+04   -0.23852E-01   -0.34297E-01  2592   0.948E-01    0.618E-01
DAV:   4    -0.136749740850E+04    0.58598E-02   -0.34508E-02  2600   0.431E-01    0.407E-01
DAV:   5    -0.136749322782E+04    0.41807E-02   -0.18260E-02  2304   0.281E-01    0.148E-01
DAV:   6    -0.136749402125E+04   -0.79343E-03   -0.10786E-02  2496   0.195E-01    0.143E-01
DAV:   7    -0.136749392816E+04    0.93088E-04   -0.35888E-03  2504   0.114E-01    0.980E-02
DAV:   8    -0.136749388447E+04    0.43694E-04   -0.14289E-03  2600   0.710E-02    0.479E-02
DAV:   9    -0.136749387276E+04    0.11710E-04   -0.26521E-04  2368   0.359E-02    0.352E-02
DAV:  10    -0.136749387660E+04   -0.38395E-05   -0.13982E-04  2368   0.230E-02    0.196E-02
DAV:  11    -0.136749387550E+04    0.10933E-05   -0.46394E-05  2400   0.155E-02    0.960E-03
DAV:  12    -0.136749387789E+04   -0.23883E-05   -0.31943E-05  2296   0.106E-02    0.107E-02
DAV:  13    -0.136749387640E+04    0.14937E-05   -0.88865E-06  1584   0.674E-03    0.520E-03
DAV:  14    -0.136749387666E+04   -0.25670E-06   -0.73701E-06  1568   0.613E-03
   8 F= -.13674939E+04 E0= -.13674939E+04  d E =-.684340E+00
 BRION: g(F)=  0.237E+00 g(S)=  0.000E+00 retain N=  4 mean eig= 4.29
 eig:   6.597  6.597  1.983  1.983
 bond charge predicted
       N       E                     dE             d eps       ncg     rms          rms(c)
DAV:   1    -0.136771217431E+04   -0.21830E+00   -0.60739E+01  1376   0.110E+01    0.134E+00
DAV:   2    -0.136802453584E+04   -0.31236E+00   -0.33219E+00  2304   0.438E+00    0.667E-01
DAV:   3    -0.136804383195E+04   -0.19296E-01   -0.27005E-01  2592   0.847E-01    0.544E-01
DAV:   4    -0.136803978023E+04    0.40517E-02   -0.26197E-02  2608   0.382E-01    0.361E-01
DAV:   5    -0.136803693714E+04    0.28431E-02   -0.14552E-02  2328   0.233E-01    0.138E-01
DAV:   6    -0.136803744670E+04   -0.50956E-03   -0.70896E-03  2496   0.159E-01    0.128E-01
DAV:   7    -0.136803735982E+04    0.86880E-04   -0.32235E-03  2496   0.106E-01    0.795E-02
DAV:   8    -0.136803734415E+04    0.15674E-04   -0.10706E-03  2576   0.645E-02    0.453E-02
DAV:   9    -0.136803733578E+04    0.83672E-05   -0.19736E-04  2480   0.308E-02    0.342E-02
DAV:  10    -0.136803733828E+04   -0.24946E-05   -0.13479E-04  2432   0.202E-02    0.183E-02
DAV:  11    -0.136803733762E+04    0.65831E-06   -0.44014E-05  2368   0.150E-02    0.904E-03
DAV:  12    -0.136803733848E+04   -0.86021E-06   -0.18833E-05  2160   0.961E-03    0.829E-03
DAV:  13    -0.136803733795E+04    0.52848E-06   -0.81039E-06  1536   0.621E-03
   9 F= -.13680373E+04 E0= -.13680373E+04  d E =-.543461E+00
 BRION: g(F)=  0.203E+00 g(S)=  0.000E+00 retain N=  3 mean eig= 4.57
 eig:   5.751  5.751  2.216
 bond charge predicted
       N       E                     dE             d eps       ncg     rms          rms(c)
DAV:   1    -0.136822690827E+04   -0.18957E+00   -0.47937E+01  1376   0.990E+00    0.116E+00
DAV:   2    -0.136847613029E+04   -0.24922E+00   -0.26409E+00  2304   0.394E+00    0.584E-01
DAV:   3    -0.136849074658E+04   -0.14616E-01   -0.20729E-01  2600   0.743E-01    0.464E-01
DAV:   4    -0.136848730601E+04    0.34406E-02   -0.19450E-02  2608   0.332E-01    0.314E-01
DAV:   5    -0.136848455162E+04    0.27544E-02   -0.10798E-02  2304   0.215E-01    0.110E-01
DAV:   6    -0.136848499635E+04   -0.44473E-03   -0.67223E-03  2472   0.151E-01    0.108E-01
DAV:   7    -0.136848496880E+04    0.27550E-04   -0.21496E-03  2472   0.877E-02    0.747E-02
DAV:   8    -0.136848494308E+04    0.25720E-04   -0.78049E-04  2600   0.527E-02    0.376E-02
DAV:   9    -0.136848493316E+04    0.99209E-05   -0.16195E-04  2328   0.279E-02    0.265E-02
DAV:  10    -0.136848493456E+04   -0.14053E-05   -0.67121E-05  2376   0.167E-02    0.141E-02
DAV:  11    -0.136848493455E+04    0.14319E-07   -0.26227E-05  2368   0.109E-02    0.652E-03
DAV:  12    -0.136848493539E+04   -0.84379E-06   -0.10620E-05  1792   0.720E-03    0.624E-03
DAV:  13    -0.136848493488E+04    0.51239E-06   -0.14112E-06   992   0.477E-03
  10 F= -.13684849E+04 E0= -.13684849E+04  d E =-.447597E+00
 BRION: g(F)=  0.177E+00 g(S)=  0.000E+00 retain N=  3 mean eig= 5.69
 eig:   7.540  7.540  1.992
 bond charge predicted
       N       E                     dE             d eps       ncg     rms          rms(c)
DAV:   1    -0.136866679451E+04   -0.18186E+00   -0.44340E+01  1384   0.948E+00    0.111E+00
DAV:   2    -0.136889608794E+04   -0.22929E+00   -0.24302E+00  2312   0.379E+00    0.554E-01
DAV:   3    -0.136891002701E+04   -0.13939E-01   -0.19305E-01  2592   0.711E-01    0.448E-01
DAV:   4    -0.136890726534E+04    0.27617E-02   -0.17311E-02  2608   0.314E-01    0.313E-01
DAV:   5    -0.136890469552E+04    0.25698E-02   -0.97864E-03  2288   0.200E-01    0.115E-01
DAV:   6    -0.136890504880E+04   -0.35328E-03   -0.59889E-03  2480   0.142E-01    0.107E-01
DAV:   7    -0.136890500855E+04    0.40241E-04   -0.21371E-03  2488   0.876E-02    0.717E-02
DAV:   8    -0.136890498490E+04    0.23655E-04   -0.82898E-04  2576   0.554E-02    0.371E-02
DAV:   9    -0.136890497852E+04    0.63758E-05   -0.15431E-04  2312   0.273E-02    0.274E-02
DAV:  10    -0.136890497967E+04   -0.11469E-05   -0.72675E-05  2392   0.164E-02    0.141E-02
DAV:  11    -0.136890497994E+04   -0.26637E-06   -0.23342E-05  2312   0.110E-02    0.668E-03
DAV:  12    -0.136890498070E+04   -0.76671E-06   -0.11568E-05  1776   0.715E-03    0.646E-03
DAV:  13    -0.136890498013E+04    0.57110E-06   -0.17709E-06   992   0.489E-03
  11 F= -.13689050E+04 E0= -.13689050E+04  d E =-.420045E+00
 BRION: g(F)=  0.158E+00 g(S)=  0.000E+00 retain N=  2 mean eig= 3.86
 eig:   3.861  3.861
 bond charge predicted
       N       E                     dE             d eps       ncg     rms          rms(c)
DAV:   1    -0.136907560865E+04   -0.17063E+00   -0.29956E+01  1384   0.780E+00    0.897E-01
DAV:   2    -0.136923256521E+04   -0.15696E+00   -0.16604E+00  2304   0.316E+00    0.450E-01
DAV:   3    -0.136924207723E+04   -0.95120E-02   -0.13105E-01  2568   0.592E-01    0.367E-01
DAV:   4    -0.136924041072E+04    0.16665E-02   -0.11925E-02  2624   0.257E-01    0.269E-01
DAV:   5    -0.136923832311E+04    0.20876E-02   -0.65058E-03  2304   0.165E-01    0.105E-01
DAV:   6    -0.136923846874E+04   -0.14563E-03   -0.47439E-03  2344   0.127E-01    0.877E-02
DAV:   7    -0.136923846887E+04   -0.13324E-06   -0.20916E-03  2432   0.826E-02    0.656E-02
DAV:   8    -0.136923844770E+04    0.21167E-04   -0.63951E-04  2552   0.508E-02    0.351E-02
DAV:   9    -0.136923843892E+04    0.87873E-05   -0.17312E-04  2360   0.263E-02    0.225E-02
DAV:  10    -0.136923844287E+04   -0.39530E-05   -0.60844E-05  2400   0.148E-02    0.146E-02
DAV:  11    -0.136923844237E+04    0.49971E-06   -0.24941E-05  2272   0.108E-02    0.896E-03
DAV:  12    -0.136923844217E+04    0.20185E-06   -0.12961E-05  1816   0.807E-03    0.777E-03
DAV:  13    -0.136923844175E+04    0.42272E-06   -0.74914E-06  1616   0.575E-03
  12 F= -.13692384E+04 E0= -.13692384E+04  d E =-.333462E+00
 BRION: g(F)=  0.147E+00 g(S)=  0.000E+00 retain N=  3 mean eig= 4.62
 eig:   5.957  5.957  1.955
 bond charge predicted
       N       E                     dE             d eps       ncg     rms          rms(c)
DAV:   1    -0.136939430045E+04   -0.15586E+00   -0.41224E+01  1384   0.919E+00    0.105E+00
DAV:   2    -0.136960965054E+04   -0.21535E+00   -0.22749E+00  2312   0.370E+00    0.527E-01
DAV:   3    -0.136962198323E+04   -0.12333E-01   -0.17399E-01  2584   0.694E-01    0.425E-01
DAV:   4    -0.136961949737E+04    0.24859E-02   -0.16028E-02  2624   0.300E-01    0.304E-01
DAV:   5    -0.136961677558E+04    0.27218E-02   -0.86089E-03  2272   0.193E-01    0.117E-01
DAV:   6    -0.136961701604E+04   -0.24045E-03   -0.62377E-03  2400   0.145E-01    0.988E-02
DAV:   7    -0.136961700754E+04    0.84969E-05   -0.22753E-03  2408   0.885E-02    0.730E-02
DAV:   8    -0.136961698566E+04    0.21879E-04   -0.84031E-04  2584   0.561E-02    0.380E-02
DAV:   9    -0.136961697571E+04    0.99528E-05   -0.19619E-04  2288   0.291E-02    0.257E-02
DAV:  10    -0.136961697929E+04   -0.35853E-05   -0.74633E-05  2392   0.167E-02    0.158E-02
DAV:  11    -0.136961697851E+04    0.78738E-06   -0.26652E-05  2368   0.114E-02    0.801E-03
DAV:  12    -0.136961697906E+04   -0.55863E-06   -0.13969E-05  1880   0.794E-03    0.743E-03
DAV:  13    -0.136961697836E+04    0.70923E-06   -0.37328E-06  1216   0.540E-03
  13 F= -.13696170E+04 E0= -.13696170E+04  d E =-.378537E+00
 BRION: g(F)=  0.133E+00 g(S)=  0.000E+00 retain N=  2 mean eig= 3.94
 eig:   3.942  3.942
 bond charge predicted
       N       E                     dE             d eps       ncg     rms          rms(c)
DAV:   1    -0.136975684655E+04   -0.13987E+00   -0.42613E+01  1384   0.927E+00    0.104E+00
DAV:   2    -0.136997625408E+04   -0.21941E+00   -0.23080E+00  2304   0.370E+00    0.526E-01
DAV:   3    -0.136998924397E+04   -0.12990E-01   -0.17971E-01  2560   0.693E-01    0.427E-01
DAV:   4    -0.136998707456E+04    0.21694E-02   -0.16364E-02  2624   0.296E-01    0.318E-01
DAV:   5    -0.136998391295E+04    0.31616E-02   -0.81744E-03  2304   0.192E-01    0.136E-01
DAV:   6    -0.136998394234E+04   -0.29383E-04   -0.74621E-03  2280   0.163E-01    0.951E-02
DAV:   7    -0.136998401055E+04   -0.68217E-04   -0.33810E-03  2432   0.105E-01    0.837E-02
DAV:   8    -0.136998397219E+04    0.38367E-04   -0.86684E-04  2576   0.605E-02    0.482E-02
DAV:   9    -0.136998394769E+04    0.24499E-04   -0.33785E-04  2472   0.347E-02    0.260E-02
DAV:  10    -0.136998395680E+04   -0.91143E-05   -0.11690E-04  2496   0.208E-02    0.196E-02
DAV:  11    -0.136998395588E+04    0.92352E-06   -0.45873E-05  2376   0.142E-02    0.131E-02
DAV:  12    -0.136998395477E+04    0.11042E-05   -0.26201E-05  2240   0.111E-02    0.109E-02
DAV:  13    -0.136998395399E+04    0.78519E-06   -0.15104E-05  1840   0.732E-03    0.621E-03
DAV:  14    -0.136998395352E+04    0.47345E-06   -0.30064E-06  1104   0.512E-03
  14 F= -.13699840E+04 E0= -.13699840E+04  d E =-.366975E+00
 BRION: g(F)=  0.122E+00 g(S)=  0.000E+00 retain N=  2 mean eig= 4.83
 eig:   4.825  4.825
 bond charge predicted
       N       E                     dE             d eps       ncg     rms          rms(c)
DAV:   1    -0.137011705152E+04   -0.13310E+00   -0.25137E+01  1384   0.717E+00    0.808E-01
DAV:   2    -0.137024670683E+04   -0.12966E+00   -0.13663E+00  2296   0.286E+00    0.406E-01
DAV:   3    -0.137025456610E+04   -0.78593E-02   -0.10804E-01  2560   0.544E-01    0.330E-01
DAV:   4    -0.137025327345E+04    0.12927E-02   -0.98607E-03  2608   0.232E-01    0.246E-01
DAV:   5    -0.137025142924E+04    0.18442E-02   -0.53807E-03  2248   0.152E-01    0.102E-01
DAV:   6    -0.137025150898E+04   -0.79742E-04   -0.43251E-03  2296   0.123E-01    0.812E-02
DAV:   7    -0.137025151859E+04   -0.96131E-05   -0.19557E-03  2376   0.799E-02    0.641E-02
DAV:   8    -0.137025149620E+04    0.22396E-04   -0.57609E-04  2568   0.488E-02    0.354E-02
DAV:   9    -0.137025148663E+04    0.95686E-05   -0.17068E-04  2432   0.255E-02    0.207E-02
DAV:  10    -0.137025149044E+04   -0.38154E-05   -0.57970E-05  2456   0.145E-02    0.133E-02
DAV:  11    -0.137025149081E+04   -0.36792E-06   -0.21630E-05  2184   0.102E-02    0.948E-03
DAV:  12    -0.137025149017E+04    0.64229E-06   -0.12315E-05  1824   0.784E-03    0.823E-03
DAV:  13    -0.137025148973E+04    0.43584E-06   -0.83065E-06  1744   0.575E-03
  15 F= -.13702515E+04 E0= -.13702515E+04  d E =-.267536E+00
 BRION: g(F)=  0.113E+00 g(S)=  0.000E+00 retain N=  2 mean eig= 4.56
 eig:   4.560  4.560
 bond charge predicted
       N       E                     dE             d eps       ncg     rms          rms(c)
DAV:   1    -0.137034359664E+04   -0.92106E-01   -0.52237E+01  1376   0.103E+01    0.114E+00
DAV:   2    -0.137060963828E+04   -0.26604E+00   -0.27923E+00  2288   0.405E+00    0.575E-01
DAV:   3    -0.137062532366E+04   -0.15685E-01   -0.21733E-01  2560   0.770E-01    0.468E-01
DAV:   4    -0.137062285703E+04    0.24666E-02   -0.19463E-02  2616   0.322E-01    0.355E-01
DAV:   5    -0.137061871278E+04    0.41443E-02   -0.96671E-03  2256   0.211E-01    0.157E-01
DAV:   6    -0.137061865228E+04    0.60504E-04   -0.98892E-03  2248   0.184E-01    0.103E-01
DAV:   7    -0.137061876956E+04   -0.11729E-03   -0.44291E-03  2360   0.119E-01    0.951E-02
DAV:   8    -0.137061871950E+04    0.50062E-04   -0.10382E-03  2552   0.671E-02    0.569E-02
DAV:   9    -0.137061867971E+04    0.39789E-04   -0.47558E-04  2544   0.408E-02    0.286E-02
DAV:  10    -0.137061869298E+04   -0.13270E-04   -0.16140E-04  2552   0.248E-02    0.220E-02
DAV:  11    -0.137061869142E+04    0.15598E-05   -0.61496E-05  2432   0.160E-02    0.145E-02
DAV:  12    -0.137061869046E+04    0.96207E-06   -0.33957E-05  2264   0.125E-02    0.127E-02
DAV:  13    -0.137061868934E+04    0.11201E-05   -0.19298E-05  1952   0.818E-03    0.739E-03
DAV:  14    -0.137061868881E+04    0.53221E-06   -0.52677E-06  1416   0.546E-03
  16 F= -.13706187E+04 E0= -.13706187E+04  d E =-.367199E+00
 BRION: g(F)=  0.102E+00 g(S)=  0.000E+00 retain N=  2 mean eig= 5.00
 eig:   5.001  5.001
 bond charge predicted
       N       E                     dE             d eps       ncg     rms          rms(c)
DAV:   1    -0.137070421864E+04   -0.85529E-01   -0.41941E+01  1368   0.921E+00    0.103E+00
DAV:   2    -0.137091822330E+04   -0.21400E+00   -0.22504E+00  2296   0.363E+00    0.521E-01
DAV:   3    -0.137093054134E+04   -0.12318E-01   -0.17199E-01  2560   0.702E-01    0.420E-01
DAV:   4    -0.137092834882E+04    0.21925E-02   -0.16039E-02  2592   0.292E-01    0.310E-01
DAV:   5    -0.137092536581E+04    0.29830E-02   -0.87527E-03  2232   0.194E-01    0.122E-01
DAV:   6    -0.137092560106E+04   -0.23525E-03   -0.69305E-03  2344   0.149E-01    0.104E-01
DAV:   7    -0.137092558368E+04    0.17386E-04   -0.25543E-03  2400   0.924E-02    0.782E-02
DAV:   8    -0.137092555093E+04    0.32746E-04   -0.88518E-04  2552   0.584E-02    0.420E-02
DAV:   9    -0.137092553954E+04    0.11389E-04   -0.21992E-04  2352   0.301E-02    0.261E-02
DAV:  10    -0.137092554403E+04   -0.44885E-05   -0.82313E-05  2384   0.173E-02    0.147E-02
DAV:  11    -0.137092554403E+04   -0.47730E-08   -0.21230E-05  2296   0.107E-02    0.853E-03
DAV:  12    -0.137092554427E+04   -0.23084E-06   -0.15393E-05  1904   0.776E-03    0.771E-03
DAV:  13    -0.137092554367E+04    0.59129E-06   -0.49473E-06  1440   0.551E-03
  17 F= -.13709255E+04 E0= -.13709255E+04  d E =-.306855E+00
 BRION: g(F)=  0.928E-01 g(S)=  0.000E+00 retain N=  2 mean eig= 6.15
 eig:   6.147  6.147
 bond charge predicted
       N       E                     dE             d eps       ncg     rms          rms(c)
DAV:   1    -0.137101857219E+04   -0.93028E-01   -0.27687E+01  1368   0.746E+00    0.826E-01
DAV:   2    -0.137115792394E+04   -0.13935E+00   -0.14641E+00  2296   0.293E+00    0.419E-01
DAV:   3    -0.137116605754E+04   -0.81336E-02   -0.11393E-01  2560   0.557E-01    0.338E-01
DAV:   4    -0.137116456243E+04    0.14951E-02   -0.10104E-02  2576   0.233E-01    0.250E-01
DAV:   5    -0.137116249045E+04    0.20720E-02   -0.56780E-03  2192   0.154E-01    0.981E-02
DAV:   6    -0.137116261917E+04   -0.12872E-03   -0.46481E-03  2280   0.121E-01    0.816E-02
DAV:   7    -0.137116262563E+04   -0.64618E-05   -0.17452E-03  2368   0.743E-02    0.635E-02
DAV:   8    -0.137116260448E+04    0.21153E-04   -0.55000E-04  2528   0.458E-02    0.336E-02
DAV:   9    -0.137116259251E+04    0.11971E-04   -0.15917E-04  2248   0.253E-02    0.204E-02
DAV:  10    -0.137116259659E+04   -0.40845E-05   -0.56939E-05  2320   0.141E-02    0.136E-02
DAV:  11    -0.137116259540E+04    0.11895E-05   -0.19514E-05  2056   0.952E-03    0.721E-03
DAV:  12    -0.137116259556E+04   -0.15857E-06   -0.10670E-05  1752   0.699E-03    0.665E-03
DAV:  13    -0.137116259498E+04    0.58663E-06   -0.21057E-06   968   0.487E-03
  18 F= -.13711626E+04 E0= -.13711626E+04  d E =-.237051E+00
 BRION: g(F)=  0.846E-01 g(S)=  0.000E+00 retain N=  2 mean eig= 5.47
 eig:   5.465  5.465
 bond charge predicted
       N       E                     dE             d eps       ncg     rms          rms(c)
DAV:   1    -0.137111778136E+04    0.44814E-01   -0.77093E+01  1376   0.124E+01    0.138E+00
DAV:   2    -0.137150603905E+04   -0.38826E+00   -0.40771E+00  2296   0.489E+00    0.707E-01
DAV:   3    -0.137152826267E+04   -0.22224E-01   -0.31388E-01  2568   0.924E-01    0.568E-01
DAV:   4    -0.137152415925E+04    0.41034E-02   -0.28423E-02  2600   0.384E-01    0.417E-01
DAV:   5    -0.137151853380E+04    0.56255E-02   -0.14384E-02  2232   0.249E-01    0.170E-01
DAV:   6    -0.137151876104E+04   -0.22723E-03   -0.12598E-02  2312   0.199E-01    0.125E-01
DAV:   7    -0.137151880360E+04   -0.42558E-04   -0.46447E-03  2392   0.124E-01    0.102E-01
DAV:   8    -0.137151875228E+04    0.51312E-04   -0.14349E-03  2560   0.740E-02    0.572E-02
DAV:   9    -0.137151872424E+04    0.28043E-04   -0.44135E-04  2424   0.410E-02    0.339E-02
DAV:  10    -0.137151873445E+04   -0.10206E-04   -0.15911E-04  2456   0.240E-02    0.218E-02
DAV:  11    -0.137151873347E+04    0.97610E-06   -0.48320E-05  2464   0.152E-02    0.127E-02
DAV:  12    -0.137151873333E+04    0.14396E-06   -0.31131E-05  2256   0.112E-02    0.110E-02
DAV:  13    -0.137151873235E+04    0.98006E-06   -0.14020E-05  1784   0.735E-03    0.602E-03
DAV:  14    -0.137151873220E+04    0.14217E-06   -0.64910E-06  1552   0.549E-03
  19 F= -.13715187E+04 E0= -.13715187E+04  d E =-.356137E+00
 BRION: g(F)=  0.710E-01 g(S)=  0.000E+00 retain N=  2 mean eig= 6.42
 eig:   6.419  6.419
 bond charge predicted
       N       E                     dE             d eps       ncg     rms          rms(c)
DAV:   1    -0.137154216486E+04   -0.23433E-01   -0.39227E+01  1376   0.889E+00    0.996E-01
DAV:   2    -0.137173926720E+04   -0.19710E+00   -0.20732E+00  2296   0.351E+00    0.509E-01
DAV:   3    -0.137175057110E+04   -0.11304E-01   -0.16060E-01  2568   0.661E-01    0.402E-01
DAV:   4    -0.137174817601E+04    0.23951E-02   -0.14769E-02  2576   0.279E-01    0.285E-01
DAV:   5    -0.137174575430E+04    0.24217E-02   -0.78019E-03  2224   0.175E-01    0.108E-01
DAV:   6    -0.137174595737E+04   -0.20308E-03   -0.51177E-03  2336   0.128E-01    0.890E-02
DAV:   7    -0.137174595470E+04    0.26724E-05   -0.20731E-03  2360   0.814E-02    0.642E-02
DAV:   8    -0.137174594337E+04    0.11326E-04   -0.73662E-04  2584   0.521E-02    0.392E-02
DAV:   9    -0.137174593535E+04    0.80208E-05   -0.16014E-04  2520   0.266E-02    0.266E-02
DAV:  10    -0.137174593584E+04   -0.49002E-06   -0.67156E-05  2560   0.153E-02    0.138E-02
DAV:  11    -0.137174593684E+04   -0.10026E-05   -0.19577E-05  2152   0.101E-02    0.840E-03
DAV:  12    -0.137174593646E+04    0.37994E-06   -0.11776E-05  1776   0.740E-03    0.685E-03
DAV:  13    -0.137174593609E+04    0.37321E-06   -0.53895E-06  1408   0.564E-03
  20 F= -.13717459E+04 E0= -.13717459E+04  d E =-.227204E+00
 BRION: g(F)=  0.607E-01 g(S)=  0.000E+00 retain N=  2 mean eig= 7.94
 eig:   7.942  7.942
