 running on  160 total cores
 distrk:  each k-point on  160 cores,    1 groups
 distr:  one band on   20 cores,    8 groups
 using from now: INCAR     
 vasp.5.4.4.18Apr17-6-g9f103f2a35 (build May 01 2020 14:22:42) gamma-only       
  
 POSCAR found type information on POSCAR  O  La Zr Li Al
 POSCAR found :  5 types and     192 ions
 scaLAPACK will be used
 LDA part: xc-table for Pade appr. of Perdew
 POSCAR, INCAR and KPOINTS ok, starting setup
 FFT: planning ...
 WAVECAR not read
 WARNING: random wavefunctions but no delay for mixing, default for NELMDL
 entering main loop
       N       E                     dE             d eps       ncg     rms          rms(c)
DAV:   1     0.252501897170E+05    0.25250E+05   -0.42225E+05  1584   0.253E+03
DAV:   2     0.941246127584E+04   -0.15838E+05   -0.14649E+05  1440   0.703E+02
DAV:   3     0.268875939277E+04   -0.67237E+04   -0.61133E+04  1488   0.356E+02
DAV:   4    -0.394670415605E+03   -0.30834E+04   -0.28773E+04  2064   0.221E+02
DAV:   5    -0.143506983548E+04   -0.10404E+04   -0.10069E+04  2528   0.140E+02    0.117E+02
DAV:   6    -0.131247743273E+04    0.12259E+03   -0.14121E+03  2440   0.655E+01    0.503E+01
DAV:   7    -0.133592296105E+04   -0.23446E+02   -0.38368E+02  2560   0.334E+01    0.240E+01
DAV:   8    -0.134662360241E+04   -0.10701E+02   -0.26103E+02  2544   0.263E+01    0.266E+01
DAV:   9    -0.133854422588E+04    0.80794E+01   -0.64845E+01  2472   0.153E+01    0.722E+00
DAV:  10    -0.134002792631E+04   -0.14837E+01   -0.15034E+01  2584   0.878E+00    0.872E+00
DAV:  11    -0.134001900408E+04    0.89222E-02   -0.81806E+00  2616   0.479E+00    0.402E+00
DAV:  12    -0.133990250266E+04    0.11650E+00   -0.30728E+00  2608   0.390E+00    0.301E+00
DAV:  13    -0.134000933982E+04   -0.10684E+00   -0.10133E+00  2576   0.190E+00    0.251E+00
DAV:  14    -0.133996429482E+04    0.45045E-01   -0.46429E-01  2560   0.132E+00    0.125E+00
DAV:  15    -0.133997714145E+04   -0.12847E-01   -0.15049E-01  2536   0.779E-01    0.119E+00
DAV:  16    -0.133997728317E+04   -0.14172E-03   -0.40244E-02  2624   0.403E-01    0.783E-01
DAV:  17    -0.133997239793E+04    0.48852E-02   -0.29885E-02  2392   0.339E-01    0.389E-01
DAV:  18    -0.133997295263E+04   -0.55470E-03   -0.69423E-03  2456   0.179E-01    0.235E-01
DAV:  19    -0.133997272330E+04    0.22934E-03   -0.30371E-03  2560   0.103E-01    0.176E-01
DAV:  20    -0.133997270831E+04    0.14984E-04   -0.13295E-03  2552   0.713E-02    0.630E-02
DAV:  21    -0.133997271433E+04   -0.60211E-05   -0.32546E-04  2520   0.402E-02    0.500E-02
DAV:  22    -0.133997272928E+04   -0.14944E-04   -0.99972E-05  2504   0.220E-02    0.284E-02
DAV:  23    -0.133997273172E+04   -0.24435E-05   -0.31175E-05  2200   0.110E-02    0.176E-02
DAV:  24    -0.133997273634E+04   -0.46158E-05   -0.10523E-05  1272   0.936E-03    0.801E-03
DAV:  25    -0.133997273599E+04    0.34815E-06   -0.84380E-06  1456   0.636E-03
   1 F= -.13399727E+04 E0= -.13399727E+04  d E =-.133997E+04
 BRION: g(F)=  0.371E+02 g(S)=  0.000E+00
 bond charge predicted
       N       E                     dE             d eps       ncg     rms          rms(c)
DAV:   1    -0.133103273139E+04    0.89400E+01   -0.42284E+03  1576   0.978E+01    0.180E+01
DAV:   2    -0.135826159427E+04   -0.27229E+02   -0.32243E+02  2576   0.424E+01    0.938E+00
DAV:   3    -0.135796110870E+04    0.30049E+00   -0.20937E+01  2600   0.116E+01    0.673E+00
DAV:   4    -0.135693291210E+04    0.10282E+01   -0.45499E+00  2600   0.463E+00    0.370E+00
DAV:   5    -0.135655151978E+04    0.38139E+00   -0.16430E+00  2416   0.335E+00    0.209E+00
DAV:   6    -0.135652773274E+04    0.23787E-01   -0.18187E+00  2472   0.271E+00    0.103E+00
DAV:   7    -0.135656013254E+04   -0.32400E-01   -0.54026E-01  2424   0.146E+00    0.115E+00
DAV:   8    -0.135655505728E+04    0.50753E-02   -0.10352E-01  2624   0.584E-01    0.694E-01
DAV:   9    -0.135655190983E+04    0.31474E-02   -0.65733E-02  2608   0.459E-01    0.349E-01
DAV:  10    -0.135655173999E+04    0.16985E-03   -0.14442E-02  2544   0.297E-01    0.240E-01
DAV:  11    -0.135655131717E+04    0.42281E-03   -0.10412E-02  2600   0.209E-01    0.130E-01
DAV:  12    -0.135655160005E+04   -0.28287E-03   -0.51799E-03  2536   0.126E-01    0.102E-01
DAV:  13    -0.135655152136E+04    0.78683E-04   -0.17106E-03  2624   0.799E-02    0.381E-02
DAV:  14    -0.135655153055E+04   -0.91844E-05   -0.43480E-04  2616   0.486E-02    0.198E-02
DAV:  15    -0.135655153986E+04   -0.93088E-05   -0.14558E-04  2624   0.258E-02    0.101E-02
DAV:  16    -0.135655154163E+04   -0.17730E-05   -0.38551E-05  2600   0.120E-02    0.628E-03
DAV:  17    -0.135655154187E+04   -0.24270E-06   -0.59645E-06  1392   0.746E-03
   2 F= -.13565515E+04 E0= -.13565515E+04  d E =-.165788E+02
 BRION: g(F)=  0.140E+02 g(S)=  0.000E+00 retain N=  1 mean eig= 0.70
 eig:   0.696
 bond charge predicted
       N       E                     dE             d eps       ncg     rms          rms(c)
DAV:   1    -0.135295612563E+04    0.35954E+01   -0.13378E+03  1448   0.514E+01    0.101E+01
DAV:   2    -0.136100909660E+04   -0.80530E+01   -0.99063E+01  2480   0.223E+01    0.824E+00
DAV:   3    -0.136131277164E+04   -0.30368E+00   -0.80779E+00  2568   0.646E+00    0.657E+00
DAV:   4    -0.136103807521E+04    0.27470E+00   -0.19349E+00  2544   0.291E+00    0.375E+00
DAV:   5    -0.136093757760E+04    0.10050E+00   -0.91751E-01  2144   0.238E+00    0.225E+00
DAV:   6    -0.136090097682E+04    0.36601E-01   -0.92814E-01  2488   0.176E+00    0.122E+00
DAV:   7    -0.136090590420E+04   -0.49274E-02   -0.27752E-01  2512   0.987E-01    0.717E-01
DAV:   8    -0.136090463369E+04    0.12705E-02   -0.37003E-02  2624   0.406E-01    0.488E-01
DAV:   9    -0.136090431079E+04    0.32289E-03   -0.18628E-02  2592   0.266E-01    0.343E-01
DAV:  10    -0.136090332849E+04    0.98230E-03   -0.51260E-03  2344   0.178E-01    0.249E-01
DAV:  11    -0.136090308678E+04    0.24171E-03   -0.10264E-02  2344   0.151E-01    0.862E-02
DAV:  12    -0.136090301268E+04    0.74097E-04   -0.12139E-03  2424   0.832E-02    0.402E-02
DAV:  13    -0.136090305195E+04   -0.39273E-04   -0.55768E-04  2520   0.443E-02    0.331E-02
DAV:  14    -0.136090303921E+04    0.12745E-04   -0.10484E-04  2496   0.258E-02    0.178E-02
DAV:  15    -0.136090304430E+04   -0.50884E-05   -0.11865E-04  2344   0.173E-02    0.119E-02
DAV:  16    -0.136090304359E+04    0.71069E-06   -0.13238E-05  1904   0.866E-03    0.884E-03
DAV:  17    -0.136090304229E+04    0.12961E-05   -0.80543E-06  1624   0.647E-03    0.390E-03
DAV:  18    -0.136090304229E+04   -0.27940E-08   -0.32426E-06  1136   0.518E-03
   3 F= -.13609030E+04 E0= -.13609030E+04  d E =-.435150E+01
 BRION: g(F)=  0.365E+01 g(S)=  0.000E+00 retain N=  2 mean eig= 0.50
 eig:   0.405  0.595
 bond charge predicted
       N       E                     dE             d eps       ncg     rms          rms(c)
DAV:   1    -0.136185767682E+04   -0.95463E+00   -0.31736E+02  1368   0.261E+01    0.494E+00
DAV:   2    -0.136337301178E+04   -0.15153E+01   -0.17102E+01  2288   0.997E+00    0.213E+00
DAV:   3    -0.136343150216E+04   -0.58490E-01   -0.14862E+00  2608   0.225E+00    0.181E+00
DAV:   4    -0.136338853317E+04    0.42969E-01   -0.27333E-01  2592   0.115E+00    0.979E-01
DAV:   5    -0.136337812889E+04    0.10404E-01   -0.12944E-01  2216   0.708E-01    0.539E-01
DAV:   6    -0.136337783864E+04    0.29025E-03   -0.56075E-02  2576   0.482E-01    0.396E-01
DAV:   7    -0.136337735620E+04    0.48244E-03   -0.33180E-02  2424   0.325E-01    0.238E-01
DAV:   8    -0.136337716810E+04    0.18811E-03   -0.74342E-03  2616   0.172E-01    0.135E-01
DAV:   9    -0.136337709703E+04    0.71067E-04   -0.18498E-03  2592   0.920E-02    0.868E-02
DAV:  10    -0.136337722635E+04   -0.12932E-03   -0.17664E-03  2256   0.688E-02    0.916E-02
DAV:  11    -0.136337710431E+04    0.12203E-03   -0.80765E-04  2528   0.560E-02    0.343E-02
DAV:  12    -0.136337711947E+04   -0.15152E-04   -0.43219E-04  2528   0.370E-02    0.267E-02
DAV:  13    -0.136337711382E+04    0.56471E-05   -0.75008E-05  2488   0.188E-02    0.128E-02
DAV:  14    -0.136337711515E+04   -0.13317E-05   -0.26940E-05  2280   0.941E-03    0.515E-03
DAV:  15    -0.136337711526E+04   -0.11276E-06   -0.23584E-06  1056   0.550E-03
   4 F= -.13633771E+04 E0= -.13633771E+04  d E =-.247407E+01
 BRION: g(F)=  0.111E+01 g(S)=  0.000E+00 retain N=  3 mean eig= 1.39
 eig:   0.773  1.691  1.691
 bond charge predicted
       N       E                     dE             d eps       ncg     rms          rms(c)
DAV:   1    -0.136390668550E+04   -0.52957E+00   -0.16802E+02  1360   0.188E+01    0.237E+00
DAV:   2    -0.136471268671E+04   -0.80600E+00   -0.86109E+00  2288   0.708E+00    0.120E+00
DAV:   3    -0.136475549217E+04   -0.42805E-01   -0.67876E-01  2592   0.144E+00    0.101E+00
DAV:   4    -0.136474289565E+04    0.12597E-01   -0.78298E-02  2592   0.642E-01    0.676E-01
DAV:   5    -0.136473364933E+04    0.92463E-02   -0.50325E-02  2208   0.436E-01    0.287E-01
DAV:   6    -0.136473508510E+04   -0.14358E-02   -0.26354E-02  2496   0.319E-01    0.302E-01
DAV:   7    -0.136473434662E+04    0.73848E-03   -0.15011E-02  2472   0.226E-01    0.184E-01
DAV:   8    -0.136473418830E+04    0.15831E-03   -0.56788E-03  2552   0.143E-01    0.898E-02
DAV:   9    -0.136473417346E+04    0.14841E-04   -0.81579E-04  2536   0.645E-02    0.645E-02
DAV:  10    -0.136473419430E+04   -0.20839E-04   -0.65442E-04  2344   0.437E-02    0.398E-02
DAV:  11    -0.136473417735E+04    0.16954E-04   -0.17956E-04  2504   0.331E-02    0.174E-02
DAV:  12    -0.136473418775E+04   -0.10402E-04   -0.15139E-04  2400   0.213E-02    0.223E-02
DAV:  13    -0.136473418106E+04    0.66879E-05   -0.41284E-05  2200   0.129E-02    0.106E-02
DAV:  14    -0.136473418098E+04    0.78900E-07   -0.13301E-05  1792   0.761E-03    0.452E-03
DAV:  15    -0.136473418100E+04   -0.18612E-07   -0.18971E-06   992   0.473E-03
   5 F= -.13647342E+04 E0= -.13647342E+04  d E =-.135707E+01
 BRION: g(F)=  0.626E+00 g(S)=  0.000E+00 retain N=  4 mean eig= 1.76
 eig:   2.447  2.447  1.064  1.064
 bond charge predicted
       N       E                     dE             d eps       ncg     rms          rms(c)
DAV:   1    -0.136505536667E+04   -0.32119E+00   -0.96693E+01  1352   0.143E+01    0.176E+00
DAV:   2    -0.136553131658E+04   -0.47595E+00   -0.50826E+00  2288   0.534E+00    0.894E-01
DAV:   3    -0.136555837500E+04   -0.27058E-01   -0.41035E-01  2584   0.115E+00    0.731E-01
DAV:   4    -0.136555161725E+04    0.67577E-02   -0.45848E-02  2600   0.499E-01    0.499E-01
DAV:   5    -0.136554643367E+04    0.51836E-02   -0.29538E-02  2240   0.329E-01    0.214E-01
DAV:   6    -0.136554704510E+04   -0.61143E-03   -0.14938E-02  2456   0.245E-01    0.218E-01
DAV:   7    -0.136554679394E+04    0.25116E-03   -0.87596E-03  2424   0.170E-01    0.133E-01
DAV:   8    -0.136554674281E+04    0.51131E-04   -0.32316E-03  2568   0.107E-01    0.689E-02
DAV:   9    -0.136554673064E+04    0.12176E-04   -0.45248E-04  2568   0.502E-02    0.511E-02
DAV:  10    -0.136554673493E+04   -0.42946E-05   -0.41999E-04  2336   0.346E-02    0.291E-02
DAV:  11    -0.136554672936E+04    0.55674E-05   -0.98582E-05  2512   0.253E-02    0.133E-02
DAV:  12    -0.136554673383E+04   -0.44721E-05   -0.73630E-05  2352   0.150E-02    0.147E-02
DAV:  13    -0.136554673106E+04    0.27767E-05   -0.16803E-05  1920   0.888E-03    0.780E-03
DAV:  14    -0.136554673086E+04    0.19686E-06   -0.96099E-06  1760   0.652E-03
   6 F= -.13655467E+04 E0= -.13655467E+04  d E =-.812550E+00
 BRION: g(F)=  0.383E+00 g(S)=  0.000E+00 retain N=  5 mean eig= 2.44
 eig:   4.265  4.265  1.387  1.387  0.899
 bond charge predicted
       N       E                     dE             d eps       ncg     rms          rms(c)
DAV:   1    -0.136572034028E+04   -0.17361E+00   -0.11400E+02  1368   0.154E+01    0.184E+00
DAV:   2    -0.136628731061E+04   -0.56697E+00   -0.59830E+00  2288   0.587E+00    0.938E-01
DAV:   3    -0.136632137308E+04   -0.34062E-01   -0.47742E-01  2576   0.118E+00    0.766E-01
DAV:   4    -0.136631472932E+04    0.66438E-02   -0.50726E-02  2624   0.523E-01    0.525E-01
DAV:   5    -0.136630926785E+04    0.54615E-02   -0.26461E-02  2384   0.334E-01    0.226E-01
DAV:   6    -0.136631004209E+04   -0.77424E-03   -0.16362E-02  2424   0.253E-01    0.200E-01
DAV:   7    -0.136630984269E+04    0.19940E-03   -0.78777E-03  2432   0.171E-01    0.144E-01
DAV:   8    -0.136630977613E+04    0.66559E-04   -0.36806E-03  2560   0.111E-01    0.803E-02
DAV:   9    -0.136630972770E+04    0.48432E-04   -0.67762E-04  2496   0.553E-02    0.533E-02
DAV:  10    -0.136630973167E+04   -0.39693E-05   -0.39688E-04  2576   0.348E-02    0.297E-02
DAV:  11    -0.136630973489E+04   -0.32262E-05   -0.11287E-04  2456   0.239E-02    0.204E-02
DAV:  12    -0.136630973290E+04    0.19950E-05   -0.55202E-05  2344   0.166E-02    0.183E-02
DAV:  13    -0.136630973000E+04    0.28959E-05   -0.50017E-05  2152   0.123E-02    0.815E-03
DAV:  14    -0.136630973009E+04   -0.85172E-07   -0.12641E-05  1760   0.707E-03    0.325E-03
DAV:  15    -0.136630973031E+04   -0.22506E-06   -0.13400E-06   992   0.421E-03
   7 F= -.13663097E+04 E0= -.13663097E+04  d E =-.762999E+00
 BRION: g(F)=  0.240E+00 g(S)=  0.000E+00 retain N=  6 mean eig= 3.23
 eig:   6.345  6.345  2.227  2.227  1.104  1.104
 bond charge predicted
       N       E                     dE             d eps       ncg     rms          rms(c)
DAV:   1    -0.136644927436E+04   -0.13954E+00   -0.72766E+01  1360   0.122E+01    0.151E+00
DAV:   2    -0.136680579949E+04   -0.35653E+00   -0.37584E+00  2304   0.471E+00    0.745E-01
DAV:   3    -0.136682424483E+04   -0.18445E-01   -0.27897E-01  2600   0.908E-01    0.585E-01
DAV:   4    -0.136681877289E+04    0.54719E-02   -0.32683E-02  2576   0.410E-01    0.362E-01
DAV:   5    -0.136681638364E+04    0.23893E-02   -0.16322E-02  2376   0.261E-01    0.148E-01
DAV:   6    -0.136681694692E+04   -0.56329E-03   -0.73784E-03  2560   0.166E-01    0.127E-01
DAV:   7    -0.136681686518E+04    0.81741E-04   -0.25064E-03  2544   0.985E-02    0.816E-02
DAV:   8    -0.136681685299E+04    0.12195E-04   -0.11740E-03  2568   0.642E-02    0.442E-02
DAV:   9    -0.136681684576E+04    0.72283E-05   -0.18508E-04  2536   0.317E-02    0.323E-02
DAV:  10    -0.136681684789E+04   -0.21303E-05   -0.15864E-04  2488   0.226E-02    0.183E-02
DAV:  11    -0.136681684676E+04    0.11277E-05   -0.38822E-05  2408   0.146E-02    0.865E-03
DAV:  12    -0.136681684828E+04   -0.15179E-05   -0.21449E-05  2128   0.870E-03    0.861E-03
DAV:  13    -0.136681684727E+04    0.10070E-05   -0.52528E-06  1344   0.613E-03    0.408E-03
DAV:  14    -0.136681684779E+04   -0.51750E-06   -0.88999E-06  1552   0.647E-03
   8 F= -.13668168E+04 E0= -.13668168E+04  d E =-.507117E+00
 BRION: g(F)=  0.175E+00 g(S)=  0.000E+00 retain N=  5 mean eig= 3.96
 eig:   7.371  7.371  1.986  1.986  1.098
 bond charge predicted
       N       E                     dE             d eps       ncg     rms          rms(c)
DAV:   1    -0.136691675435E+04   -0.99907E-01   -0.61066E+01  1384   0.112E+01    0.134E+00
DAV:   2    -0.136722574408E+04   -0.30899E+00   -0.32763E+00  2320   0.450E+00    0.672E-01
DAV:   3    -0.136724277968E+04   -0.17036E-01   -0.24803E-01  2600   0.844E-01    0.532E-01
DAV:   4    -0.136723868493E+04    0.40948E-02   -0.26144E-02  2616   0.377E-01    0.349E-01
DAV:   5    -0.136723626494E+04    0.24200E-02   -0.13017E-02  2368   0.227E-01    0.138E-01
DAV:   6    -0.136723668390E+04   -0.41896E-03   -0.64026E-03  2504   0.152E-01    0.112E-01
DAV:   7    -0.136723665988E+04    0.24023E-04   -0.26857E-03  2488   0.994E-02    0.751E-02
DAV:   8    -0.136723665854E+04    0.13448E-05   -0.10835E-03  2608   0.630E-02    0.449E-02
DAV:   9    -0.136723665001E+04    0.85310E-05   -0.20363E-04  2536   0.315E-02    0.334E-02
DAV:  10    -0.136723665163E+04   -0.16250E-05   -0.14516E-04  2536   0.216E-02    0.191E-02
DAV:  11    -0.136723665056E+04    0.10719E-05   -0.48496E-05  2432   0.152E-02    0.901E-03
DAV:  12    -0.136723665107E+04   -0.51201E-06   -0.16850E-05  2008   0.946E-03    0.761E-03
DAV:  13    -0.136723665076E+04    0.31070E-06   -0.89509E-06  1616   0.616E-03
   9 F= -.13672367E+04 E0= -.13672367E+04  d E =-.419803E+00
 BRION: g(F)=  0.137E+00 g(S)=  0.000E+00 retain N=  3 mean eig= 5.07
 eig:   6.586  6.586  2.049
 bond charge predicted
       N       E                     dE             d eps       ncg     rms          rms(c)
DAV:   1    -0.136734566497E+04   -0.10901E+00   -0.37805E+01  1384   0.888E+00    0.105E+00
DAV:   2    -0.136754543435E+04   -0.19977E+00   -0.21256E+00  2288   0.369E+00    0.525E-01
DAV:   3    -0.136755763726E+04   -0.12203E-01   -0.16892E-01  2592   0.699E-01    0.422E-01
DAV:   4    -0.136755544132E+04    0.21959E-02   -0.15935E-02  2608   0.301E-01    0.298E-01
DAV:   5    -0.136755351554E+04    0.19258E-02   -0.84905E-03  2336   0.178E-01    0.117E-01
DAV:   6    -0.136755374144E+04   -0.22590E-03   -0.46579E-03  2448   0.127E-01    0.909E-02
DAV:   7    -0.136755375485E+04   -0.13419E-04   -0.22544E-03  2472   0.861E-02    0.622E-02
DAV:   8    -0.136755374918E+04    0.56695E-05   -0.73153E-04  2616   0.544E-02    0.396E-02
DAV:   9    -0.136755374219E+04    0.69957E-05   -0.16341E-04  2528   0.273E-02    0.276E-02
DAV:  10    -0.136755374434E+04   -0.21524E-05   -0.84527E-05  2568   0.168E-02    0.148E-02
DAV:  11    -0.136755374519E+04   -0.85089E-06   -0.28753E-05  2376   0.117E-02    0.850E-03
DAV:  12    -0.136755374490E+04    0.28820E-06   -0.12209E-05  1912   0.834E-03    0.653E-03
DAV:  13    -0.136755374476E+04    0.14793E-06   -0.68460E-06  1488   0.543E-03
  10 F= -.13675537E+04 E0= -.13675537E+04  d E =-.317094E+00
 BRION: g(F)=  0.120E+00 g(S)=  0.000E+00 retain N=  3 mean eig= 5.50
 eig:   7.223  7.223  2.066
 bond charge predicted
       N       E                     dE             d eps       ncg     rms          rms(c)
DAV:   1    -0.136765849713E+04   -0.10475E+00   -0.29094E+01  1384   0.782E+00    0.932E-01
DAV:   2    -0.136781658136E+04   -0.15808E+00   -0.16855E+00  2304   0.331E+00    0.466E-01
DAV:   3    -0.136782596587E+04   -0.93845E-02   -0.13125E-01  2584   0.611E-01    0.376E-01
DAV:   4    -0.136782418814E+04    0.17777E-02   -0.12486E-02  2600   0.268E-01    0.270E-01
DAV:   5    -0.136782246423E+04    0.17239E-02   -0.69453E-03  2296   0.162E-01    0.105E-01
DAV:   6    -0.136782265670E+04   -0.19247E-03   -0.41309E-03  2416   0.119E-01    0.850E-02
DAV:   7    -0.136782265935E+04   -0.26506E-05   -0.19119E-03  2448   0.786E-02    0.588E-02
DAV:   8    -0.136782264862E+04    0.10733E-04   -0.63712E-04  2600   0.503E-02    0.353E-02
DAV:   9    -0.136782264357E+04    0.50532E-05   -0.14394E-04  2536   0.254E-02    0.247E-02
DAV:  10    -0.136782264586E+04   -0.22971E-05   -0.67386E-05  2568   0.153E-02    0.140E-02
DAV:  11    -0.136782264627E+04   -0.40855E-06   -0.25404E-05  2336   0.110E-02    0.809E-03
DAV:  12    -0.136782264605E+04    0.21895E-06   -0.11025E-05  1840   0.796E-03    0.665E-03
DAV:  13    -0.136782264571E+04    0.34145E-06   -0.51425E-06  1312   0.527E-03
  11 F= -.13678226E+04 E0= -.13678226E+04  d E =-.268901E+00
 BRION: g(F)=  0.108E+00 g(S)=  0.000E+00 retain N=  3 mean eig= 5.67
 eig:   7.432  7.432  2.131
 bond charge predicted
       N       E                     dE             d eps       ncg     rms          rms(c)
DAV:   1    -0.136792866419E+04   -0.10602E+00   -0.24275E+01  1384   0.713E+00    0.839E-01
DAV:   2    -0.136806209572E+04   -0.13343E+00   -0.14218E+00  2304   0.306E+00    0.425E-01
DAV:   3    -0.136807003256E+04   -0.79368E-02   -0.11057E-01  2592   0.554E-01    0.342E-01
DAV:   4    -0.136806851759E+04    0.15150E-02   -0.10092E-02  2592   0.243E-01    0.247E-01
DAV:   5    -0.136806699804E+04    0.15195E-02   -0.57528E-03  2288   0.147E-01    0.950E-02
DAV:   6    -0.136806717282E+04   -0.17478E-03   -0.36570E-03  2424   0.110E-01    0.769E-02
DAV:   7    -0.136806717662E+04   -0.37993E-05   -0.15823E-03  2432   0.704E-02    0.539E-02
DAV:   8    -0.136806716719E+04    0.94356E-05   -0.52360E-04  2600   0.454E-02    0.311E-02
DAV:   9    -0.136806716246E+04    0.47292E-05   -0.11758E-04  2424   0.231E-02    0.220E-02
DAV:  10    -0.136806716459E+04   -0.21281E-05   -0.53510E-05  2480   0.138E-02    0.128E-02
DAV:  11    -0.136806716466E+04   -0.71916E-07   -0.20358E-05  2208   0.990E-03    0.713E-03
DAV:  12    -0.136806716463E+04    0.29337E-07   -0.92205E-06  1776   0.702E-03
  12 F= -.13680672E+04 E0= -.13680672E+04  d E =-.244519E+00
 BRION: g(F)=  0.100E+00 g(S)=  0.000E+00 retain N=  3 mean eig= 5.80
 eig:   7.653  7.653  2.101
 bond charge predicted
       N       E                     dE             d eps       ncg     rms          rms(c)
DAV:   1    -0.136817253540E+04   -0.10537E+00   -0.20266E+01  1392   0.648E+00    0.759E-01
DAV:   2    -0.136828528817E+04   -0.11275E+00   -0.11992E+00  2296   0.281E+00    0.386E-01
DAV:   3    -0.136829219670E+04   -0.69085E-02   -0.94454E-02  2608   0.511E-01    0.316E-01
DAV:   4    -0.136829101733E+04    0.11794E-02   -0.81083E-03  2608   0.222E-01    0.235E-01
DAV:   5    -0.136828959878E+04    0.14186E-02   -0.49903E-03  2264   0.136E-01    0.910E-02
DAV:   6    -0.136828974584E+04   -0.14707E-03   -0.33483E-03  2384   0.104E-01    0.751E-02
DAV:   7    -0.136828973939E+04    0.64486E-05   -0.14986E-03  2448   0.675E-02    0.522E-02
DAV:   8    -0.136828972773E+04    0.11664E-04   -0.46822E-04  2576   0.438E-02    0.305E-02
DAV:   9    -0.136828972182E+04    0.59135E-05   -0.11175E-04  2408   0.218E-02    0.204E-02
DAV:  10    -0.136828972409E+04   -0.22733E-05   -0.45200E-05  2456   0.126E-02    0.116E-02
DAV:  11    -0.136828972438E+04   -0.29287E-06   -0.16745E-05  2056   0.922E-03    0.720E-03
DAV:  12    -0.136828972432E+04    0.65906E-07   -0.92905E-06  1648   0.690E-03
  13 F= -.13682897E+04 E0= -.13682897E+04  d E =-.222560E+00
 BRION: g(F)=  0.948E-01 g(S)=  0.000E+00 retain N=  3 mean eig= 5.50
 eig:   7.231  7.231  2.045
 bond charge predicted
       N       E                     dE             d eps       ncg     rms          rms(c)
DAV:   1    -0.136839555727E+04   -0.10583E+00   -0.17245E+01  1384   0.596E+00    0.694E-01
DAV:   2    -0.136848989847E+04   -0.94341E-01   -0.10021E+00  2296   0.256E+00    0.354E-01
DAV:   3    -0.136849544514E+04   -0.55467E-02   -0.77240E-02  2608   0.473E-01    0.285E-01
DAV:   4    -0.136849434814E+04    0.10970E-02   -0.68173E-03  2608   0.200E-01    0.206E-01
DAV:   5    -0.136849323699E+04    0.11111E-02   -0.41600E-03  2256   0.126E-01    0.756E-02
DAV:   6    -0.136849339616E+04   -0.15917E-03   -0.26739E-03  2448   0.916E-02    0.668E-02
DAV:   7    -0.136849338671E+04    0.94529E-05   -0.94798E-04  2464   0.557E-02    0.462E-02
DAV:   8    -0.136849337709E+04    0.96202E-05   -0.34711E-04  2592   0.359E-02    0.242E-02
DAV:   9    -0.136849337373E+04    0.33582E-05   -0.69889E-05  2288   0.181E-02    0.173E-02
DAV:  10    -0.136849337490E+04   -0.11697E-05   -0.29096E-05  2400   0.105E-02    0.897E-03
DAV:  11    -0.136849337454E+04    0.36127E-06   -0.67220E-06  1472   0.694E-03
  14 F= -.13684934E+04 E0= -.13684934E+04  d E =-.203650E+00
 BRION: g(F)=  0.908E-01 g(S)=  0.000E+00 retain N=  3 mean eig= 5.45
 eig:   7.197  7.197  1.952
 bond charge predicted
       N       E                     dE             d eps       ncg     rms          rms(c)
DAV:   1    -0.136859723738E+04   -0.10386E+00   -0.15819E+01  1376   0.568E+00    0.648E-01
DAV:   2    -0.136868301610E+04   -0.85779E-01   -0.90765E-01  2304   0.241E+00    0.333E-01
DAV:   3    -0.136868813549E+04   -0.51194E-02   -0.69952E-02  2608   0.437E-01    0.268E-01
DAV:   4    -0.136868723241E+04    0.90308E-03   -0.58621E-03  2608   0.187E-01    0.198E-01
DAV:   5    -0.136868617334E+04    0.10591E-02   -0.36075E-03  2280   0.119E-01    0.744E-02
DAV:   6    -0.136868629731E+04   -0.12397E-03   -0.24894E-03  2416   0.887E-02    0.634E-02
DAV:   7    -0.136868629137E+04    0.59330E-05   -0.92725E-04  2456   0.548E-02    0.446E-02
DAV:   8    -0.136868628236E+04    0.90105E-05   -0.31545E-04  2552   0.349E-02    0.238E-02
DAV:   9    -0.136868627766E+04    0.47054E-05   -0.73633E-05  2216   0.179E-02    0.163E-02
DAV:  10    -0.136868627904E+04   -0.13767E-05   -0.27779E-05  2376   0.101E-02    0.923E-03
DAV:  11    -0.136868627863E+04    0.40678E-06   -0.80857E-06  1584   0.713E-03
  15 F= -.13686863E+04 E0= -.13686863E+04  d E =-.192904E+00
 BRION: g(F)=  0.874E-01 g(S)=  0.000E+00 retain N=  3 mean eig= 5.17
 eig:   6.820  6.820  1.863
 bond charge predicted
       N       E                     dE             d eps       ncg     rms          rms(c)
DAV:   1    -0.136878889538E+04   -0.10262E+00   -0.14873E+01  1376   0.550E+00    0.621E-01
DAV:   2    -0.136886855158E+04   -0.79656E-01   -0.84174E-01  2328   0.229E+00    0.320E-01
DAV:   3    -0.136887294573E+04   -0.43941E-02   -0.61953E-02  2600   0.425E-01    0.254E-01
DAV:   4    -0.136887202992E+04    0.91580E-03   -0.56215E-03  2608   0.179E-01    0.181E-01
DAV:   5    -0.136887116525E+04    0.86467E-03   -0.33093E-03  2288   0.114E-01    0.663E-02
DAV:   6    -0.136887128530E+04   -0.12004E-03   -0.20170E-03  2440   0.801E-02    0.589E-02
DAV:   7    -0.136887127783E+04    0.74614E-05   -0.73741E-04  2456   0.503E-02    0.404E-02
DAV:   8    -0.136887127122E+04    0.66185E-05   -0.27041E-04  2560   0.317E-02    0.216E-02
DAV:   9    -0.136887126881E+04    0.24029E-05   -0.54463E-05  2256   0.160E-02    0.156E-02
DAV:  10    -0.136887126978E+04   -0.96945E-06   -0.26671E-05  2232   0.995E-03    0.829E-03
DAV:  11    -0.136887126930E+04    0.48074E-06   -0.56290E-06  1384   0.701E-03
  16 F= -.13688713E+04 E0= -.13688713E+04  d E =-.184991E+00
 BRION: g(F)=  0.844E-01 g(S)=  0.000E+00 retain N=  3 mean eig= 4.83
 eig:   6.327  6.327  1.836
 bond charge predicted
       N       E                     dE             d eps       ncg     rms          rms(c)
DAV:   1    -0.136897633039E+04   -0.10506E+00   -0.16349E+01  1376   0.573E+00    0.646E-01
DAV:   2    -0.136906205533E+04   -0.85725E-01   -0.90520E-01  2336   0.235E+00    0.332E-01
DAV:   3    -0.136906678149E+04   -0.47262E-02   -0.66802E-02  2600   0.440E-01    0.260E-01
DAV:   4    -0.136906575293E+04    0.10286E-02   -0.60911E-03  2608   0.185E-01    0.182E-01
DAV:   5    -0.136906487527E+04    0.87767E-03   -0.34318E-03  2296   0.118E-01    0.659E-02
DAV:   6    -0.136906500238E+04   -0.12711E-03   -0.20618E-03  2464   0.807E-02    0.578E-02
DAV:   7    -0.136906499918E+04    0.31914E-05   -0.66977E-04  2488   0.491E-02    0.405E-02
DAV:   8    -0.136906499317E+04    0.60193E-05   -0.26900E-04  2560   0.309E-02    0.212E-02
DAV:   9    -0.136906499107E+04    0.20935E-05   -0.50755E-05  2264   0.159E-02    0.154E-02
DAV:  10    -0.136906499158E+04   -0.51112E-06   -0.24472E-05  2216   0.989E-03    0.763E-03
DAV:  11    -0.136906499122E+04    0.35940E-06   -0.40450E-06  1224   0.654E-03
  17 F= -.13690650E+04 E0= -.13690650E+04  d E =-.193722E+00
 BRION: g(F)=  0.820E-01 g(S)=  0.000E+00 retain N=  3 mean eig= 4.87
 eig:   6.379  6.379  1.852
 bond charge predicted
       N       E                     dE             d eps       ncg     rms          rms(c)
DAV:   1    -0.136916777524E+04   -0.10278E+00   -0.14806E+01  1376   0.545E+00    0.607E-01
DAV:   2    -0.136924540040E+04   -0.77625E-01   -0.81851E-01  2328   0.222E+00    0.311E-01
DAV:   3    -0.136924993551E+04   -0.45351E-02   -0.62443E-02  2592   0.415E-01    0.247E-01
DAV:   4    -0.136924910260E+04    0.83291E-03   -0.53869E-03  2592   0.176E-01    0.179E-01
DAV:   5    -0.136924822752E+04    0.87507E-03   -0.29512E-03  2296   0.109E-01    0.680E-02
DAV:   6    -0.136924830845E+04   -0.80927E-04   -0.19918E-03  2384   0.796E-02    0.551E-02
DAV:   7    -0.136924831197E+04   -0.35188E-05   -0.76229E-04  2448   0.514E-02    0.400E-02
DAV:   8    -0.136924830539E+04    0.65826E-05   -0.26448E-04  2544   0.318E-02    0.223E-02
DAV:   9    -0.136924830206E+04    0.33268E-05   -0.63794E-05  2336   0.167E-02    0.152E-02
DAV:  10    -0.136924830289E+04   -0.83222E-06   -0.26060E-05  2304   0.995E-03    0.857E-03
DAV:  11    -0.136924830246E+04    0.43630E-06   -0.51961E-06  1304   0.702E-03
  18 F= -.13692483E+04 E0= -.13692483E+04  d E =-.183311E+00
 BRION: g(F)=  0.796E-01 g(S)=  0.000E+00 retain N=  3 mean eig= 4.83
 eig:   6.315  6.315  1.868
 bond charge predicted
       N       E                     dE             d eps       ncg     rms          rms(c)
DAV:   1    -0.136935095697E+04   -0.10265E+00   -0.15208E+01  1376   0.549E+00    0.620E-01
DAV:   2    -0.136942904017E+04   -0.78083E-01   -0.82356E-01  2312   0.221E+00    0.317E-01
DAV:   3    -0.136943331785E+04   -0.42777E-02   -0.61357E-02  2600   0.426E-01    0.246E-01
DAV:   4    -0.136943230161E+04    0.10162E-02   -0.56520E-03  2600   0.178E-01    0.168E-01
DAV:   5    -0.136943154755E+04    0.75406E-03   -0.30720E-03  2336   0.111E-01    0.604E-02
DAV:   6    -0.136943165272E+04   -0.10517E-03   -0.16978E-03  2464   0.736E-02    0.515E-02
DAV:   7    -0.136943165166E+04    0.10614E-05   -0.53417E-04  2512   0.452E-02    0.357E-02
DAV:   8    -0.136943164859E+04    0.30663E-05   -0.22585E-04  2552   0.282E-02    0.194E-02
DAV:   9    -0.136943164727E+04    0.13169E-05   -0.39184E-05  2368   0.144E-02    0.144E-02
DAV:  10    -0.136943164706E+04    0.20850E-06   -0.22625E-05  2184   0.947E-03    0.633E-03
DAV:  11    -0.136943164696E+04    0.10661E-06   -0.33670E-06  1192   0.616E-03
  19 F= -.13694316E+04 E0= -.13694316E+04  d E =-.183345E+00
 BRION: g(F)=  0.770E-01 g(S)=  0.000E+00 retain N=  3 mean eig= 5.34
 eig:   7.040  7.040  1.950
 bond charge predicted
       N       E                     dE             d eps       ncg     rms          rms(c)
DAV:   1    -0.136953062606E+04   -0.98979E-01   -0.23991E+01  1368   0.690E+00    0.768E-01
DAV:   2    -0.136965390177E+04   -0.12328E+00   -0.12986E+00  2320   0.274E+00    0.394E-01
DAV:   3    -0.136966091281E+04   -0.70110E-02   -0.98621E-02  2600   0.522E-01    0.309E-01
DAV:   4    -0.136965946120E+04    0.14516E-02   -0.86340E-03  2592   0.222E-01    0.219E-01
DAV:   5    -0.136965808525E+04    0.13760E-02   -0.44694E-03  2344   0.136E-01    0.841E-02
DAV:   6    -0.136965818532E+04   -0.10007E-03   -0.29777E-03  2392   0.978E-02    0.641E-02
DAV:   7    -0.136965819637E+04   -0.11050E-04   -0.10703E-03  2456   0.630E-02    0.478E-02
DAV:   8    -0.136965818933E+04    0.70387E-05   -0.39156E-04  2544   0.378E-02    0.271E-02
DAV:   9    -0.136965818449E+04    0.48419E-05   -0.94858E-05  2368   0.205E-02    0.185E-02
DAV:  10    -0.136965818536E+04   -0.87428E-06   -0.40303E-05  2400   0.124E-02    0.107E-02
DAV:  11    -0.136965818502E+04    0.34698E-06   -0.12768E-05  1856   0.843E-03    0.507E-03
DAV:  12    -0.136965818530E+04   -0.28557E-06   -0.76879E-06  1720   0.622E-03
  20 F= -.13696582E+04 E0= -.13696582E+04  d E =-.226538E+00
 BRION: g(F)=  0.735E-01 g(S)=  0.000E+00 retain N=  2 mean eig= 4.77
 eig:   4.768  4.768
