 running on  160 total cores
 distrk:  each k-point on  160 cores,    1 groups
 distr:  one band on   20 cores,    8 groups
 using from now: INCAR     
 vasp.5.4.4.18Apr17-6-g9f103f2a35 (build May 01 2020 14:22:42) gamma-only       
  
 POSCAR found type information on POSCAR  O  La Zr Li Al
 POSCAR found :  5 types and     192 ions
 scaLAPACK will be used
 LDA part: xc-table for Pade appr. of Perdew
 POSCAR, INCAR and KPOINTS ok, starting setup
 FFT: planning ...
 WAVECAR not read
 WARNING: random wavefunctions but no delay for mixing, default for NELMDL
 entering main loop
       N       E                     dE             d eps       ncg     rms          rms(c)
DAV:   1     0.251561298108E+05    0.25156E+05   -0.42238E+05  1584   0.253E+03
DAV:   2     0.944710683436E+04   -0.15709E+05   -0.14532E+05  1432   0.701E+02
DAV:   3     0.270756369655E+04   -0.67395E+04   -0.61325E+04  1512   0.356E+02
DAV:   4    -0.393581097471E+03   -0.31011E+04   -0.29012E+04  2040   0.222E+02
DAV:   5    -0.142867013441E+04   -0.10351E+04   -0.10016E+04  2528   0.140E+02    0.116E+02
DAV:   6    -0.131417757839E+04    0.11449E+03   -0.14674E+03  2440   0.654E+01    0.505E+01
DAV:   7    -0.133654575879E+04   -0.22368E+02   -0.37822E+02  2568   0.334E+01    0.245E+01
DAV:   8    -0.134824654148E+04   -0.11701E+02   -0.28670E+02  2536   0.272E+01    0.282E+01
DAV:   9    -0.133860155484E+04    0.96450E+01   -0.69196E+01  2432   0.157E+01    0.766E+00
DAV:  10    -0.134004468556E+04   -0.14431E+01   -0.15445E+01  2608   0.882E+00    0.856E+00
DAV:  11    -0.134004998934E+04   -0.53038E-02   -0.84740E+00  2608   0.483E+00    0.407E+00
DAV:  12    -0.133992174062E+04    0.12825E+00   -0.30528E+00  2568   0.388E+00    0.262E+00
DAV:  13    -0.134000570106E+04   -0.83960E-01   -0.90099E-01  2552   0.188E+00    0.209E+00
DAV:  14    -0.133998453703E+04    0.21164E-01   -0.33145E-01  2608   0.116E+00    0.129E+00
DAV:  15    -0.133999409628E+04   -0.95593E-02   -0.11127E-01  2560   0.649E-01    0.105E+00
DAV:  16    -0.133999273818E+04    0.13581E-02   -0.40343E-02  2624   0.397E-01    0.673E-01
DAV:  17    -0.133999006120E+04    0.26770E-02   -0.22361E-02  2512   0.298E-01    0.332E-01
DAV:  18    -0.133999036109E+04   -0.29989E-03   -0.47529E-03  2600   0.142E-01    0.205E-01
DAV:  19    -0.133999012269E+04    0.23840E-03   -0.28645E-03  2496   0.981E-02    0.157E-01
DAV:  20    -0.133999015065E+04   -0.27966E-04   -0.88546E-04  2536   0.605E-02    0.386E-02
DAV:  21    -0.133999015224E+04   -0.15900E-05   -0.23951E-04  2536   0.323E-02    0.520E-02
DAV:  22    -0.133999016625E+04   -0.14007E-04   -0.89810E-05  2472   0.209E-02    0.142E-02
DAV:  23    -0.133999016951E+04   -0.32548E-05   -0.22869E-05  1616   0.902E-03    0.876E-03
DAV:  24    -0.133999017251E+04   -0.29998E-05   -0.12133E-05  1528   0.830E-03    0.297E-03
DAV:  25    -0.133999017287E+04   -0.36265E-06   -0.32232E-06  1040   0.479E-03
   1 F= -.13399902E+04 E0= -.13399902E+04  d E =-.133999E+04
 BRION: g(F)=  0.369E+02 g(S)=  0.000E+00
 bond charge predicted
       N       E                     dE             d eps       ncg     rms          rms(c)
DAV:   1    -0.133346194627E+04    0.65282E+01   -0.39240E+03  1624   0.964E+01    0.160E+01
DAV:   2    -0.135860702127E+04   -0.25145E+02   -0.29437E+02  2568   0.418E+01    0.930E+00
DAV:   3    -0.135856800373E+04    0.39018E-01   -0.18754E+01  2616   0.109E+01    0.689E+00
DAV:   4    -0.135783166884E+04    0.73633E+00   -0.44598E+00  2608   0.434E+00    0.385E+00
DAV:   5    -0.135754980822E+04    0.28186E+00   -0.12706E+00  2288   0.280E+00    0.211E+00
DAV:   6    -0.135749261143E+04    0.57197E-01   -0.12447E+00  2328   0.236E+00    0.100E+00
DAV:   7    -0.135753582773E+04   -0.43216E-01   -0.65704E-01  2280   0.146E+00    0.988E-01
DAV:   8    -0.135753468486E+04    0.11429E-02   -0.10124E-01  2624   0.605E-01    0.746E-01
DAV:   9    -0.135753143932E+04    0.32455E-02   -0.93492E-02  2560   0.559E-01    0.405E-01
DAV:  10    -0.135753210914E+04   -0.66982E-03   -0.26946E-02  2328   0.355E-01    0.379E-01
DAV:  11    -0.135753046982E+04    0.16393E-02   -0.20254E-02  2448   0.272E-01    0.176E-01
DAV:  12    -0.135753102472E+04   -0.55489E-03   -0.10809E-02  2392   0.174E-01    0.154E-01
DAV:  13    -0.135753070820E+04    0.31651E-03   -0.24957E-03  2568   0.984E-02    0.499E-02
DAV:  14    -0.135753076636E+04   -0.58156E-04   -0.96725E-04  2600   0.546E-02    0.348E-02
DAV:  15    -0.135753076498E+04    0.13767E-05   -0.14041E-04  2584   0.255E-02    0.178E-02
DAV:  16    -0.135753076769E+04   -0.27126E-05   -0.87323E-05  2576   0.161E-02    0.920E-03
DAV:  17    -0.135753076804E+04   -0.34960E-06   -0.88233E-06  1712   0.768E-03
   2 F= -.13575308E+04 E0= -.13575308E+04  d E =-.175406E+02
 BRION: g(F)=  0.119E+02 g(S)=  0.000E+00 retain N=  1 mean eig= 0.74
 eig:   0.738
 bond charge predicted
       N       E                     dE             d eps       ncg     rms          rms(c)
DAV:   1    -0.135448141582E+04    0.30494E+01   -0.11811E+03  1456   0.487E+01    0.894E+00
DAV:   2    -0.136168496157E+04   -0.72035E+01   -0.87869E+01  2440   0.214E+01    0.692E+00
DAV:   3    -0.136204305719E+04   -0.35810E+00   -0.74343E+00  2568   0.608E+00    0.562E+00
DAV:   4    -0.136184160061E+04    0.20146E+00   -0.15408E+00  2560   0.266E+00    0.346E+00
DAV:   5    -0.136179193845E+04    0.49662E-01   -0.10301E+00  2136   0.201E+00    0.219E+00
DAV:   6    -0.136174346091E+04    0.48478E-01   -0.54275E-01  2520   0.145E+00    0.145E+00
DAV:   7    -0.136173576277E+04    0.76981E-02   -0.33007E-01  2456   0.101E+00    0.619E-01
DAV:   8    -0.136173621595E+04   -0.45318E-03   -0.35869E-02  2568   0.413E-01    0.437E-01
DAV:   9    -0.136173588545E+04    0.33050E-03   -0.13517E-02  2544   0.228E-01    0.293E-01
DAV:  10    -0.136173550885E+04    0.37660E-03   -0.40046E-03  2344   0.147E-01    0.223E-01
DAV:  11    -0.136173515523E+04    0.35362E-03   -0.82127E-03  2264   0.138E-01    0.664E-02
DAV:  12    -0.136173516212E+04   -0.68920E-05   -0.10211E-03  2448   0.733E-02    0.350E-02
DAV:  13    -0.136173518156E+04   -0.19439E-04   -0.32774E-04  2616   0.354E-02    0.202E-02
DAV:  14    -0.136173518396E+04   -0.23993E-05   -0.95116E-05  2576   0.188E-02    0.100E-02
DAV:  15    -0.136173518612E+04   -0.21589E-05   -0.26270E-05  2264   0.105E-02    0.752E-03
DAV:  16    -0.136173518607E+04    0.47410E-07   -0.35068E-06  1144   0.520E-03
   3 F= -.13617352E+04 E0= -.13617352E+04  d E =-.420442E+01
 BRION: g(F)=  0.380E+01 g(S)=  0.000E+00 retain N=  2 mean eig= 0.19
 eig:   0.326  0.045
 bond charge predicted
       N       E                     dE             d eps       ncg     rms          rms(c)
DAV:   1    -0.136283352186E+04   -0.10983E+01   -0.30972E+02  1384   0.260E+01    0.462E+00
DAV:   2    -0.136435624458E+04   -0.15227E+01   -0.17415E+01  2280   0.100E+01    0.200E+00
DAV:   3    -0.136443144647E+04   -0.75202E-01   -0.16127E+00  2584   0.236E+00    0.179E+00
DAV:   4    -0.136439290715E+04    0.38539E-01   -0.23938E-01  2584   0.113E+00    0.108E+00
DAV:   5    -0.136437765083E+04    0.15256E-01   -0.18145E-01  2168   0.744E-01    0.579E-01
DAV:   6    -0.136437767384E+04   -0.23014E-04   -0.57259E-02  2544   0.510E-01    0.522E-01
DAV:   7    -0.136437600055E+04    0.16733E-02   -0.58946E-02  2408   0.416E-01    0.269E-01
DAV:   8    -0.136437582913E+04    0.17143E-03   -0.10639E-02  2544   0.217E-01    0.161E-01
DAV:   9    -0.136437573792E+04    0.91203E-04   -0.25669E-03  2616   0.105E-01    0.969E-02
DAV:  10    -0.136437592587E+04   -0.18794E-03   -0.26557E-03  2272   0.816E-02    0.946E-02
DAV:  11    -0.136437576059E+04    0.16528E-03   -0.98360E-04  2512   0.684E-02    0.331E-02
DAV:  12    -0.136437580118E+04   -0.40585E-04   -0.73836E-04  2528   0.464E-02    0.363E-02
DAV:  13    -0.136437578355E+04    0.17628E-04   -0.11395E-04  2480   0.233E-02    0.171E-02
DAV:  14    -0.136437578444E+04   -0.89631E-06   -0.57597E-05  2328   0.129E-02    0.487E-03
DAV:  15    -0.136437578513E+04   -0.68361E-06   -0.54181E-06  1264   0.685E-03
   4 F= -.13643758E+04 E0= -.13643758E+04  d E =-.264060E+01
 BRION: g(F)=  0.128E+01 g(S)=  0.000E+00 retain N=  3 mean eig= 1.32
 eig:   0.791  1.590  1.590
 bond charge predicted
       N       E                     dE             d eps       ncg     rms          rms(c)
DAV:   1    -0.136514544652E+04   -0.76966E+00   -0.18076E+02  1352   0.194E+01    0.246E+00
DAV:   2    -0.136600049469E+04   -0.85505E+00   -0.91073E+00  2280   0.714E+00    0.121E+00
DAV:   3    -0.136604644566E+04   -0.45951E-01   -0.72426E-01  2576   0.149E+00    0.100E+00
DAV:   4    -0.136603352527E+04    0.12920E-01   -0.82608E-02  2544   0.651E-01    0.648E-01
DAV:   5    -0.136602617685E+04    0.73484E-02   -0.45841E-02  2216   0.404E-01    0.269E-01
DAV:   6    -0.136602721012E+04   -0.10333E-02   -0.19959E-02  2512   0.281E-01    0.253E-01
DAV:   7    -0.136602687574E+04    0.33438E-03   -0.14244E-02  2464   0.215E-01    0.156E-01
DAV:   8    -0.136602680502E+04    0.70719E-04   -0.42028E-03  2560   0.129E-01    0.951E-02
DAV:   9    -0.136602677485E+04    0.30177E-04   -0.80961E-04  2552   0.606E-02    0.645E-02
DAV:  10    -0.136602679535E+04   -0.20501E-04   -0.68673E-04  2344   0.433E-02    0.402E-02
DAV:  11    -0.136602677892E+04    0.16432E-04   -0.20512E-04  2528   0.340E-02    0.161E-02
DAV:  12    -0.136602678808E+04   -0.91668E-05   -0.13739E-04  2448   0.214E-02    0.196E-02
DAV:  13    -0.136602678354E+04    0.45412E-05   -0.31533E-05  2168   0.116E-02    0.961E-03
DAV:  14    -0.136602678341E+04    0.12874E-06   -0.13937E-05  1760   0.727E-03    0.347E-03
DAV:  15    -0.136602678363E+04   -0.21586E-06   -0.15781E-06   992   0.452E-03
   5 F= -.13660268E+04 E0= -.13660268E+04  d E =-.165100E+01
 BRION: g(F)=  0.712E+00 g(S)=  0.000E+00 retain N=  4 mean eig= 1.83
 eig:   2.523  2.523  1.135  1.135
 bond charge predicted
       N       E                     dE             d eps       ncg     rms          rms(c)
DAV:   1    -0.136654282804E+04   -0.51604E+00   -0.82818E+01  1368   0.132E+01    0.169E+00
DAV:   2    -0.136695798295E+04   -0.41515E+00   -0.44552E+00  2320   0.505E+00    0.841E-01
DAV:   3    -0.136698133876E+04   -0.23356E-01   -0.34908E-01  2584   0.105E+00    0.686E-01
DAV:   4    -0.136697577339E+04    0.55654E-02   -0.41029E-02  2608   0.465E-01    0.455E-01
DAV:   5    -0.136697243291E+04    0.33405E-02   -0.24065E-02  2328   0.298E-01    0.203E-01
DAV:   6    -0.136697292481E+04   -0.49190E-03   -0.10613E-02  2504   0.212E-01    0.188E-01
DAV:   7    -0.136697273748E+04    0.18733E-03   -0.69273E-03  2472   0.152E-01    0.113E-01
DAV:   8    -0.136697271569E+04    0.21789E-04   -0.22573E-03  2568   0.932E-02    0.631E-02
DAV:   9    -0.136697269902E+04    0.16667E-04   -0.36688E-04  2568   0.431E-02    0.448E-02
DAV:  10    -0.136697271073E+04   -0.11706E-04   -0.35782E-04  2336   0.315E-02    0.294E-02
DAV:  11    -0.136697270181E+04    0.89183E-05   -0.10383E-04  2480   0.236E-02    0.124E-02
DAV:  12    -0.136697270548E+04   -0.36729E-05   -0.61111E-05  2360   0.143E-02    0.135E-02
DAV:  13    -0.136697270303E+04    0.24573E-05   -0.16696E-05  1912   0.880E-03    0.618E-03
DAV:  14    -0.136697270306E+04   -0.35754E-07   -0.65338E-06  1568   0.600E-03
   6 F= -.13669727E+04 E0= -.13669727E+04  d E =-.945919E+00
 BRION: g(F)=  0.484E+00 g(S)=  0.000E+00 retain N=  5 mean eig= 2.44
 eig:   4.141  4.141  1.485  1.485  0.930
 bond charge predicted
       N       E                     dE             d eps       ncg     rms          rms(c)
DAV:   1    -0.136732521651E+04   -0.35251E+00   -0.12751E+02  1384   0.161E+01    0.195E+00
DAV:   2    -0.136796677489E+04   -0.64156E+00   -0.67754E+00  2296   0.626E+00    0.964E-01
DAV:   3    -0.136800435714E+04   -0.37582E-01   -0.53122E-01  2560   0.121E+00    0.765E-01
DAV:   4    -0.136799632579E+04    0.80314E-02   -0.57733E-02  2600   0.547E-01    0.500E-01
DAV:   5    -0.136799132932E+04    0.49965E-02   -0.26331E-02  2352   0.335E-01    0.203E-01
DAV:   6    -0.136799215472E+04   -0.82539E-03   -0.14288E-02  2472   0.238E-01    0.167E-01
DAV:   7    -0.136799210978E+04    0.44933E-04   -0.66184E-03  2432   0.153E-01    0.121E-01
DAV:   8    -0.136799208125E+04    0.28533E-04   -0.25500E-03  2600   0.958E-02    0.691E-02
DAV:   9    -0.136799205210E+04    0.29146E-04   -0.52815E-04  2560   0.487E-02    0.482E-02
DAV:  10    -0.136799205920E+04   -0.70998E-05   -0.35962E-04  2600   0.341E-02    0.312E-02
DAV:  11    -0.136799205467E+04    0.45324E-05   -0.13880E-04  2480   0.248E-02    0.150E-02
DAV:  12    -0.136799205545E+04   -0.77461E-06   -0.46735E-05  2336   0.156E-02    0.135E-02
DAV:  13    -0.136799205449E+04    0.95772E-06   -0.31711E-05  2136   0.978E-03    0.697E-03
DAV:  14    -0.136799205443E+04    0.55443E-07   -0.77019E-06  1640   0.576E-03
   7 F= -.13679921E+04 E0= -.13679921E+04  d E =-.101935E+01
 BRION: g(F)=  0.325E+00 g(S)=  0.000E+00 retain N=  6 mean eig= 3.31
 eig:   6.495  6.495  2.243  2.243  1.177  1.177
 bond charge predicted
       N       E                     dE             d eps       ncg     rms          rms(c)
DAV:   1    -0.136820391172E+04   -0.21186E+00   -0.10651E+02  1376   0.147E+01    0.180E+00
DAV:   2    -0.136874897227E+04   -0.54506E+00   -0.57859E+00  2288   0.577E+00    0.883E-01
DAV:   3    -0.136878246357E+04   -0.33491E-01   -0.46668E-01  2576   0.114E+00    0.718E-01
DAV:   4    -0.136877605983E+04    0.64037E-02   -0.49379E-02  2616   0.512E-01    0.484E-01
DAV:   5    -0.136877098562E+04    0.50742E-02   -0.23409E-02  2376   0.317E-01    0.193E-01
DAV:   6    -0.136877174196E+04   -0.75634E-03   -0.13515E-02  2488   0.223E-01    0.165E-01
DAV:   7    -0.136877166875E+04    0.73212E-04   -0.58136E-03  2456   0.145E-01    0.115E-01
DAV:   8    -0.136877163470E+04    0.34047E-04   -0.23024E-03  2600   0.923E-02    0.623E-02
DAV:   9    -0.136877162001E+04    0.14697E-04   -0.46144E-04  2536   0.454E-02    0.453E-02
DAV:  10    -0.136877162473E+04   -0.47203E-05   -0.23422E-04  2584   0.288E-02    0.264E-02
DAV:  11    -0.136877162361E+04    0.11196E-05   -0.90955E-05  2480   0.206E-02    0.144E-02
DAV:  12    -0.136877162396E+04   -0.34677E-06   -0.37553E-05  2344   0.135E-02    0.127E-02
DAV:  13    -0.136877162288E+04    0.10786E-05   -0.25116E-05  2016   0.888E-03    0.610E-03
DAV:  14    -0.136877162261E+04    0.26378E-06   -0.37085E-06  1184   0.568E-03
   8 F= -.13687716E+04 E0= -.13687716E+04  d E =-.779568E+00
 BRION: g(F)=  0.239E+00 g(S)=  0.000E+00 retain N=  4 mean eig= 4.98
 eig:   7.759  7.759  2.205  2.205
 bond charge predicted
       N       E                     dE             d eps       ncg     rms          rms(c)
DAV:   1    -0.136891770606E+04   -0.14608E+00   -0.90368E+01  1384   0.135E+01    0.157E+00
DAV:   2    -0.136937572725E+04   -0.45802E+00   -0.48603E+00  2296   0.530E+00    0.786E-01
DAV:   3    -0.136940439973E+04   -0.28672E-01   -0.39360E-01  2576   0.102E+00    0.633E-01
DAV:   4    -0.136939948378E+04    0.49159E-02   -0.38364E-02  2616   0.455E-01    0.440E-01
DAV:   5    -0.136939498546E+04    0.44983E-02   -0.17221E-02  2400   0.268E-01    0.181E-01
DAV:   6    -0.136939531525E+04   -0.32979E-03   -0.10914E-02  2392   0.199E-01    0.135E-01
DAV:   7    -0.136939534855E+04   -0.33297E-04   -0.52410E-03  2424   0.136E-01    0.102E-01
DAV:   8    -0.136939533524E+04    0.13313E-04   -0.18381E-03  2600   0.829E-02    0.624E-02
DAV:   9    -0.136939531000E+04    0.25235E-04   -0.46747E-04  2536   0.440E-02    0.425E-02
DAV:  10    -0.136939531547E+04   -0.54642E-05   -0.21342E-04  2560   0.267E-02    0.267E-02
DAV:  11    -0.136939531561E+04   -0.14105E-06   -0.85237E-05  2424   0.193E-02    0.170E-02
DAV:  12    -0.136939531315E+04    0.24536E-05   -0.41524E-05  2280   0.143E-02    0.128E-02
DAV:  13    -0.136939531264E+04    0.51667E-06   -0.30114E-05  2152   0.960E-03    0.670E-03
DAV:  14    -0.136939531248E+04    0.15981E-06   -0.69068E-06  1584   0.564E-03
   9 F= -.13693953E+04 E0= -.13693953E+04  d E =-.623690E+00
 BRION: g(F)=  0.188E+00 g(S)=  0.000E+00 retain N=  2 mean eig= 4.76
 eig:   4.757  4.757
 bond charge predicted
       N       E                     dE             d eps       ncg     rms          rms(c)
DAV:   1    -0.136953172525E+04   -0.13641E+00   -0.62597E+01  1384   0.113E+01    0.130E+00
DAV:   2    -0.136985191124E+04   -0.32019E+00   -0.33989E+00  2296   0.443E+00    0.652E-01
DAV:   3    -0.136987217019E+04   -0.20259E-01   -0.27624E-01  2576   0.860E-01    0.524E-01
DAV:   4    -0.136986883101E+04    0.33392E-02   -0.26789E-02  2608   0.382E-01    0.369E-01
DAV:   5    -0.136986549217E+04    0.33388E-02   -0.11795E-02  2400   0.225E-01    0.151E-01
DAV:   6    -0.136986566322E+04   -0.17105E-03   -0.79665E-03  2384   0.170E-01    0.108E-01
DAV:   7    -0.136986573188E+04   -0.68658E-04   -0.38092E-03  2408   0.115E-01    0.835E-02
DAV:   8    -0.136986572004E+04    0.11846E-04   -0.11836E-03  2608   0.675E-02    0.505E-02
DAV:   9    -0.136986570546E+04    0.14574E-04   -0.34550E-04  2560   0.373E-02    0.339E-02
DAV:  10    -0.136986571187E+04   -0.64092E-05   -0.14366E-04  2576   0.226E-02    0.235E-02
DAV:  11    -0.136986571112E+04    0.74577E-06   -0.67023E-05  2392   0.168E-02    0.147E-02
DAV:  12    -0.136986570970E+04    0.14216E-05   -0.33203E-05  2264   0.126E-02    0.117E-02
DAV:  13    -0.136986570892E+04    0.77923E-06   -0.20183E-05  2008   0.821E-03    0.585E-03
DAV:  14    -0.136986570875E+04    0.17229E-06   -0.63902E-06  1552   0.567E-03
  10 F= -.13698657E+04 E0= -.13698657E+04  d E =-.470396E+00
 BRION: g(F)=  0.158E+00 g(S)=  0.000E+00 retain N=  2 mean eig= 5.08
 eig:   5.076  5.076
 bond charge predicted
       N       E                     dE             d eps       ncg     rms          rms(c)
DAV:   1    -0.136998031999E+04   -0.11461E+00   -0.52684E+01  1384   0.104E+01    0.118E+00
DAV:   2    -0.137025163873E+04   -0.27132E+00   -0.28784E+00  2304   0.409E+00    0.595E-01
DAV:   3    -0.137026882405E+04   -0.17185E-01   -0.23294E-01  2568   0.791E-01    0.481E-01
DAV:   4    -0.137026624464E+04    0.25794E-02   -0.22287E-02  2608   0.347E-01    0.347E-01
DAV:   5    -0.137026335591E+04    0.28887E-02   -0.95561E-03  2400   0.198E-01    0.147E-01
DAV:   6    -0.137026338447E+04   -0.28559E-04   -0.65733E-03  2320   0.151E-01    0.940E-02
DAV:   7    -0.137026348216E+04   -0.97691E-04   -0.34694E-03  2472   0.106E-01    0.795E-02
DAV:   8    -0.137026345954E+04    0.22618E-04   -0.95887E-04  2592   0.635E-02    0.524E-02
DAV:   9    -0.137026344224E+04    0.17306E-04   -0.33785E-04  2560   0.351E-02    0.311E-02
DAV:  10    -0.137026344931E+04   -0.70736E-05   -0.10404E-04  2576   0.201E-02    0.212E-02
DAV:  11    -0.137026344919E+04    0.12320E-06   -0.33141E-05  2416   0.124E-02    0.143E-02
DAV:  12    -0.137026344721E+04    0.19801E-05   -0.32792E-05  2176   0.112E-02    0.927E-03
DAV:  13    -0.137026344697E+04    0.23919E-06   -0.13164E-05  1824   0.748E-03    0.559E-03
DAV:  14    -0.137026344681E+04    0.16062E-06   -0.49675E-06  1416   0.508E-03
  11 F= -.13702634E+04 E0= -.13702634E+04  d E =-.397738E+00
 BRION: g(F)=  0.136E+00 g(S)=  0.000E+00 retain N=  2 mean eig= 5.34
 eig:   5.341  5.341
 bond charge predicted
       N       E                     dE             d eps       ncg     rms          rms(c)
DAV:   1    -0.137037807163E+04   -0.11462E+00   -0.39088E+01  1384   0.896E+00    0.102E+00
DAV:   2    -0.137058108388E+04   -0.20301E+00   -0.21513E+00  2312   0.356E+00    0.511E-01
DAV:   3    -0.137059364064E+04   -0.12557E-01   -0.17181E-01  2576   0.675E-01    0.414E-01
DAV:   4    -0.137059164613E+04    0.19945E-02   -0.16022E-02  2616   0.298E-01    0.303E-01
DAV:   5    -0.137058926589E+04    0.23802E-02   -0.72883E-03  2376   0.174E-01    0.130E-01
DAV:   6    -0.137058924378E+04    0.22116E-04   -0.54145E-03  2304   0.139E-01    0.853E-02
DAV:   7    -0.137058933529E+04   -0.91515E-04   -0.30929E-03  2448   0.987E-02    0.748E-02
DAV:   8    -0.137058930710E+04    0.28193E-04   -0.74135E-04  2600   0.575E-02    0.484E-02
DAV:   9    -0.137058929030E+04    0.16797E-04   -0.29615E-04  2536   0.321E-02    0.268E-02
DAV:  10    -0.137058929722E+04   -0.69165E-05   -0.97101E-05  2552   0.191E-02    0.188E-02
DAV:  11    -0.137058929766E+04   -0.44258E-06   -0.32397E-05  2400   0.122E-02    0.134E-02
DAV:  12    -0.137058929591E+04    0.17493E-05   -0.30697E-05  2192   0.112E-02    0.990E-03
DAV:  13    -0.137058929536E+04    0.54920E-06   -0.12892E-05  1760   0.750E-03    0.626E-03
DAV:  14    -0.137058929505E+04    0.30998E-06   -0.54414E-06  1376   0.532E-03
  12 F= -.13705893E+04 E0= -.13705893E+04  d E =-.325848E+00
 BRION: g(F)=  0.122E+00 g(S)=  0.000E+00 retain N=  2 mean eig= 5.26
 eig:   5.263  5.263
 bond charge predicted
       N       E                     dE             d eps       ncg     rms          rms(c)
DAV:   1    -0.137070726489E+04   -0.11797E+00   -0.28089E+01  1376   0.755E+00    0.861E-01
DAV:   2    -0.137085474384E+04   -0.14748E+00   -0.15580E+00  2296   0.302E+00    0.433E-01
DAV:   3    -0.137086332740E+04   -0.85836E-02   -0.11982E-01  2584   0.577E-01    0.352E-01
DAV:   4    -0.137086178012E+04    0.15473E-02   -0.11402E-02  2616   0.250E-01    0.255E-01
DAV:   5    -0.137085998160E+04    0.17985E-02   -0.52872E-03  2352   0.152E-01    0.104E-01
DAV:   6    -0.137086004210E+04   -0.60499E-04   -0.41322E-03  2352   0.119E-01    0.722E-02
DAV:   7    -0.137086008277E+04   -0.40675E-04   -0.19201E-03  2408   0.789E-02    0.606E-02
DAV:   8    -0.137086006619E+04    0.16581E-04   -0.52396E-04  2568   0.465E-02    0.352E-02
DAV:   9    -0.137086005876E+04    0.74338E-05   -0.17715E-04  2496   0.259E-02    0.212E-02
DAV:  10    -0.137086006317E+04   -0.44144E-05   -0.60624E-05  2536   0.152E-02    0.154E-02
DAV:  11    -0.137086006269E+04    0.47796E-06   -0.26837E-05  2320   0.109E-02    0.985E-03
DAV:  12    -0.137086006197E+04    0.71772E-06   -0.15021E-05  1944   0.876E-03    0.772E-03
DAV:  13    -0.137086006167E+04    0.30652E-06   -0.85787E-06  1728   0.602E-03
  13 F= -.13708601E+04 E0= -.13708601E+04  d E =-.270767E+00
 BRION: g(F)=  0.112E+00 g(S)=  0.000E+00 retain N=  2 mean eig= 4.55
 eig:   4.549  4.549
 bond charge predicted
       N       E                     dE             d eps       ncg     rms          rms(c)
DAV:   1    -0.137098133582E+04   -0.12127E+00   -0.23606E+01  1376   0.692E+00    0.790E-01
DAV:   2    -0.137110477846E+04   -0.12344E+00   -0.13053E+00  2296   0.279E+00    0.396E-01
DAV:   3    -0.137111189793E+04   -0.71195E-02   -0.10040E-01  2560   0.529E-01    0.322E-01
DAV:   4    -0.137111057067E+04    0.13273E-02   -0.99179E-03  2616   0.230E-01    0.232E-01
DAV:   5    -0.137110910331E+04    0.14674E-02   -0.46970E-03  2352   0.140E-01    0.972E-02
DAV:   6    -0.137110914342E+04   -0.40102E-04   -0.33697E-03  2336   0.110E-01    0.709E-02
DAV:   7    -0.137110916941E+04   -0.25996E-04   -0.17859E-03  2424   0.763E-02    0.594E-02
DAV:   8    -0.137110915388E+04    0.15533E-04   -0.52266E-04  2544   0.461E-02    0.372E-02
DAV:   9    -0.137110914396E+04    0.99152E-05   -0.16115E-04  2536   0.246E-02    0.219E-02
DAV:  10    -0.137110914665E+04   -0.26857E-05   -0.57363E-05  2560   0.144E-02    0.140E-02
DAV:  11    -0.137110914716E+04   -0.51176E-06   -0.18394E-05  2104   0.941E-03    0.102E-02
DAV:  12    -0.137110914599E+04    0.11699E-05   -0.15058E-05  1808   0.835E-03    0.734E-03
DAV:  13    -0.137110914579E+04    0.19802E-06   -0.85062E-06  1680   0.647E-03
  14 F= -.13711091E+04 E0= -.13711091E+04  d E =-.249084E+00
 BRION: g(F)=  0.104E+00 g(S)=  0.000E+00 retain N=  2 mean eig= 4.18
 eig:   4.176  4.176
 bond charge predicted
       N       E                     dE             d eps       ncg     rms          rms(c)
DAV:   1    -0.137123458086E+04   -0.12543E+00   -0.20547E+01  1376   0.643E+00    0.729E-01
DAV:   2    -0.137134137736E+04   -0.10680E+00   -0.11238E+00  2304   0.258E+00    0.365E-01
DAV:   3    -0.137134743873E+04   -0.60614E-02   -0.85143E-02  2568   0.485E-01    0.295E-01
DAV:   4    -0.137134630012E+04    0.11386E-02   -0.81291E-03  2616   0.209E-01    0.213E-01
DAV:   5    -0.137134495662E+04    0.13435E-02   -0.38243E-03  2352   0.134E-01    0.886E-02
DAV:   6    -0.137134500033E+04   -0.43712E-04   -0.31521E-03  2328   0.105E-01    0.634E-02
DAV:   7    -0.137134502855E+04   -0.28220E-04   -0.13997E-03  2424   0.687E-02    0.546E-02
DAV:   8    -0.137134501292E+04    0.15633E-04   -0.39700E-04  2576   0.397E-02    0.311E-02
DAV:   9    -0.137134500428E+04    0.86354E-05   -0.13503E-04  2448   0.225E-02    0.178E-02
DAV:  10    -0.137134500784E+04   -0.35589E-05   -0.54754E-05  2496   0.140E-02    0.131E-02
DAV:  11    -0.137134500707E+04    0.77658E-06   -0.19675E-05  2120   0.979E-03    0.786E-03
DAV:  12    -0.137134500674E+04    0.32746E-06   -0.10310E-05  1736   0.746E-03    0.664E-03
DAV:  13    -0.137134500631E+04    0.42388E-06   -0.49556E-06  1336   0.538E-03
  15 F= -.13713450E+04 E0= -.13713450E+04  d E =-.235861E+00
 BRION: g(F)=  0.985E-01 g(S)=  0.000E+00 retain N=  2 mean eig= 4.24
 eig:   4.244  4.244
 bond charge predicted
       N       E                     dE             d eps       ncg     rms          rms(c)
DAV:   1    -0.137147455734E+04   -0.12955E+00   -0.18639E+01  1376   0.610E+00    0.691E-01
DAV:   2    -0.137157131333E+04   -0.96756E-01   -0.10188E+00  2304   0.245E+00    0.346E-01
DAV:   3    -0.137157697910E+04   -0.56658E-02   -0.78561E-02  2568   0.463E-01    0.280E-01
DAV:   4    -0.137157598278E+04    0.99632E-03   -0.73771E-03  2616   0.199E-01    0.203E-01
DAV:   5    -0.137157484574E+04    0.11370E-02   -0.34090E-03  2336   0.124E-01    0.870E-02
DAV:   6    -0.137157486793E+04   -0.22190E-04   -0.27356E-03  2312   0.990E-02    0.626E-02
DAV:   7    -0.137157488823E+04   -0.20298E-04   -0.13834E-03  2440   0.683E-02    0.542E-02
DAV:   8    -0.137157487378E+04    0.14446E-04   -0.40842E-04  2544   0.403E-02    0.332E-02
DAV:   9    -0.137157486406E+04    0.97188E-05   -0.13178E-04  2480   0.220E-02    0.188E-02
DAV:  10    -0.137157486664E+04   -0.25719E-05   -0.53609E-05  2488   0.136E-02    0.123E-02
DAV:  11    -0.137157486683E+04   -0.18996E-06   -0.15638E-05  1960   0.886E-03    0.878E-03
DAV:  12    -0.137157486593E+04    0.89390E-06   -0.11249E-05  1672   0.771E-03    0.671E-03
DAV:  13    -0.137157486579E+04    0.14254E-06   -0.78666E-06  1672   0.589E-03
  16 F= -.13715749E+04 E0= -.13715749E+04  d E =-.229859E+00
 BRION: g(F)=  0.937E-01 g(S)=  0.000E+00 retain N=  2 mean eig= 4.38
 eig:   4.376  4.376
 bond charge predicted
       N       E                     dE             d eps       ncg     rms          rms(c)
DAV:   1    -0.137170413271E+04   -0.12927E+00   -0.17693E+01  1376   0.595E+00    0.670E-01
DAV:   2    -0.137179488858E+04   -0.90756E-01   -0.95486E-01  2296   0.237E+00    0.336E-01
DAV:   3    -0.137180028895E+04   -0.54004E-02   -0.74276E-02  2568   0.455E-01    0.269E-01
DAV:   4    -0.137179933932E+04    0.94964E-03   -0.68903E-03  2600   0.194E-01    0.192E-01
DAV:   5    -0.137179833964E+04    0.99967E-03   -0.32511E-03  2360   0.121E-01    0.807E-02
DAV:   6    -0.137179837655E+04   -0.36905E-04   -0.23709E-03  2328   0.922E-02    0.593E-02
DAV:   7    -0.137179839215E+04   -0.15605E-04   -0.11208E-03  2456   0.627E-02    0.493E-02
DAV:   8    -0.137179838108E+04    0.11071E-04   -0.35855E-04  2560   0.373E-02    0.302E-02
DAV:   9    -0.137179837354E+04    0.75415E-05   -0.10909E-04  2432   0.204E-02    0.173E-02
DAV:  10    -0.137179837572E+04   -0.21775E-05   -0.48389E-05  2416   0.129E-02    0.115E-02
DAV:  11    -0.137179837542E+04    0.30364E-06   -0.13370E-05  1896   0.871E-03    0.745E-03
DAV:  12    -0.137179837503E+04    0.38273E-06   -0.10241E-05  1672   0.708E-03    0.622E-03
DAV:  13    -0.137179837456E+04    0.47110E-06   -0.30919E-06  1104   0.534E-03
  17 F= -.13717984E+04 E0= -.13717984E+04  d E =-.223509E+00
 BRION: g(F)=  0.894E-01 g(S)=  0.000E+00 retain N=  2 mean eig= 4.43
 eig:   4.433  4.433
 bond charge predicted
       N       E                     dE             d eps       ncg     rms          rms(c)
DAV:   1    -0.137192691569E+04   -0.12854E+00   -0.17397E+01  1376   0.588E+00    0.650E-01
DAV:   2    -0.137201625684E+04   -0.89341E-01   -0.93754E-01  2304   0.233E+00    0.328E-01
DAV:   3    -0.137202166417E+04   -0.54073E-02   -0.73105E-02  2568   0.444E-01    0.262E-01
DAV:   4    -0.137202081450E+04    0.84967E-03   -0.65823E-03  2616   0.189E-01    0.190E-01
DAV:   5    -0.137201983695E+04    0.97755E-03   -0.28839E-03  2368   0.116E-01    0.843E-02
DAV:   6    -0.137201982389E+04    0.13062E-04   -0.23766E-03  2296   0.936E-02    0.557E-02
DAV:   7    -0.137201985730E+04   -0.33415E-04   -0.12465E-03  2464   0.650E-02    0.507E-02
DAV:   8    -0.137201984526E+04    0.12043E-04   -0.32728E-04  2536   0.367E-02    0.324E-02
DAV:   9    -0.137201983394E+04    0.11320E-04   -0.13077E-04  2464   0.216E-02    0.170E-02
DAV:  10    -0.137201983722E+04   -0.32757E-05   -0.57982E-05  2456   0.141E-02    0.122E-02
DAV:  11    -0.137201983681E+04    0.40603E-06   -0.16435E-05  1920   0.919E-03    0.793E-03
DAV:  12    -0.137201983614E+04    0.66691E-06   -0.10872E-05  1664   0.768E-03    0.644E-03
DAV:  13    -0.137201983596E+04    0.17970E-06   -0.73229E-06  1608   0.577E-03
  18 F= -.13720198E+04 E0= -.13720198E+04  d E =-.221461E+00
 BRION: g(F)=  0.855E-01 g(S)=  0.000E+00 retain N=  2 mean eig= 4.47
 eig:   4.469  4.469
 bond charge predicted
       N       E                     dE             d eps       ncg     rms          rms(c)
DAV:   1    -0.137214417201E+04   -0.12434E+00   -0.21643E+01  1376   0.658E+00    0.730E-01
DAV:   2    -0.137225481885E+04   -0.11065E+00   -0.11634E+00  2296   0.261E+00    0.369E-01
DAV:   3    -0.137226161800E+04   -0.67992E-02   -0.91386E-02  2560   0.497E-01    0.292E-01
DAV:   4    -0.137226057020E+04    0.10478E-02   -0.84484E-03  2608   0.214E-01    0.210E-01
DAV:   5    -0.137225947509E+04    0.10951E-02   -0.36856E-03  2384   0.128E-01    0.920E-02
DAV:   6    -0.137225948400E+04   -0.89059E-05   -0.26305E-03  2320   0.983E-02    0.626E-02
DAV:   7    -0.137225951212E+04   -0.28128E-04   -0.14324E-03  2496   0.706E-02    0.541E-02
DAV:   8    -0.137225950110E+04    0.11026E-04   -0.42720E-04  2568   0.414E-02    0.361E-02
DAV:   9    -0.137225948900E+04    0.12094E-04   -0.14554E-04  2520   0.228E-02    0.198E-02
DAV:  10    -0.137225949159E+04   -0.25820E-05   -0.59665E-05  2504   0.144E-02    0.128E-02
DAV:  11    -0.137225949143E+04    0.16131E-06   -0.14180E-05  1896   0.876E-03    0.867E-03
DAV:  12    -0.137225949050E+04    0.92610E-06   -0.12482E-05  1688   0.796E-03    0.641E-03
DAV:  13    -0.137225949049E+04    0.74942E-08   -0.77687E-06  1696   0.589E-03
  19 F= -.13722595E+04 E0= -.13722595E+04  d E =-.239655E+00
 BRION: g(F)=  0.807E-01 g(S)=  0.000E+00 retain N=  2 mean eig= 5.07
 eig:   5.071  5.071
 bond charge predicted
       N       E                     dE             d eps       ncg     rms          rms(c)
DAV:   1    -0.137237023215E+04   -0.11074E+00   -0.30104E+01  1376   0.774E+00    0.842E-01
DAV:   2    -0.137252349602E+04   -0.15326E+00   -0.16059E+00  2304   0.305E+00    0.429E-01
DAV:   3    -0.137253277683E+04   -0.92808E-02   -0.12457E-01  2568   0.579E-01    0.338E-01
DAV:   4    -0.137253135077E+04    0.14261E-02   -0.11173E-02  2616   0.246E-01    0.245E-01
DAV:   5    -0.137252977274E+04    0.15780E-02   -0.46748E-03  2384   0.148E-01    0.110E-01
DAV:   6    -0.137252972641E+04    0.46329E-04   -0.37368E-03  2280   0.117E-01    0.671E-02
DAV:   7    -0.137252979764E+04   -0.71228E-04   -0.20364E-03  2472   0.829E-02    0.627E-02
DAV:   8    -0.137252978110E+04    0.16544E-04   -0.49824E-04  2568   0.464E-02    0.425E-02
DAV:   9    -0.137252976117E+04    0.19927E-04   -0.22394E-04  2496   0.279E-02    0.213E-02
DAV:  10    -0.137252976664E+04   -0.54684E-05   -0.92588E-05  2472   0.182E-02    0.152E-02
DAV:  11    -0.137252976616E+04    0.48381E-06   -0.24055E-05  2272   0.109E-02    0.954E-03
DAV:  12    -0.137252976519E+04    0.96866E-06   -0.18262E-05  1984   0.900E-03    0.769E-03
DAV:  13    -0.137252976501E+04    0.17651E-06   -0.10257E-05  1760   0.644E-03    0.543E-03
DAV:  14    -0.137252976456E+04    0.44941E-06   -0.16738E-06   976   0.442E-03
  20 F= -.13725298E+04 E0= -.13725298E+04  d E =-.270274E+00
 BRION: g(F)=  0.749E-01 g(S)=  0.000E+00 retain N=  2 mean eig= 6.46
 eig:   6.462  6.462
