 running on  160 total cores
 distrk:  each k-point on  160 cores,    1 groups
 distr:  one band on   20 cores,    8 groups
 using from now: INCAR     
 vasp.5.4.4.18Apr17-6-g9f103f2a35 (build May 01 2020 14:22:42) gamma-only       
  
 POSCAR found type information on POSCAR  O  La Zr Li Al
 POSCAR found :  5 types and     192 ions
 scaLAPACK will be used
 LDA part: xc-table for Pade appr. of Perdew
 POSCAR, INCAR and KPOINTS ok, starting setup
 FFT: planning ...
 WAVECAR not read
 WARNING: random wavefunctions but no delay for mixing, default for NELMDL
 entering main loop
       N       E                     dE             d eps       ncg     rms          rms(c)
DAV:   1     0.252146354338E+05    0.25215E+05   -0.42204E+05  1592   0.253E+03
DAV:   2     0.943899542390E+04   -0.15776E+05   -0.14657E+05  1464   0.702E+02
DAV:   3     0.269998395445E+04   -0.67390E+04   -0.61363E+04  1512   0.356E+02
DAV:   4    -0.379128095739E+03   -0.30791E+04   -0.28712E+04  2048   0.224E+02
DAV:   5    -0.143389233804E+04   -0.10548E+04   -0.10217E+04  2528   0.141E+02    0.117E+02
DAV:   6    -0.131488161104E+04    0.11901E+03   -0.14204E+03  2416   0.651E+01    0.504E+01
DAV:   7    -0.133720157100E+04   -0.22320E+02   -0.37932E+02  2552   0.330E+01    0.246E+01
DAV:   8    -0.134888624516E+04   -0.11685E+02   -0.29033E+02  2520   0.273E+01    0.282E+01
DAV:   9    -0.133910556772E+04    0.97807E+01   -0.69314E+01  2432   0.157E+01    0.767E+00
DAV:  10    -0.134058669142E+04   -0.14811E+01   -0.15408E+01  2592   0.880E+00    0.867E+00
DAV:  11    -0.134051363359E+04    0.73058E-01   -0.87200E+00  2624   0.488E+00    0.411E+00
DAV:  12    -0.134039008278E+04    0.12355E+00   -0.30045E+00  2600   0.390E+00    0.279E+00
DAV:  13    -0.134048526152E+04   -0.95179E-01   -0.93147E-01  2584   0.185E+00    0.227E+00
DAV:  14    -0.134045162596E+04    0.33636E-01   -0.38766E-01  2592   0.121E+00    0.121E+00
DAV:  15    -0.134046325949E+04   -0.11634E-01   -0.12714E-01  2568   0.700E-01    0.111E+00
DAV:  16    -0.134046176285E+04    0.14966E-02   -0.42565E-02  2616   0.400E-01    0.701E-01
DAV:  17    -0.134045835955E+04    0.34033E-02   -0.25948E-02  2496   0.320E-01    0.325E-01
DAV:  18    -0.134045874541E+04   -0.38587E-03   -0.51938E-03  2560   0.154E-01    0.198E-01
DAV:  19    -0.134045847925E+04    0.26616E-03   -0.31178E-03  2480   0.103E-01    0.137E-01
DAV:  20    -0.134045852286E+04   -0.43602E-04   -0.10278E-03  2536   0.628E-02    0.375E-02
DAV:  21    -0.134045852623E+04   -0.33784E-05   -0.22239E-04  2560   0.328E-02    0.365E-02
DAV:  22    -0.134045854043E+04   -0.14195E-04   -0.64778E-05  2472   0.178E-02    0.108E-02
DAV:  23    -0.134045854151E+04   -0.10782E-05   -0.20935E-05  1656   0.893E-03    0.764E-03
DAV:  24    -0.134045854577E+04   -0.42627E-05   -0.10937E-05  1536   0.823E-03    0.374E-03
DAV:  25    -0.134045854507E+04    0.69565E-06   -0.44517E-06  1128   0.530E-03
   1 F= -.13404585E+04 E0= -.13404585E+04  d E =-.134046E+04
 BRION: g(F)=  0.361E+02 g(S)=  0.000E+00
 bond charge predicted
       N       E                     dE             d eps       ncg     rms          rms(c)
DAV:   1    -0.133472440426E+04    0.57341E+01   -0.37381E+03  1608   0.925E+01    0.150E+01
DAV:   2    -0.135926871768E+04   -0.24544E+02   -0.28784E+02  2584   0.404E+01    0.906E+00
DAV:   3    -0.135932024120E+04   -0.51524E-01   -0.18201E+01  2616   0.107E+01    0.674E+00
DAV:   4    -0.135863539548E+04    0.68485E+00   -0.35858E+00  2616   0.404E+00    0.400E+00
DAV:   5    -0.135831037749E+04    0.32502E+00   -0.11939E+00  2280   0.278E+00    0.206E+00
DAV:   6    -0.135825716331E+04    0.53214E-01   -0.12281E+00  2304   0.240E+00    0.106E+00
DAV:   7    -0.135830159352E+04   -0.44430E-01   -0.71754E-01  2272   0.150E+00    0.105E+00
DAV:   8    -0.135830082583E+04    0.76769E-03   -0.10904E-01  2616   0.639E-01    0.769E-01
DAV:   9    -0.135829642283E+04    0.44030E-02   -0.83420E-02  2600   0.546E-01    0.405E-01
DAV:  10    -0.135829786980E+04   -0.14470E-02   -0.30388E-02  2288   0.349E-01    0.372E-01
DAV:  11    -0.135829594468E+04    0.19251E-02   -0.13344E-02  2472   0.251E-01    0.192E-01
DAV:  12    -0.135829682110E+04   -0.87642E-03   -0.17889E-02  2304   0.205E-01    0.192E-01
DAV:  13    -0.135829631733E+04    0.50377E-03   -0.28879E-03  2520   0.113E-01    0.852E-02
DAV:  14    -0.135829631855E+04   -0.12237E-05   -0.10524E-03  2576   0.576E-02    0.357E-02
DAV:  15    -0.135829633479E+04   -0.16242E-04   -0.15832E-04  2472   0.257E-02    0.236E-02
DAV:  16    -0.135829633134E+04    0.34539E-05   -0.77130E-05  2504   0.160E-02    0.135E-02
DAV:  17    -0.135829633137E+04   -0.31461E-07   -0.25117E-05  2280   0.103E-02    0.873E-03
DAV:  18    -0.135829633103E+04    0.34559E-06   -0.52902E-06  1352   0.568E-03
   2 F= -.13582963E+04 E0= -.13582963E+04  d E =-.178378E+02
 BRION: g(F)=  0.103E+02 g(S)=  0.000E+00 retain N=  1 mean eig= 0.78
 eig:   0.777
 bond charge predicted
       N       E                     dE             d eps       ncg     rms          rms(c)
DAV:   1    -0.135593118941E+04    0.23651E+01   -0.10511E+03  1440   0.466E+01    0.822E+00
DAV:   2    -0.136227877408E+04   -0.63476E+01   -0.78272E+01  2544   0.208E+01    0.617E+00
DAV:   3    -0.136255298106E+04   -0.27421E+00   -0.62708E+00  2576   0.602E+00    0.493E+00
DAV:   4    -0.136237876524E+04    0.17422E+00   -0.14429E+00  2608   0.244E+00    0.303E+00
DAV:   5    -0.136231154080E+04    0.67224E-01   -0.76799E-01  2144   0.191E+00    0.189E+00
DAV:   6    -0.136228300533E+04    0.28535E-01   -0.47235E-01  2504   0.138E+00    0.138E+00
DAV:   7    -0.136227671097E+04    0.62944E-02   -0.32812E-01  2352   0.995E-01    0.609E-01
DAV:   8    -0.136227787368E+04   -0.11627E-02   -0.46678E-02  2528   0.436E-01    0.392E-01
DAV:   9    -0.136227752724E+04    0.34644E-03   -0.12553E-02  2512   0.238E-01    0.235E-01
DAV:  10    -0.136227784655E+04   -0.31931E-03   -0.59462E-03  2272   0.157E-01    0.204E-01
DAV:  11    -0.136227741355E+04    0.43299E-03   -0.50813E-03  2416   0.118E-01    0.679E-02
DAV:  12    -0.136227744636E+04   -0.32803E-04   -0.96179E-04  2552   0.664E-02    0.481E-02
DAV:  13    -0.136227744403E+04    0.23269E-05   -0.37144E-04  2584   0.375E-02    0.267E-02
DAV:  14    -0.136227744841E+04   -0.43808E-05   -0.18967E-04  2504   0.233E-02    0.143E-02
DAV:  15    -0.136227744981E+04   -0.13967E-05   -0.37238E-05  2616   0.133E-02    0.681E-03
DAV:  16    -0.136227744946E+04    0.34879E-06   -0.45215E-06  1176   0.648E-03
   3 F= -.13622774E+04 E0= -.13622774E+04  d E =-.398112E+01
 BRION: g(F)=  0.346E+01 g(S)=  0.000E+00 retain N=  2 mean eig= 0.42
 eig:   0.424  0.424
 bond charge predicted
       N       E                     dE             d eps       ncg     rms          rms(c)
DAV:   1    -0.136323020290E+04   -0.95275E+00   -0.30738E+02  1368   0.258E+01    0.449E+00
DAV:   2    -0.136472899398E+04   -0.14988E+01   -0.17017E+01  2304   0.101E+01    0.200E+00
DAV:   3    -0.136478924543E+04   -0.60251E-01   -0.15008E+00  2608   0.226E+00    0.176E+00
DAV:   4    -0.136474608706E+04    0.43158E-01   -0.25975E-01  2592   0.115E+00    0.102E+00
DAV:   5    -0.136472690851E+04    0.19179E-01   -0.14276E-01  2224   0.781E-01    0.540E-01
DAV:   6    -0.136472834479E+04   -0.14363E-02   -0.76245E-02  2560   0.572E-01    0.521E-01
DAV:   7    -0.136472683813E+04    0.15067E-02   -0.54113E-02  2344   0.401E-01    0.315E-01
DAV:   8    -0.136472656866E+04    0.26947E-03   -0.13048E-02  2560   0.219E-01    0.157E-01
DAV:   9    -0.136472638381E+04    0.18484E-03   -0.26772E-03  2520   0.114E-01    0.106E-01
DAV:  10    -0.136472663915E+04   -0.25534E-03   -0.36231E-03  2264   0.949E-02    0.118E-01
DAV:  11    -0.136472638991E+04    0.24923E-03   -0.12830E-03  2504   0.772E-02    0.405E-02
DAV:  12    -0.136472644072E+04   -0.50803E-04   -0.84205E-04  2528   0.501E-02    0.446E-02
DAV:  13    -0.136472641198E+04    0.28742E-04   -0.27227E-04  2432   0.321E-02    0.109E-02
DAV:  14    -0.136472641634E+04   -0.43646E-05   -0.40256E-05  2176   0.152E-02    0.709E-03
DAV:  15    -0.136472641760E+04   -0.12586E-05   -0.11520E-05  1760   0.665E-03    0.633E-03
DAV:  16    -0.136472641718E+04    0.41547E-06   -0.19788E-06  1056   0.530E-03
   4 F= -.13647264E+04 E0= -.13647264E+04  d E =-.244897E+01
 BRION: g(F)=  0.113E+01 g(S)=  0.000E+00 retain N=  3 mean eig= 1.34
 eig:   0.827  1.604  1.604
 bond charge predicted
       N       E                     dE             d eps       ncg     rms          rms(c)
DAV:   1    -0.136534552373E+04   -0.61911E+00   -0.16084E+02  1360   0.185E+01    0.230E+00
DAV:   2    -0.136614450534E+04   -0.79898E+00   -0.85235E+00  2296   0.701E+00    0.116E+00
DAV:   3    -0.136618936095E+04   -0.44856E-01   -0.67826E-01  2568   0.144E+00    0.958E-01
DAV:   4    -0.136617903001E+04    0.10331E-01   -0.78838E-02  2600   0.648E-01    0.663E-01
DAV:   5    -0.136617088890E+04    0.81411E-02   -0.42427E-02  2368   0.401E-01    0.293E-01
DAV:   6    -0.136617151221E+04   -0.62331E-03   -0.22810E-02  2384   0.310E-01    0.255E-01
DAV:   7    -0.136617127687E+04    0.23534E-03   -0.16018E-02  2392   0.232E-01    0.175E-01
DAV:   8    -0.136617124902E+04    0.27852E-04   -0.57124E-03  2568   0.146E-01    0.118E-01
DAV:   9    -0.136617114571E+04    0.10331E-03   -0.11793E-03  2600   0.717E-02    0.734E-02
DAV:  10    -0.136617114595E+04   -0.24708E-06   -0.60748E-04  2608   0.432E-02    0.374E-02
DAV:  11    -0.136617115903E+04   -0.13079E-04   -0.18062E-04  2488   0.303E-02    0.259E-02
DAV:  12    -0.136617115323E+04    0.58068E-05   -0.96274E-05  2480   0.226E-02    0.210E-02
DAV:  13    -0.136617115045E+04    0.27723E-05   -0.61456E-05  2336   0.142E-02    0.114E-02
DAV:  14    -0.136617115004E+04    0.41175E-06   -0.22370E-05  2024   0.853E-03    0.403E-03
DAV:  15    -0.136617115020E+04   -0.16084E-06   -0.15158E-06  1000   0.463E-03
   5 F= -.13661712E+04 E0= -.13661712E+04  d E =-.144473E+01
 BRION: g(F)=  0.594E+00 g(S)=  0.000E+00 retain N=  4 mean eig= 1.95
 eig:   2.737  2.737  1.169  1.169
 bond charge predicted
       N       E                     dE             d eps       ncg     rms          rms(c)
DAV:   1    -0.136657133648E+04   -0.40019E+00   -0.90442E+01  1368   0.138E+01    0.170E+00
DAV:   2    -0.136702887038E+04   -0.45753E+00   -0.48823E+00  2296   0.522E+00    0.849E-01
DAV:   3    -0.136705784232E+04   -0.28972E-01   -0.40763E-01  2568   0.110E+00    0.694E-01
DAV:   4    -0.136705257017E+04    0.52722E-02   -0.44012E-02  2600   0.493E-01    0.487E-01
DAV:   5    -0.136704798212E+04    0.45881E-02   -0.24356E-02  2344   0.307E-01    0.215E-01
DAV:   6    -0.136704841712E+04   -0.43501E-03   -0.14000E-02  2408   0.241E-01    0.195E-01
DAV:   7    -0.136704827613E+04    0.14099E-03   -0.90614E-03  2376   0.175E-01    0.135E-01
DAV:   8    -0.136704824258E+04    0.33545E-04   -0.32717E-03  2584   0.109E-01    0.821E-02
DAV:   9    -0.136704819374E+04    0.48844E-04   -0.62731E-04  2584   0.528E-02    0.524E-02
DAV:  10    -0.136704819578E+04   -0.20430E-05   -0.37154E-04  2608   0.332E-02    0.284E-02
DAV:  11    -0.136704820062E+04   -0.48331E-05   -0.12718E-04  2440   0.245E-02    0.197E-02
DAV:  12    -0.136704819720E+04    0.34165E-05   -0.52070E-05  2384   0.174E-02    0.166E-02
DAV:  13    -0.136704819551E+04    0.16911E-05   -0.45388E-05  2160   0.116E-02    0.856E-03
DAV:  14    -0.136704819524E+04    0.26438E-06   -0.12213E-05  1760   0.699E-03    0.306E-03
DAV:  15    -0.136704819544E+04   -0.19740E-06   -0.13553E-06   992   0.416E-03
   6 F= -.13670482E+04 E0= -.13670482E+04  d E =-.877045E+00
 BRION: g(F)=  0.378E+00 g(S)=  0.000E+00 retain N=  5 mean eig= 2.62
 eig:   4.531  4.531  1.520  1.520  0.977
 bond charge predicted
       N       E                     dE             d eps       ncg     rms          rms(c)
DAV:   1    -0.136726235668E+04   -0.21416E+00   -0.10568E+02  1376   0.149E+01    0.185E+00
DAV:   2    -0.136780194550E+04   -0.53959E+00   -0.57419E+00  2312   0.577E+00    0.910E-01
DAV:   3    -0.136783535605E+04   -0.33411E-01   -0.46653E-01  2568   0.114E+00    0.730E-01
DAV:   4    -0.136782895071E+04    0.64053E-02   -0.49792E-02  2608   0.531E-01    0.490E-01
DAV:   5    -0.136782477933E+04    0.41714E-02   -0.26559E-02  2376   0.322E-01    0.207E-01
DAV:   6    -0.136782558509E+04   -0.80576E-03   -0.12909E-02  2528   0.225E-01    0.183E-01
DAV:   7    -0.136782539825E+04    0.18683E-03   -0.66009E-03  2496   0.155E-01    0.119E-01
DAV:   8    -0.136782538420E+04    0.14053E-04   -0.28271E-03  2584   0.101E-01    0.699E-02
DAV:   9    -0.136782535498E+04    0.29216E-04   -0.44103E-04  2544   0.469E-02    0.487E-02
DAV:  10    -0.136782535612E+04   -0.11358E-05   -0.31190E-04  2544   0.308E-02    0.245E-02
DAV:  11    -0.136782535727E+04   -0.11478E-05   -0.80397E-05  2480   0.202E-02    0.135E-02
DAV:  12    -0.136782535821E+04   -0.94125E-06   -0.34601E-05  2392   0.129E-02    0.120E-02
DAV:  13    -0.136782535723E+04    0.97654E-06   -0.21886E-05  1984   0.874E-03    0.604E-03
DAV:  14    -0.136782535706E+04    0.17248E-06   -0.35402E-06  1184   0.571E-03
   7 F= -.13678254E+04 E0= -.13678254E+04  d E =-.777162E+00
 BRION: g(F)=  0.241E+00 g(S)=  0.000E+00 retain N=  6 mean eig= 3.62
 eig:   7.472  7.472  2.187  2.187  1.189  1.189
 bond charge predicted
       N       E                     dE             d eps       ncg     rms          rms(c)
DAV:   1    -0.136798082142E+04   -0.15546E+00   -0.73681E+01  1376   0.123E+01    0.151E+00
DAV:   2    -0.136834818129E+04   -0.36736E+00   -0.38975E+00  2312   0.470E+00    0.728E-01
DAV:   3    -0.136836963557E+04   -0.21454E-01   -0.30751E-01  2584   0.929E-01    0.575E-01
DAV:   4    -0.136836464402E+04    0.49915E-02   -0.31596E-02  2576   0.426E-01    0.374E-01
DAV:   5    -0.136836168383E+04    0.29602E-02   -0.16624E-02  2344   0.275E-01    0.146E-01
DAV:   6    -0.136836233947E+04   -0.65564E-03   -0.93602E-03  2536   0.187E-01    0.140E-01
DAV:   7    -0.136836227537E+04    0.64103E-04   -0.31624E-03  2552   0.111E-01    0.979E-02
DAV:   8    -0.136836222288E+04    0.52486E-04   -0.14204E-03  2584   0.701E-02    0.457E-02
DAV:   9    -0.136836221305E+04    0.98301E-05   -0.21522E-04  2512   0.337E-02    0.328E-02
DAV:  10    -0.136836221458E+04   -0.15305E-05   -0.14639E-04  2432   0.235E-02    0.194E-02
DAV:  11    -0.136836221384E+04    0.74945E-06   -0.41197E-05  2424   0.150E-02    0.972E-03
DAV:  12    -0.136836221588E+04   -0.20464E-05   -0.28831E-05  2296   0.937E-03    0.101E-02
DAV:  13    -0.136836221458E+04    0.13063E-05   -0.70111E-06  1488   0.626E-03    0.478E-03
DAV:  14    -0.136836221488E+04   -0.30700E-06   -0.69266E-06  1448   0.623E-03
   8 F= -.13683622E+04 E0= -.13683622E+04  d E =-.536858E+00
 BRION: g(F)=  0.175E+00 g(S)=  0.000E+00 retain N=  5 mean eig= 4.33
 eig:   7.990  7.990  1.131  2.265  2.265
 bond charge predicted
       N       E                     dE             d eps       ncg     rms          rms(c)
DAV:   1    -0.136849826836E+04   -0.13605E+00   -0.49199E+01  1376   0.101E+01    0.121E+00
DAV:   2    -0.136875332368E+04   -0.25506E+00   -0.27275E+00  2312   0.402E+00    0.595E-01
DAV:   3    -0.136876932011E+04   -0.15996E-01   -0.21750E-01  2584   0.781E-01    0.474E-01
DAV:   4    -0.136876664574E+04    0.26744E-02   -0.20720E-02  2592   0.349E-01    0.329E-01
DAV:   5    -0.136876452671E+04    0.21190E-02   -0.11854E-02  2336   0.216E-01    0.127E-01
DAV:   6    -0.136876491454E+04   -0.38783E-03   -0.57882E-03  2528   0.145E-01    0.117E-01
DAV:   7    -0.136876486716E+04    0.47375E-04   -0.24517E-03  2568   0.940E-02    0.732E-02
DAV:   8    -0.136876484939E+04    0.17775E-04   -0.94712E-04  2576   0.601E-02    0.394E-02
DAV:   9    -0.136876484480E+04    0.45930E-05   -0.14970E-04  2544   0.281E-02    0.284E-02
DAV:  10    -0.136876484670E+04   -0.19016E-05   -0.95946E-05  2552   0.180E-02    0.125E-02
DAV:  11    -0.136876484739E+04   -0.69471E-06   -0.21401E-05  2320   0.110E-02    0.642E-03
DAV:  12    -0.136876484802E+04   -0.62642E-06   -0.85906E-06  1728   0.665E-03
   9 F= -.13687648E+04 E0= -.13687648E+04  d E =-.402633E+00
 BRION: g(F)=  0.142E+00 g(S)=  0.000E+00 retain N=  3 mean eig= 5.51
 eig:   7.179  7.179  2.168
 bond charge predicted
       N       E                     dE             d eps       ncg     rms          rms(c)
DAV:   1    -0.136890558394E+04   -0.14074E+00   -0.33623E+01  1384   0.840E+00    0.976E-01
DAV:   2    -0.136908324762E+04   -0.17766E+00   -0.18959E+00  2312   0.336E+00    0.484E-01
DAV:   3    -0.136909460639E+04   -0.11359E-01   -0.15194E-01  2584   0.659E-01    0.390E-01
DAV:   4    -0.136909293436E+04    0.16720E-02   -0.13880E-02  2600   0.288E-01    0.285E-01
DAV:   5    -0.136909104131E+04    0.18930E-02   -0.77654E-03  2312   0.184E-01    0.111E-01
DAV:   6    -0.136909130214E+04   -0.26083E-03   -0.52724E-03  2440   0.137E-01    0.999E-02
DAV:   7    -0.136909127716E+04    0.24986E-04   -0.19786E-03  2504   0.853E-02    0.690E-02
DAV:   8    -0.136909125986E+04    0.17293E-04   -0.79618E-04  2544   0.535E-02    0.344E-02
DAV:   9    -0.136909125343E+04    0.64364E-05   -0.14473E-04  2288   0.264E-02    0.240E-02
DAV:  10    -0.136909125439E+04   -0.96622E-06   -0.52713E-05  2448   0.147E-02    0.125E-02
DAV:  11    -0.136909125480E+04   -0.40491E-06   -0.16875E-05  2224   0.933E-03    0.643E-03
DAV:  12    -0.136909125512E+04   -0.32429E-06   -0.70153E-06  1584   0.630E-03
  10 F= -.13690913E+04 E0= -.13690913E+04  d E =-.326407E+00
 BRION: g(F)=  0.126E+00 g(S)=  0.000E+00 retain N=  3 mean eig= 5.82
 eig:   7.599  7.599  2.274
 bond charge predicted
       N       E                     dE             d eps       ncg     rms          rms(c)
DAV:   1    -0.136922446913E+04   -0.13321E+00   -0.26993E+01  1368   0.754E+00    0.886E-01
DAV:   2    -0.136936977406E+04   -0.14530E+00   -0.15529E+00  2304   0.305E+00    0.437E-01
DAV:   3    -0.136937950334E+04   -0.97293E-02   -0.12753E-01  2584   0.593E-01    0.355E-01
DAV:   4    -0.136937822909E+04    0.12742E-02   -0.11416E-02  2600   0.263E-01    0.264E-01
DAV:   5    -0.136937661125E+04    0.16178E-02   -0.62591E-03  2312   0.163E-01    0.103E-01
DAV:   6    -0.136937680274E+04   -0.19149E-03   -0.43465E-03  2440   0.123E-01    0.898E-02
DAV:   7    -0.136937678388E+04    0.18854E-04   -0.17460E-03  2464   0.773E-02    0.615E-02
DAV:   8    -0.136937677239E+04    0.11495E-04   -0.65801E-04  2600   0.499E-02    0.321E-02
DAV:   9    -0.136937676694E+04    0.54495E-05   -0.12683E-04  2400   0.241E-02    0.221E-02
DAV:  10    -0.136937676826E+04   -0.13226E-05   -0.44205E-05  2456   0.131E-02    0.117E-02
DAV:  11    -0.136937676858E+04   -0.32416E-06   -0.11018E-05  1856   0.841E-03    0.701E-03
DAV:  12    -0.136937676913E+04   -0.54274E-06   -0.12624E-05  1768   0.691E-03    0.678E-03
DAV:  13    -0.136937676852E+04    0.61195E-06   -0.18339E-06   992   0.481E-03
  11 F= -.13693768E+04 E0= -.13693768E+04  d E =-.285513E+00
 BRION: g(F)=  0.116E+00 g(S)=  0.000E+00 retain N=  3 mean eig= 5.52
 eig:   7.117  7.117  2.330
 bond charge predicted
       N       E                     dE             d eps       ncg     rms          rms(c)
DAV:   1    -0.136950787843E+04   -0.13111E+00   -0.17144E+01  1368   0.599E+00    0.693E-01
DAV:   2    -0.136960103104E+04   -0.93153E-01   -0.99527E-01  2312   0.244E+00    0.343E-01
DAV:   3    -0.136960730451E+04   -0.62735E-02   -0.82441E-02  2576   0.474E-01    0.280E-01
DAV:   4    -0.136960648416E+04    0.82036E-03   -0.72229E-03  2600   0.210E-01    0.211E-01
DAV:   5    -0.136960539684E+04    0.10873E-02   -0.41560E-03  2312   0.128E-01    0.840E-02
DAV:   6    -0.136960549941E+04   -0.10256E-03   -0.27939E-03  2392   0.964E-02    0.738E-02
DAV:   7    -0.136960548249E+04    0.16913E-04   -0.12400E-03  2448   0.648E-02    0.489E-02
DAV:   8    -0.136960547655E+04    0.59418E-05   -0.45450E-04  2552   0.417E-02    0.271E-02
DAV:   9    -0.136960547250E+04    0.40539E-05   -0.85584E-05  2384   0.199E-02    0.187E-02
DAV:  10    -0.136960547308E+04   -0.58315E-06   -0.31435E-05  2456   0.109E-02    0.922E-03
DAV:  11    -0.136960547347E+04   -0.39101E-06   -0.57304E-06  1384   0.710E-03
  12 F= -.13696055E+04 E0= -.13696055E+04  d E =-.228705E+00
 BRION: g(F)=  0.110E+00 g(S)=  0.000E+00 retain N=  3 mean eig= 5.15
 eig:   6.703  6.703  2.042
 bond charge predicted
       N       E                     dE             d eps       ncg     rms          rms(c)
DAV:   1    -0.136973257049E+04   -0.12710E+00   -0.12585E+01  1368   0.513E+00    0.590E-01
DAV:   2    -0.136979997729E+04   -0.67407E-01   -0.71787E-01  2312   0.206E+00    0.291E-01
DAV:   3    -0.136980453227E+04   -0.45550E-02   -0.59224E-02  2576   0.402E-01    0.238E-01
DAV:   4    -0.136980399446E+04    0.53781E-03   -0.51718E-03  2624   0.175E-01    0.182E-01
DAV:   5    -0.136980314868E+04    0.84578E-03   -0.27702E-03  2328   0.111E-01    0.755E-02
DAV:   6    -0.136980320450E+04   -0.55819E-04   -0.22922E-03  2336   0.899E-02    0.625E-02
DAV:   7    -0.136980320024E+04    0.42645E-05   -0.10072E-03  2448   0.584E-02    0.456E-02
DAV:   8    -0.136980319376E+04    0.64806E-05   -0.33234E-04  2528   0.358E-02    0.246E-02
DAV:   9    -0.136980318878E+04    0.49780E-05   -0.81719E-05  2416   0.182E-02    0.154E-02
DAV:  10    -0.136980319004E+04   -0.12661E-05   -0.27180E-05  2432   0.103E-02    0.937E-03
DAV:  11    -0.136980318977E+04    0.27234E-06   -0.44584E-06  1200   0.688E-03
  13 F= -.13698032E+04 E0= -.13698032E+04  d E =-.197716E+00
 BRION: g(F)=  0.107E+00 g(S)=  0.000E+00 retain N=  3 mean eig= 4.61
 eig:   6.048  6.048  1.741
 bond charge predicted
       N       E                     dE             d eps       ncg     rms          rms(c)
DAV:   1    -0.136992538045E+04   -0.12219E+00   -0.99383E+00  1368   0.455E+00    0.521E-01
DAV:   2    -0.136997819467E+04   -0.52814E-01   -0.56068E-01  2304   0.181E+00    0.257E-01
DAV:   3    -0.136998167418E+04   -0.34795E-02   -0.45879E-02  2568   0.352E-01    0.207E-01
DAV:   4    -0.136998119784E+04    0.47634E-03   -0.40544E-03  2616   0.154E-01    0.154E-01
DAV:   5    -0.136998058221E+04    0.61562E-03   -0.21567E-03  2320   0.951E-02    0.611E-02
DAV:   6    -0.136998063419E+04   -0.51977E-04   -0.15054E-03  2400   0.707E-02    0.503E-02
DAV:   7    -0.136998063095E+04    0.32441E-05   -0.61042E-04  2440   0.456E-02    0.349E-02
DAV:   8    -0.136998062762E+04    0.33280E-05   -0.21968E-04  2560   0.293E-02    0.199E-02
DAV:   9    -0.136998062505E+04    0.25680E-05   -0.47847E-05  2296   0.145E-02    0.132E-02
DAV:  10    -0.136998062546E+04   -0.41291E-06   -0.17792E-05  2152   0.839E-03    0.668E-03
DAV:  11    -0.136998062534E+04    0.12496E-06   -0.16809E-06   992   0.544E-03
  14 F= -.13699806E+04 E0= -.13699806E+04  d E =-.177436E+00
 BRION: g(F)=  0.105E+00 g(S)=  0.000E+00 retain N=  3 mean eig= 3.84
 eig:   4.967  4.967  1.584
 bond charge predicted
       N       E                     dE             d eps       ncg     rms          rms(c)
DAV:   1    -0.137010677231E+04   -0.12615E+00   -0.97291E+00  1368   0.448E+00    0.509E-01
DAV:   2    -0.137015831431E+04   -0.51542E-01   -0.54705E-01  2296   0.178E+00    0.251E-01
DAV:   3    -0.137016184527E+04   -0.35310E-02   -0.45703E-02  2568   0.351E-01    0.205E-01
DAV:   4    -0.137016143535E+04    0.40992E-03   -0.39220E-03  2616   0.153E-01    0.155E-01
DAV:   5    -0.137016082577E+04    0.60958E-03   -0.20629E-03  2344   0.944E-02    0.652E-02
DAV:   6    -0.137016086328E+04   -0.37506E-04   -0.15987E-03  2344   0.737E-02    0.528E-02
DAV:   7    -0.137016085751E+04    0.57718E-05   -0.69768E-04  2504   0.495E-02    0.379E-02
DAV:   8    -0.137016085336E+04    0.41442E-05   -0.25595E-04  2528   0.314E-02    0.222E-02
DAV:   9    -0.137016084961E+04    0.37571E-05   -0.57845E-05  2328   0.155E-02    0.138E-02
DAV:  10    -0.137016085035E+04   -0.74288E-06   -0.21705E-05  2272   0.886E-03    0.761E-03
DAV:  11    -0.137016085026E+04    0.92899E-07   -0.19479E-06  1008   0.579E-03
  15 F= -.13701609E+04 E0= -.13701609E+04  d E =-.180225E+00
 BRION: g(F)=  0.104E+00 g(S)=  0.000E+00 retain N=  3 mean eig= 3.33
 eig:   4.223  4.223  1.529
 bond charge predicted
       N       E                     dE             d eps       ncg     rms          rms(c)
DAV:   1    -0.137027146613E+04   -0.11062E+00   -0.60587E+00  1368   0.354E+00    0.405E-01
DAV:   2    -0.137030319288E+04   -0.31727E-01   -0.33650E-01  2312   0.139E+00    0.200E-01
DAV:   3    -0.137030528535E+04   -0.20925E-02   -0.27687E-02  2568   0.272E-01    0.160E-01
DAV:   4    -0.137030498717E+04    0.29818E-03   -0.24409E-03  2616   0.119E-01    0.117E-01
DAV:   5    -0.137030462600E+04    0.36117E-03   -0.12704E-03  2328   0.744E-02    0.465E-02
DAV:   6    -0.137030465726E+04   -0.31254E-04   -0.88735E-04  2400   0.552E-02    0.387E-02
DAV:   7    -0.137030465556E+04    0.16958E-05   -0.35198E-04  2432   0.353E-02    0.272E-02
DAV:   8    -0.137030465334E+04    0.22163E-05   -0.12986E-04  2544   0.224E-02    0.151E-02
DAV:   9    -0.137030465189E+04    0.14558E-05   -0.28406E-05  2280   0.113E-02    0.101E-02
DAV:  10    -0.137030465181E+04    0.74971E-07   -0.88625E-06  1552   0.685E-03
  16 F= -.13703047E+04 E0= -.13703047E+04  d E =-.143802E+00
 BRION: g(F)=  0.103E+00 g(S)=  0.000E+00 retain N=  3 mean eig= 2.47
 eig:   3.062  3.062  1.290
 bond charge predicted
       N       E                     dE             d eps       ncg     rms          rms(c)
DAV:   1    -0.137038302833E+04   -0.78376E-01   -0.23228E+00  1376   0.218E+00    0.246E-01
DAV:   2    -0.137039520593E+04   -0.12178E-01   -0.12906E-01  2304   0.859E-01    0.123E-01
DAV:   3    -0.137039601527E+04   -0.80934E-03   -0.10736E-02  2560   0.168E-01    0.979E-02
DAV:   4    -0.137039589737E+04    0.11791E-03   -0.92587E-04  2608   0.739E-02    0.717E-02
DAV:   5    -0.137039576313E+04    0.13424E-03   -0.49476E-04  2344   0.448E-02    0.288E-02
DAV:   6    -0.137039577245E+04   -0.93207E-05   -0.31450E-04  2368   0.326E-02    0.238E-02
DAV:   7    -0.137039577190E+04    0.55275E-06   -0.14664E-04  2416   0.226E-02    0.163E-02
DAV:   8    -0.137039577120E+04    0.69858E-06   -0.49748E-05  2520   0.143E-02    0.102E-02
DAV:   9    -0.137039577040E+04    0.79871E-06   -0.10023E-05  1816   0.714E-03    0.675E-03
DAV:  10    -0.137039577026E+04    0.13848E-06   -0.50864E-06  1376   0.534E-03
  17 F= -.13703958E+04 E0= -.13703958E+04  d E =-.911185E-01
 BRION: g(F)=  0.103E+00 g(S)=  0.000E+00 retain N=  4 mean eig= 4.66
 eig:   7.953  7.953  1.358  1.358
 bond charge predicted
       N       E                     dE             d eps       ncg     rms          rms(c)
DAV:   1    -0.137049951092E+04   -0.10374E+00   -0.19090E+01  1368   0.617E+00    0.683E-01
DAV:   2    -0.137059525171E+04   -0.95741E-01   -0.10046E+00  2312   0.239E+00    0.349E-01
DAV:   3    -0.137060111680E+04   -0.58651E-02   -0.79363E-02  2576   0.448E-01    0.275E-01
DAV:   4    -0.137060014469E+04    0.97211E-03   -0.67473E-03  2616   0.192E-01    0.200E-01
DAV:   5    -0.137059903453E+04    0.11102E-02   -0.35389E-03  2288   0.123E-01    0.799E-02
DAV:   6    -0.137059911592E+04   -0.81398E-04   -0.24991E-03  2368   0.910E-02    0.613E-02
DAV:   7    -0.137059911885E+04   -0.29239E-05   -0.96830E-04  2448   0.585E-02    0.450E-02
DAV:   8    -0.137059911193E+04    0.69208E-05   -0.33185E-04  2520   0.357E-02    0.269E-02
DAV:   9    -0.137059910502E+04    0.69038E-05   -0.88139E-05  2256   0.192E-02    0.174E-02
DAV:  10    -0.137059910633E+04   -0.13112E-05   -0.43828E-05  2344   0.122E-02    0.955E-03
DAV:  11    -0.137059910610E+04    0.23651E-06   -0.85171E-06  1632   0.778E-03
  18 F= -.13705991E+04 E0= -.13705991E+04  d E =-.203336E+00
 BRION: g(F)=  0.107E+00 g(S)=  0.000E+00 retain N=  4 mean eig= 3.11
 eig:   5.413  5.413  0.810  0.810
 bond charge predicted
       N       E                     dE             d eps       ncg     rms          rms(c)
DAV:   1    -0.137003773713E+04    0.56137E+00   -0.49482E+01  1368   0.992E+00    0.109E+00
DAV:   2    -0.137028635318E+04   -0.24862E+00   -0.26023E+00  2312   0.386E+00    0.562E-01
DAV:   3    -0.137030076514E+04   -0.14412E-01   -0.19908E-01  2576   0.730E-01    0.440E-01
DAV:   4    -0.137029808409E+04    0.26811E-02   -0.17501E-02  2592   0.308E-01    0.314E-01
DAV:   5    -0.137029536100E+04    0.27231E-02   -0.91647E-03  2280   0.196E-01    0.121E-01
DAV:   6    -0.137029562425E+04   -0.26325E-03   -0.61209E-03  2368   0.142E-01    0.955E-02
DAV:   7    -0.137029563379E+04   -0.95398E-05   -0.22298E-03  2480   0.892E-02    0.705E-02
DAV:   8    -0.137029561085E+04    0.22937E-04   -0.76003E-04  2544   0.545E-02    0.406E-02
DAV:   9    -0.137029559722E+04    0.13636E-04   -0.19958E-04  2336   0.290E-02    0.263E-02
DAV:  10    -0.137029560018E+04   -0.29566E-05   -0.93787E-05  2424   0.182E-02    0.145E-02
DAV:  11    -0.137029559989E+04    0.28416E-06   -0.25297E-05  2336   0.116E-02    0.750E-03
DAV:  12    -0.137029560044E+04   -0.54890E-06   -0.14552E-05  1952   0.789E-03    0.704E-03
DAV:  13    -0.137029559969E+04    0.74573E-06   -0.42981E-06  1248   0.564E-03
  19 F= -.13702956E+04 E0= -.13702956E+04  d E =0.303506E+00
 BRION: g(F)=  0.100E+00 g(S)=  0.000E+00 retain N=  4 mean eig= 3.50
 eig:   5.959  5.959  1.339  0.763
 bond charge predicted
       N       E                     dE             d eps       ncg     rms          rms(c)
DAV:   1    -0.137032601504E+04   -0.30415E-01   -0.61031E+00  1376   0.359E+00    0.401E-01
DAV:   2    -0.137035758589E+04   -0.31571E-01   -0.33317E-01  2296   0.143E+00    0.200E-01
DAV:   3    -0.137035960228E+04   -0.20164E-02   -0.26288E-02  2560   0.271E-01    0.161E-01
DAV:   4    -0.137035936731E+04    0.23497E-03   -0.23681E-03  2584   0.118E-01    0.124E-01
DAV:   5    -0.137035898674E+04    0.38057E-03   -0.12363E-03  2320   0.739E-02    0.520E-02
DAV:   6    -0.137035900741E+04   -0.20672E-04   -0.10123E-03  2320   0.600E-02    0.391E-02
DAV:   7    -0.137035901027E+04   -0.28582E-05   -0.43690E-04  2440   0.383E-02    0.292E-02
DAV:   8    -0.137035900732E+04    0.29447E-05   -0.13109E-04  2528   0.232E-02    0.163E-02
DAV:   9    -0.137035900493E+04    0.23925E-05   -0.36592E-05  2360   0.121E-02    0.975E-03
DAV:  10    -0.137035900532E+04   -0.38762E-06   -0.89840E-06  1664   0.681E-03
  20 F= -.13703590E+04 E0= -.13703590E+04  d E =-.634056E-01
 BRION: g(F)=  0.985E-01 g(S)=  0.000E+00 retain N=  4 mean eig= 4.06
 eig:   6.546  6.546  1.583  1.583
