 running on  160 total cores
 distrk:  each k-point on  160 cores,    1 groups
 distr:  one band on   20 cores,    8 groups
 using from now: INCAR     
 vasp.5.4.4.18Apr17-6-g9f103f2a35 (build May 01 2020 14:22:42) gamma-only       
  
 POSCAR found type information on POSCAR  O  La Zr Li Al
 POSCAR found :  5 types and     192 ions
 scaLAPACK will be used
 LDA part: xc-table for Pade appr. of Perdew
 POSCAR, INCAR and KPOINTS ok, starting setup
 FFT: planning ...
 WAVECAR not read
 WARNING: random wavefunctions but no delay for mixing, default for NELMDL
 entering main loop
       N       E                     dE             d eps       ncg     rms          rms(c)
DAV:   1     0.252124495393E+05    0.25212E+05   -0.42267E+05  1592   0.253E+03
DAV:   2     0.935172728106E+04   -0.15861E+05   -0.14620E+05  1432   0.703E+02
DAV:   3     0.264758835569E+04   -0.67041E+04   -0.60895E+04  1512   0.356E+02
DAV:   4    -0.409152677431E+03   -0.30567E+04   -0.28520E+04  2024   0.221E+02
DAV:   5    -0.143016099282E+04   -0.10210E+04   -0.98332E+03  2536   0.138E+02    0.117E+02
DAV:   6    -0.131472609712E+04    0.11543E+03   -0.14720E+03  2424   0.653E+01    0.504E+01
DAV:   7    -0.133698368141E+04   -0.22258E+02   -0.37318E+02  2560   0.334E+01    0.242E+01
DAV:   8    -0.134968729841E+04   -0.12704E+02   -0.29007E+02  2528   0.274E+01    0.288E+01
DAV:   9    -0.133918876564E+04    0.10499E+02   -0.73987E+01  2440   0.161E+01    0.752E+00
DAV:  10    -0.134080003648E+04   -0.16113E+01   -0.15249E+01  2600   0.892E+00    0.902E+00
DAV:  11    -0.134068995409E+04    0.11008E+00   -0.87632E+00  2624   0.495E+00    0.401E+00
DAV:  12    -0.134059594023E+04    0.94014E-01   -0.29633E+00  2600   0.382E+00    0.285E+00
DAV:  13    -0.134067901757E+04   -0.83077E-01   -0.89737E-01  2576   0.189E+00    0.210E+00
DAV:  14    -0.134065771695E+04    0.21301E-01   -0.32517E-01  2616   0.114E+00    0.136E+00
DAV:  15    -0.134066676976E+04   -0.90528E-02   -0.13327E-01  2552   0.716E-01    0.112E+00
DAV:  16    -0.134066786663E+04   -0.10969E-02   -0.39058E-02  2616   0.398E-01    0.745E-01
DAV:  17    -0.134066286293E+04    0.50037E-02   -0.25655E-02  2432   0.324E-01    0.372E-01
DAV:  18    -0.134066315431E+04   -0.29138E-03   -0.61671E-03  2512   0.162E-01    0.224E-01
DAV:  19    -0.134066285259E+04    0.30172E-03   -0.27617E-03  2568   0.965E-02    0.177E-01
DAV:  20    -0.134066284373E+04    0.88556E-05   -0.95279E-04  2600   0.656E-02    0.631E-02
DAV:  21    -0.134066284261E+04    0.11264E-05   -0.24165E-04  2608   0.321E-02    0.546E-02
DAV:  22    -0.134066285367E+04   -0.11060E-04   -0.94606E-05  2520   0.216E-02    0.296E-02
DAV:  23    -0.134066285948E+04   -0.58130E-05   -0.19242E-05  1552   0.909E-03    0.172E-02
DAV:  24    -0.134066285996E+04   -0.48148E-06   -0.14447E-05  1768   0.806E-03    0.148E-02
DAV:  25    -0.134066286176E+04   -0.17996E-05   -0.31510E-06  1016   0.626E-03    0.896E-03
DAV:  26    -0.134066286189E+04   -0.12999E-06   -0.21201E-06  1024   0.421E-03
   1 F= -.13406629E+04 E0= -.13406629E+04  d E =-.134066E+04
 BRION: g(F)=  0.348E+02 g(S)=  0.000E+00
 bond charge predicted
       N       E                     dE             d eps       ncg     rms          rms(c)
DAV:   1    -0.133253015493E+04    0.81327E+01   -0.39340E+03  1688   0.959E+01    0.163E+01
DAV:   2    -0.135784513832E+04   -0.25315E+02   -0.29662E+02  2576   0.430E+01    0.900E+00
DAV:   3    -0.135765678589E+04    0.18835E+00   -0.18909E+01  2624   0.111E+01    0.647E+00
DAV:   4    -0.135680844589E+04    0.84834E+00   -0.41535E+00  2584   0.445E+00    0.358E+00
DAV:   5    -0.135650914140E+04    0.29930E+00   -0.14699E+00  2288   0.309E+00    0.190E+00
DAV:   6    -0.135649785998E+04    0.11281E-01   -0.15216E+00  2472   0.245E+00    0.968E-01
DAV:   7    -0.135652386557E+04   -0.26006E-01   -0.45801E-01  2376   0.134E+00    0.105E+00
DAV:   8    -0.135651987602E+04    0.39895E-02   -0.91441E-02  2600   0.556E-01    0.647E-01
DAV:   9    -0.135651747722E+04    0.23988E-02   -0.61309E-02  2592   0.448E-01    0.324E-01
DAV:  10    -0.135651789574E+04   -0.41852E-03   -0.16367E-02  2536   0.287E-01    0.273E-01
DAV:  11    -0.135651713686E+04    0.75888E-03   -0.85265E-03  2600   0.190E-01    0.141E-01
DAV:  12    -0.135651730618E+04   -0.16933E-03   -0.49933E-03  2528   0.119E-01    0.900E-02
DAV:  13    -0.135651723269E+04    0.73492E-04   -0.12181E-03  2608   0.722E-02    0.336E-02
DAV:  14    -0.135651725292E+04   -0.20232E-04   -0.35602E-04  2592   0.408E-02    0.184E-02
DAV:  15    -0.135651725830E+04   -0.53729E-05   -0.94671E-05  2624   0.216E-02    0.798E-03
DAV:  16    -0.135651726036E+04   -0.20651E-05   -0.30263E-05  2584   0.103E-02    0.574E-03
DAV:  17    -0.135651726065E+04   -0.28448E-06   -0.36736E-06  1216   0.605E-03
   2 F= -.13565173E+04 E0= -.13565173E+04  d E =-.158544E+02
 BRION: g(F)=  0.117E+02 g(S)=  0.000E+00 retain N=  1 mean eig= 0.72
 eig:   0.720
 bond charge predicted
       N       E                     dE             d eps       ncg     rms          rms(c)
DAV:   1    -0.135353738407E+04    0.29799E+01   -0.11627E+03  1456   0.477E+01    0.918E+00
DAV:   2    -0.136061748676E+04   -0.70801E+01   -0.86750E+01  2536   0.210E+01    0.727E+00
DAV:   3    -0.136087402453E+04   -0.25654E+00   -0.66436E+00  2568   0.608E+00    0.582E+00
DAV:   4    -0.136065624369E+04    0.21778E+00   -0.15869E+00  2584   0.261E+00    0.344E+00
DAV:   5    -0.136057782100E+04    0.78423E-01   -0.80631E-01  2144   0.211E+00    0.208E+00
DAV:   6    -0.136054244849E+04    0.35373E-01   -0.68359E-01  2504   0.155E+00    0.121E+00
DAV:   7    -0.136054394751E+04   -0.14990E-02   -0.26703E-01  2456   0.944E-01    0.620E-01
DAV:   8    -0.136054377432E+04    0.17320E-03   -0.34996E-02  2608   0.390E-01    0.407E-01
DAV:   9    -0.136054365918E+04    0.11513E-03   -0.13695E-02  2592   0.242E-01    0.270E-01
DAV:  10    -0.136054339666E+04    0.26252E-03   -0.42027E-03  2296   0.154E-01    0.213E-01
DAV:  11    -0.136054310235E+04    0.29432E-03   -0.69677E-03  2264   0.126E-01    0.723E-02
DAV:  12    -0.136054309449E+04    0.78523E-05   -0.81190E-04  2504   0.652E-02    0.463E-02
DAV:  13    -0.136054308996E+04    0.45319E-05   -0.47852E-04  2392   0.406E-02    0.203E-02
DAV:  14    -0.136054309674E+04   -0.67767E-05   -0.12979E-04  2336   0.230E-02    0.146E-02
DAV:  15    -0.136054309899E+04   -0.22513E-05   -0.44858E-05  2432   0.122E-02    0.731E-03
DAV:  16    -0.136054309879E+04    0.19770E-06   -0.58186E-06  1352   0.711E-03
   3 F= -.13605431E+04 E0= -.13605431E+04  d E =-.402584E+01
 BRION: g(F)=  0.333E+01 g(S)=  0.000E+00 retain N=  2 mean eig= 0.32
 eig:   0.384  0.253
 bond charge predicted
       N       E                     dE             d eps       ncg     rms          rms(c)
DAV:   1    -0.136150929653E+04   -0.96620E+00   -0.28377E+02  1360   0.247E+01    0.453E+00
DAV:   2    -0.136285652724E+04   -0.13472E+01   -0.15201E+01  2280   0.940E+00    0.196E+00
DAV:   3    -0.136290857727E+04   -0.52050E-01   -0.13301E+00  2592   0.212E+00    0.171E+00
DAV:   4    -0.136286795245E+04    0.40625E-01   -0.23632E-01  2568   0.108E+00    0.952E-01
DAV:   5    -0.136285600600E+04    0.11946E-01   -0.13888E-01  2176   0.723E-01    0.534E-01
DAV:   6    -0.136285631524E+04   -0.30924E-03   -0.61818E-02  2584   0.499E-01    0.446E-01
DAV:   7    -0.136285521557E+04    0.10997E-02   -0.36789E-02  2448   0.337E-01    0.254E-01
DAV:   8    -0.136285490041E+04    0.31516E-03   -0.70053E-03  2584   0.171E-01    0.142E-01
DAV:   9    -0.136285482836E+04    0.72052E-04   -0.17267E-03  2608   0.876E-02    0.857E-02
DAV:  10    -0.136285495598E+04   -0.12762E-03   -0.16576E-03  2224   0.648E-02    0.858E-02
DAV:  11    -0.136285483469E+04    0.12129E-03   -0.59850E-04  2520   0.519E-02    0.334E-02
DAV:  12    -0.136285485290E+04   -0.18215E-04   -0.46405E-04  2528   0.365E-02    0.290E-02
DAV:  13    -0.136285484392E+04    0.89836E-05   -0.81829E-05  2456   0.195E-02    0.138E-02
DAV:  14    -0.136285484503E+04   -0.11135E-05   -0.31381E-05  2272   0.995E-03    0.434E-03
DAV:  15    -0.136285484531E+04   -0.27646E-06   -0.20338E-06  1048   0.522E-03
   4 F= -.13628548E+04 E0= -.13628548E+04  d E =-.231175E+01
 BRION: g(F)=  0.112E+01 g(S)=  0.000E+00 retain N=  3 mean eig= 1.30
 eig:   0.781  1.554  1.554
 bond charge predicted
       N       E                     dE             d eps       ncg     rms          rms(c)
DAV:   1    -0.136343836575E+04   -0.58352E+00   -0.18006E+02  1360   0.194E+01    0.246E+00
DAV:   2    -0.136430295136E+04   -0.86459E+00   -0.91707E+00  2288   0.730E+00    0.123E+00
DAV:   3    -0.136434649046E+04   -0.43539E-01   -0.69933E-01  2576   0.149E+00    0.100E+00
DAV:   4    -0.136433334065E+04    0.13150E-01   -0.83085E-02  2616   0.651E-01    0.673E-01
DAV:   5    -0.136432450039E+04    0.88403E-02   -0.48252E-02  2240   0.430E-01    0.283E-01
DAV:   6    -0.136432574010E+04   -0.12397E-02   -0.24134E-02  2496   0.308E-01    0.274E-01
DAV:   7    -0.136432521846E+04    0.52164E-03   -0.14069E-02  2448   0.220E-01    0.170E-01
DAV:   8    -0.136432514946E+04    0.68995E-04   -0.54726E-03  2544   0.141E-01    0.965E-02
DAV:   9    -0.136432511981E+04    0.29654E-04   -0.80923E-04  2552   0.644E-02    0.666E-02
DAV:  10    -0.136432512616E+04   -0.63505E-05   -0.60268E-04  2368   0.422E-02    0.341E-02
DAV:  11    -0.136432512294E+04    0.32214E-05   -0.14204E-04  2528   0.298E-02    0.149E-02
DAV:  12    -0.136432512934E+04   -0.63959E-05   -0.94966E-05  2488   0.179E-02    0.180E-02
DAV:  13    -0.136432512540E+04    0.39387E-05   -0.28143E-05  2112   0.107E-02    0.915E-03
DAV:  14    -0.136432512517E+04    0.22390E-06   -0.11963E-05  1760   0.694E-03    0.360E-03
DAV:  15    -0.136432512530E+04   -0.12219E-06   -0.15746E-06   992   0.432E-03
   5 F= -.13643251E+04 E0= -.13643251E+04  d E =-.147028E+01
 BRION: g(F)=  0.617E+00 g(S)=  0.000E+00 retain N=  4 mean eig= 1.80
 eig:   2.462  2.462  1.147  1.147
 bond charge predicted
       N       E                     dE             d eps       ncg     rms          rms(c)
DAV:   1    -0.136476152972E+04   -0.43640E+00   -0.71123E+01  1384   0.124E+01    0.153E+00
DAV:   2    -0.136513562048E+04   -0.37409E+00   -0.39878E+00  2320   0.494E+00    0.786E-01
DAV:   3    -0.136515675944E+04   -0.21139E-01   -0.31041E-01  2576   0.976E-01    0.656E-01
DAV:   4    -0.136515182409E+04    0.49354E-02   -0.35060E-02  2624   0.440E-01    0.461E-01
DAV:   5    -0.136514757434E+04    0.42497E-02   -0.21796E-02  2280   0.290E-01    0.201E-01
DAV:   6    -0.136514818949E+04   -0.61515E-03   -0.13186E-02  2400   0.231E-01    0.203E-01
DAV:   7    -0.136514789902E+04    0.29047E-03   -0.82237E-03  2360   0.164E-01    0.137E-01
DAV:   8    -0.136514783118E+04    0.67845E-04   -0.32406E-03  2560   0.107E-01    0.724E-02
DAV:   9    -0.136514779288E+04    0.38292E-04   -0.53021E-04  2512   0.504E-02    0.489E-02
DAV:  10    -0.136514779702E+04   -0.41344E-05   -0.35643E-04  2544   0.324E-02    0.265E-02
DAV:  11    -0.136514779795E+04   -0.92946E-06   -0.11418E-04  2376   0.237E-02    0.165E-02
DAV:  12    -0.136514779814E+04   -0.19629E-06   -0.46536E-05  2328   0.158E-02    0.165E-02
DAV:  13    -0.136514779519E+04    0.29559E-05   -0.35032E-05  2128   0.108E-02    0.823E-03
DAV:  14    -0.136514779503E+04    0.15704E-06   -0.13745E-05  1760   0.726E-03    0.301E-03
DAV:  15    -0.136514779519E+04   -0.16129E-06   -0.14018E-06   992   0.428E-03
   6 F= -.13651478E+04 E0= -.13651478E+04  d E =-.822670E+00
 BRION: g(F)=  0.432E+00 g(S)=  0.000E+00 retain N=  5 mean eig= 2.41
 eig:   4.095  4.095  1.468  1.468  0.927
 bond charge predicted
       N       E                     dE             d eps       ncg     rms          rms(c)
DAV:   1    -0.136550215471E+04   -0.35436E+00   -0.92072E+01  1384   0.139E+01    0.172E+00
DAV:   2    -0.136600060442E+04   -0.49845E+00   -0.52605E+00  2304   0.571E+00    0.864E-01
DAV:   3    -0.136602984563E+04   -0.29241E-01   -0.40954E-01  2600   0.108E+00    0.705E-01
DAV:   4    -0.136602360420E+04    0.62414E-02   -0.42818E-02  2616   0.493E-01    0.487E-01
DAV:   5    -0.136601879925E+04    0.48050E-02   -0.23687E-02  2352   0.315E-01    0.202E-01
DAV:   6    -0.136601967697E+04   -0.87772E-03   -0.14801E-02  2488   0.238E-01    0.183E-01
DAV:   7    -0.136601947857E+04    0.19839E-03   -0.72645E-03  2440   0.159E-01    0.129E-01
DAV:   8    -0.136601943695E+04    0.41620E-04   -0.30500E-03  2592   0.104E-01    0.706E-02
DAV:   9    -0.136601940360E+04    0.33357E-04   -0.49986E-04  2528   0.482E-02    0.486E-02
DAV:  10    -0.136601940511E+04   -0.15141E-05   -0.29242E-04  2608   0.304E-02    0.253E-02
DAV:  11    -0.136601940900E+04   -0.38832E-05   -0.94536E-05  2472   0.212E-02    0.166E-02
DAV:  12    -0.136601940767E+04    0.13233E-05   -0.37852E-05  2336   0.149E-02    0.142E-02
DAV:  13    -0.136601940628E+04    0.13882E-05   -0.34831E-05  2168   0.103E-02    0.713E-03
DAV:  14    -0.136601940625E+04    0.37413E-07   -0.98401E-06  1760   0.616E-03
   7 F= -.13660194E+04 E0= -.13660194E+04  d E =-.871611E+00
 BRION: g(F)=  0.311E+00 g(S)=  0.000E+00 retain N=  6 mean eig= 3.22
 eig:   6.321  6.321  2.188  2.188  1.154  1.154
 bond charge predicted
       N       E                     dE             d eps       ncg     rms          rms(c)
DAV:   1    -0.136629580272E+04   -0.27640E+00   -0.91823E+01  1376   0.137E+01    0.170E+00
DAV:   2    -0.136678032690E+04   -0.48452E+00   -0.51032E+00  2304   0.554E+00    0.830E-01
DAV:   3    -0.136680730140E+04   -0.26975E-01   -0.38738E-01  2576   0.103E+00    0.664E-01
DAV:   4    -0.136680051785E+04    0.67836E-02   -0.41831E-02  2608   0.475E-01    0.436E-01
DAV:   5    -0.136679621160E+04    0.43062E-02   -0.20191E-02  2328   0.301E-01    0.167E-01
DAV:   6    -0.136679706922E+04   -0.85762E-03   -0.12157E-02  2504   0.212E-01    0.147E-01
DAV:   7    -0.136679698194E+04    0.87286E-04   -0.45605E-03  2464   0.128E-01    0.108E-01
DAV:   8    -0.136679694261E+04    0.39324E-04   -0.19352E-03  2592   0.815E-02    0.547E-02
DAV:   9    -0.136679692306E+04    0.19551E-04   -0.35726E-04  2544   0.410E-02    0.385E-02
DAV:  10    -0.136679692888E+04   -0.58174E-05   -0.21565E-04  2568   0.274E-02    0.237E-02
DAV:  11    -0.136679692672E+04    0.21562E-05   -0.73189E-05  2456   0.189E-02    0.119E-02
DAV:  12    -0.136679692857E+04   -0.18440E-05   -0.34574E-05  2328   0.122E-02    0.120E-02
DAV:  13    -0.136679692709E+04    0.14719E-05   -0.17286E-05  1872   0.799E-03    0.560E-03
DAV:  14    -0.136679692703E+04    0.59750E-07   -0.52780E-06  1360   0.584E-03
   8 F= -.13667969E+04 E0= -.13667969E+04  d E =-.777521E+00
 BRION: g(F)=  0.243E+00 g(S)=  0.000E+00 retain N=  5 mean eig= 4.23
 eig:   7.771  7.771  2.248  2.248  1.108
 bond charge predicted
       N       E                     dE             d eps       ncg     rms          rms(c)
DAV:   1    -0.136704704638E+04   -0.25012E+00   -0.69013E+01  1384   0.119E+01    0.140E+00
DAV:   2    -0.136741386123E+04   -0.36681E+00   -0.38805E+00  2304   0.482E+00    0.693E-01
DAV:   3    -0.136743577992E+04   -0.21919E-01   -0.30271E-01  2576   0.901E-01    0.562E-01
DAV:   4    -0.136743167105E+04    0.41089E-02   -0.28966E-02  2608   0.404E-01    0.397E-01
DAV:   5    -0.136742774259E+04    0.39285E-02   -0.14578E-02  2344   0.252E-01    0.156E-01
DAV:   6    -0.136742818412E+04   -0.44153E-03   -0.99724E-03  2440   0.188E-01    0.127E-01
DAV:   7    -0.136742818101E+04    0.31182E-05   -0.41128E-03  2464   0.120E-01    0.954E-02
DAV:   8    -0.136742815040E+04    0.30607E-04   -0.14749E-03  2600   0.749E-02    0.523E-02
DAV:   9    -0.136742813019E+04    0.20207E-04   -0.33043E-04  2408   0.378E-02    0.352E-02
DAV:  10    -0.136742813609E+04   -0.58999E-05   -0.16788E-04  2432   0.240E-02    0.204E-02
DAV:  11    -0.136742813630E+04   -0.20646E-06   -0.52351E-05  2440   0.163E-02    0.124E-02
DAV:  12    -0.136742813677E+04   -0.47732E-06   -0.30457E-05  2320   0.115E-02    0.118E-02
DAV:  13    -0.136742813530E+04    0.14740E-05   -0.15792E-05  1784   0.771E-03    0.567E-03
DAV:  14    -0.136742813532E+04   -0.17390E-07   -0.69465E-06  1568   0.591E-03
   9 F= -.13674281E+04 E0= -.13674281E+04  d E =-.631208E+00
 BRION: g(F)=  0.211E+00 g(S)=  0.000E+00 retain N=  2 mean eig= 4.71
 eig:   4.714  4.714
 bond charge predicted
       N       E                     dE             d eps       ncg     rms          rms(c)
DAV:   1    -0.136768495870E+04   -0.25682E+00   -0.38931E+01  1384   0.890E+00    0.106E+00
DAV:   2    -0.136789404097E+04   -0.20908E+00   -0.22125E+00  2296   0.366E+00    0.522E-01
DAV:   3    -0.136790604993E+04   -0.12009E-01   -0.17002E-01  2576   0.677E-01    0.423E-01
DAV:   4    -0.136790351501E+04    0.25349E-02   -0.16206E-02  2608   0.301E-01    0.299E-01
DAV:   5    -0.136790103113E+04    0.24839E-02   -0.86542E-03  2320   0.192E-01    0.111E-01
DAV:   6    -0.136790133856E+04   -0.30743E-03   -0.58471E-03  2448   0.140E-01    0.953E-02
DAV:   7    -0.136790132241E+04    0.16155E-04   -0.19902E-03  2440   0.833E-02    0.701E-02
DAV:   8    -0.136790130125E+04    0.21154E-04   -0.78485E-04  2560   0.537E-02    0.361E-02
DAV:   9    -0.136790129227E+04    0.89796E-05   -0.16708E-04  2272   0.275E-02    0.251E-02
DAV:  10    -0.136790129469E+04   -0.24130E-05   -0.71436E-05  2400   0.163E-02    0.141E-02
DAV:  11    -0.136790129435E+04    0.33474E-06   -0.21847E-05  2272   0.108E-02    0.739E-03
DAV:  12    -0.136790129504E+04   -0.68737E-06   -0.13610E-05  1912   0.771E-03    0.702E-03
DAV:  13    -0.136790129432E+04    0.72364E-06   -0.20854E-06   992   0.526E-03
  10 F= -.13679013E+04 E0= -.13679013E+04  d E =-.473159E+00
 BRION: g(F)=  0.197E+00 g(S)=  0.000E+00 retain N=  2 mean eig= 4.77
 eig:   4.769  4.769
 bond charge predicted
       N       E                     dE             d eps       ncg     rms          rms(c)
DAV:   1    -0.136814394433E+04   -0.24265E+00   -0.30397E+01  1384   0.787E+00    0.917E-01
DAV:   2    -0.136831025050E+04   -0.16631E+00   -0.17601E+00  2304   0.330E+00    0.459E-01
DAV:   3    -0.136831977968E+04   -0.95292E-02   -0.13518E-01  2568   0.600E-01    0.373E-01
DAV:   4    -0.136831786109E+04    0.19186E-02   -0.12361E-02  2592   0.265E-01    0.272E-01
DAV:   5    -0.136831564463E+04    0.22165E-02   -0.68286E-03  2288   0.169E-01    0.104E-01
DAV:   6    -0.136831584211E+04   -0.19748E-03   -0.51513E-03  2392   0.129E-01    0.838E-02
DAV:   7    -0.136831584863E+04   -0.65120E-05   -0.18385E-03  2424   0.773E-02    0.648E-02
DAV:   8    -0.136831583130E+04    0.17331E-04   -0.63716E-04  2576   0.493E-02    0.343E-02
DAV:   9    -0.136831581810E+04    0.13196E-04   -0.16841E-04  2232   0.264E-02    0.223E-02
DAV:  10    -0.136831582131E+04   -0.32078E-05   -0.62290E-05  2440   0.152E-02    0.140E-02
DAV:  11    -0.136831582022E+04    0.10830E-05   -0.21809E-05  2264   0.101E-02    0.664E-03
DAV:  12    -0.136831582083E+04   -0.60062E-06   -0.10352E-05  1760   0.725E-03    0.615E-03
DAV:  13    -0.136831582032E+04    0.50603E-06   -0.17792E-06   992   0.470E-03
  11 F= -.13683158E+04 E0= -.13683158E+04  d E =-.414526E+00
 BRION: g(F)=  0.189E+00 g(S)=  0.000E+00 retain N=  2 mean eig= 4.31
 eig:   4.310  4.310
 bond charge predicted
       N       E                     dE             d eps       ncg     rms          rms(c)
DAV:   1    -0.136855939044E+04   -0.24357E+00   -0.29297E+01  1384   0.770E+00    0.891E-01
DAV:   2    -0.136871899098E+04   -0.15960E+00   -0.16858E+00  2296   0.321E+00    0.448E-01
DAV:   3    -0.136872816960E+04   -0.91786E-02   -0.12968E-01  2584   0.585E-01    0.364E-01
DAV:   4    -0.136872634183E+04    0.18278E-02   -0.11429E-02  2608   0.256E-01    0.267E-01
DAV:   5    -0.136872414127E+04    0.22006E-02   -0.64022E-03  2256   0.164E-01    0.102E-01
DAV:   6    -0.136872432891E+04   -0.18765E-03   -0.49793E-03  2344   0.126E-01    0.811E-02
DAV:   7    -0.136872434029E+04   -0.11380E-04   -0.17097E-03  2424   0.735E-02    0.635E-02
DAV:   8    -0.136872432245E+04    0.17842E-04   -0.58193E-04  2536   0.475E-02    0.342E-02
DAV:   9    -0.136872430766E+04    0.14789E-04   -0.16933E-04  2232   0.262E-02    0.216E-02
DAV:  10    -0.136872431063E+04   -0.29690E-05   -0.57666E-05  2496   0.147E-02    0.136E-02
DAV:  11    -0.136872430940E+04    0.12315E-05   -0.18769E-05  2248   0.947E-03    0.597E-03
DAV:  12    -0.136872431007E+04   -0.67084E-06   -0.97101E-06  1760   0.657E-03
  12 F= -.13687243E+04 E0= -.13687243E+04  d E =-.408490E+00
 BRION: g(F)=  0.183E+00 g(S)=  0.000E+00 retain N=  2 mean eig= 4.09
 eig:   4.087  4.087
 bond charge predicted
       N       E                     dE             d eps       ncg     rms          rms(c)
DAV:   1    -0.136894559599E+04   -0.22129E+00   -0.20198E+01  1384   0.638E+00    0.732E-01
DAV:   2    -0.136905536979E+04   -0.10977E+00   -0.11567E+00  2296   0.266E+00    0.369E-01
DAV:   3    -0.136906171837E+04   -0.63486E-02   -0.89290E-02  2584   0.482E-01    0.299E-01
DAV:   4    -0.136906043534E+04    0.12830E-02   -0.76261E-03  2584   0.210E-01    0.220E-01
DAV:   5    -0.136905891729E+04    0.15180E-02   -0.44684E-03  2248   0.134E-01    0.827E-02
DAV:   6    -0.136905905529E+04   -0.13800E-03   -0.33776E-03  2344   0.102E-01    0.672E-02
DAV:   7    -0.136905906066E+04   -0.53732E-05   -0.11380E-03  2432   0.600E-02    0.520E-02
DAV:   8    -0.136905904969E+04    0.10970E-04   -0.39550E-04  2544   0.385E-02    0.281E-02
DAV:   9    -0.136905903730E+04    0.12394E-04   -0.11546E-04  2176   0.216E-02    0.179E-02
DAV:  10    -0.136905903859E+04   -0.12886E-05   -0.36341E-05  2464   0.118E-02    0.108E-02
DAV:  11    -0.136905903774E+04    0.84327E-06   -0.13383E-05  1976   0.793E-03    0.387E-03
DAV:  12    -0.136905903807E+04   -0.32342E-06   -0.34763E-06  1200   0.535E-03
  13 F= -.13690590E+04 E0= -.13690590E+04  d E =-.334728E+00
 BRION: g(F)=  0.180E+00 g(S)=  0.000E+00 retain N=  3 mean eig= 5.53
 eig:   7.180  7.180  2.226
 bond charge predicted
       N       E                     dE             d eps       ncg     rms          rms(c)
DAV:   1    -0.136923784686E+04   -0.17881E+00   -0.14648E+01  1376   0.539E+00    0.600E-01
DAV:   2    -0.136931445738E+04   -0.76611E-01   -0.80301E-01  2304   0.220E+00    0.307E-01
DAV:   3    -0.136931875702E+04   -0.42996E-02   -0.60366E-02  2592   0.402E-01    0.247E-01
DAV:   4    -0.136931789334E+04    0.86368E-03   -0.51246E-03  2592   0.169E-01    0.181E-01
DAV:   5    -0.136931686790E+04    0.10254E-02   -0.29690E-03  2240   0.112E-01    0.691E-02
DAV:   6    -0.136931696498E+04   -0.97082E-04   -0.23822E-03  2336   0.871E-02    0.576E-02
DAV:   7    -0.136931697134E+04   -0.63572E-05   -0.84136E-04  2448   0.517E-02    0.455E-02
DAV:   8    -0.136931696127E+04    0.10063E-04   -0.26706E-04  2544   0.321E-02    0.246E-02
DAV:   9    -0.136931695106E+04    0.10214E-04   -0.86902E-05  2208   0.185E-02    0.147E-02
DAV:  10    -0.136931695285E+04   -0.17878E-05   -0.27481E-05  2272   0.102E-02    0.102E-02
DAV:  11    -0.136931695171E+04    0.11401E-05   -0.95895E-06  1600   0.705E-03    0.393E-03
DAV:  12    -0.136931695189E+04   -0.18541E-06   -0.32594E-06  1136   0.574E-03
  14 F= -.13693170E+04 E0= -.13693170E+04  d E =-.257914E+00
 BRION: g(F)=  0.179E+00 g(S)=  0.000E+00 retain N=  3 mean eig= 2.85
 eig:   3.691  3.691  1.176
 bond charge predicted
       N       E                     dE             d eps       ncg     rms          rms(c)
DAV:   1    -0.136946611707E+04   -0.14917E+00   -0.54545E+00  1384   0.332E+00    0.378E-01
DAV:   2    -0.136949537521E+04   -0.29258E-01   -0.30894E-01  2296   0.135E+00    0.191E-01
DAV:   3    -0.136949715779E+04   -0.17826E-02   -0.24675E-02  2560   0.255E-01    0.155E-01
DAV:   4    -0.136949683166E+04    0.32613E-03   -0.21519E-03  2584   0.110E-01    0.113E-01
DAV:   5    -0.136949643963E+04    0.39203E-03   -0.12285E-03  2272   0.695E-02    0.426E-02
DAV:   6    -0.136949647470E+04   -0.35070E-04   -0.86494E-04  2344   0.520E-02    0.364E-02
DAV:   7    -0.136949647369E+04    0.10057E-05   -0.31929E-04  2392   0.324E-02    0.264E-02
DAV:   8    -0.136949647050E+04    0.31941E-05   -0.11256E-04  2544   0.207E-02    0.143E-02
DAV:   9    -0.136949646854E+04    0.19543E-05   -0.27063E-05  2120   0.110E-02    0.979E-03
DAV:  10    -0.136949646858E+04   -0.33237E-07   -0.89303E-06  1768   0.637E-03
  15 F= -.13694965E+04 E0= -.13694965E+04  d E =-.179517E+00
 BRION: g(F)=  0.177E+00 g(S)=  0.000E+00 retain N=  4 mean eig= 3.68
 eig:   5.735  5.735  1.630  1.630
 bond charge predicted
       N       E                     dE             d eps       ncg     rms          rms(c)
DAV:   1    -0.136955969976E+04   -0.63231E-01   -0.39823E+01  1384   0.892E+00    0.955E-01
DAV:   2    -0.136975901633E+04   -0.19932E+00   -0.20728E+00  2304   0.354E+00    0.494E-01
DAV:   3    -0.136977086581E+04   -0.11849E-01   -0.15702E-01  2584   0.624E-01    0.399E-01
DAV:   4    -0.136976945301E+04    0.14128E-02   -0.12344E-02  2608   0.261E-01    0.313E-01
DAV:   5    -0.136976679829E+04    0.26547E-02   -0.61143E-03  2304   0.162E-01    0.152E-01
DAV:   6    -0.136976661710E+04    0.18120E-03   -0.67367E-03  2184   0.153E-01    0.852E-02
DAV:   7    -0.136976675940E+04   -0.14231E-03   -0.39512E-03  2424   0.107E-01    0.848E-02
DAV:   8    -0.136976672061E+04    0.38790E-04   -0.69239E-04  2504   0.603E-02    0.605E-02
DAV:   9    -0.136976666694E+04    0.53677E-04   -0.46069E-04  2464   0.379E-02    0.269E-02
DAV:  10    -0.136976668057E+04   -0.13629E-04   -0.17669E-04  2512   0.254E-02    0.209E-02
DAV:  11    -0.136976667923E+04    0.13374E-05   -0.41207E-05  2240   0.134E-02    0.144E-02
DAV:  12    -0.136976667783E+04    0.13996E-05   -0.46083E-05  2184   0.133E-02    0.124E-02
DAV:  13    -0.136976667706E+04    0.77317E-06   -0.18986E-05  1968   0.901E-03    0.952E-03
DAV:  14    -0.136976667610E+04    0.95842E-06   -0.39065E-06  1208   0.553E-03
  16 F= -.13697667E+04 E0= -.13697667E+04  d E =-.270208E+00
 BRION: g(F)=  0.184E+00 g(S)=  0.000E+00 retain N=  4 mean eig= 2.96
 eig:   4.667  4.667  1.253  1.253
 bond charge predicted
       N       E                     dE             d eps       ncg     rms          rms(c)
DAV:   1    -0.136931520028E+04    0.45148E+00   -0.54633E+01  1384   0.105E+01    0.112E+00
DAV:   2    -0.136958702575E+04   -0.27183E+00   -0.28186E+00  2296   0.416E+00    0.579E-01
DAV:   3    -0.136960273572E+04   -0.15710E-01   -0.20867E-01  2576   0.720E-01    0.461E-01
DAV:   4    -0.136960089848E+04    0.18372E-02   -0.16415E-02  2608   0.300E-01    0.364E-01
DAV:   5    -0.136959739143E+04    0.35070E-02   -0.79573E-03  2312   0.187E-01    0.177E-01
DAV:   6    -0.136959710876E+04    0.28267E-03   -0.85868E-03  2200   0.173E-01    0.909E-02
DAV:   7    -0.136959730740E+04   -0.19863E-03   -0.47948E-03  2448   0.119E-01    0.898E-02
DAV:   8    -0.136959726618E+04    0.41212E-04   -0.81931E-04  2488   0.666E-02    0.627E-02
DAV:   9    -0.136959720704E+04    0.59140E-04   -0.50079E-04  2424   0.399E-02    0.291E-02
DAV:  10    -0.136959722122E+04   -0.14178E-04   -0.19146E-04  2504   0.265E-02    0.205E-02
DAV:  11    -0.136959721987E+04    0.13519E-05   -0.52066E-05  2320   0.149E-02    0.134E-02
DAV:  12    -0.136959721919E+04    0.67629E-06   -0.36744E-05  2176   0.124E-02    0.121E-02
DAV:  13    -0.136959721817E+04    0.10259E-05   -0.17327E-05  1912   0.851E-03    0.841E-03
DAV:  14    -0.136959721730E+04    0.87058E-06   -0.24503E-06  1000   0.541E-03
  17 F= -.13695972E+04 E0= -.13695972E+04  d E =0.169459E+00
 BRION: g(F)=  0.173E+00 g(S)=  0.000E+00 retain N=  1 mean eig= 5.01
 eig:   5.011
 bond charge predicted
       N       E                     dE             d eps       ncg     rms          rms(c)
DAV:   1    -0.136963961257E+04   -0.42394E-01   -0.66354E+00  1384   0.370E+00    0.421E-01
DAV:   2    -0.136967351443E+04   -0.33902E-01   -0.35804E-01  2296   0.150E+00    0.214E-01
DAV:   3    -0.136967548535E+04   -0.19709E-02   -0.27362E-02  2600   0.271E-01    0.176E-01
DAV:   4    -0.136967512739E+04    0.35796E-03   -0.23368E-03  2600   0.116E-01    0.130E-01
DAV:   5    -0.136967466007E+04    0.46732E-03   -0.16162E-03  2184   0.810E-02    0.477E-02
DAV:   6    -0.136967473278E+04   -0.72704E-04   -0.11753E-03  2464   0.620E-02    0.494E-02
DAV:   7    -0.136967471901E+04    0.13766E-04   -0.37757E-04  2384   0.359E-02    0.337E-02
DAV:   8    -0.136967470996E+04    0.90529E-05   -0.14501E-04  2552   0.233E-02    0.159E-02
DAV:   9    -0.136967470792E+04    0.20351E-05   -0.29036E-05  2128   0.116E-02    0.104E-02
DAV:  10    -0.136967470785E+04    0.68088E-07   -0.46672E-06  1296   0.608E-03
  18 F= -.13696747E+04 E0= -.13696747E+04  d E =-.774906E-01
 BRION: g(F)=  0.170E+00 g(S)=  0.000E+00 retain N=  2 mean eig= 5.11
 eig:   5.111  5.111
 bond charge predicted
       N       E                     dE             d eps       ncg     rms          rms(c)
DAV:   1    -0.136976004783E+04   -0.85340E-01   -0.24729E+00  1392   0.225E+00    0.263E-01
DAV:   2    -0.136977333047E+04   -0.13283E-01   -0.14142E-01  2304   0.934E-01    0.132E-01
DAV:   3    -0.136977411103E+04   -0.78056E-03   -0.11366E-02  2592   0.175E-01    0.107E-01
DAV:   4    -0.136977392843E+04    0.18261E-03   -0.10119E-03  2592   0.780E-02    0.770E-02
DAV:   5    -0.136977374280E+04    0.18563E-03   -0.65189E-04  2216   0.502E-02    0.284E-02
DAV:   6    -0.136977376312E+04   -0.20322E-04   -0.43013E-04  2384   0.377E-02    0.282E-02
DAV:   7    -0.136977376112E+04    0.19975E-05   -0.17331E-04  2360   0.237E-02    0.194E-02
DAV:   8    -0.136977375928E+04    0.18452E-05   -0.56870E-05  2528   0.147E-02    0.976E-03
DAV:   9    -0.136977375833E+04    0.94768E-06   -0.11477E-05  1976   0.755E-03    0.678E-03
DAV:  10    -0.136977375815E+04    0.17665E-06   -0.21311E-06  1008   0.467E-03
  19 F= -.13697738E+04 E0= -.13697738E+04  d E =-.990503E-01
 BRION: g(F)=  0.168E+00 g(S)=  0.000E+00 retain N=  2 mean eig= 3.80
 eig:   3.799  3.799
 bond charge predicted
       N       E                     dE             d eps       ncg     rms          rms(c)
DAV:   1    -0.136996434608E+04   -0.19059E+00   -0.21235E+01  1384   0.652E+00    0.747E-01
DAV:   2    -0.137007664740E+04   -0.11230E+00   -0.11861E+00  2304   0.268E+00    0.377E-01
DAV:   3    -0.137008316192E+04   -0.65145E-02   -0.92620E-02  2568   0.490E-01    0.300E-01
DAV:   4    -0.137008173434E+04    0.14276E-02   -0.83762E-03  2576   0.217E-01    0.212E-01
DAV:   5    -0.137008035797E+04    0.13764E-02   -0.44942E-03  2296   0.136E-01    0.782E-02
DAV:   6    -0.137008048694E+04   -0.12897E-03   -0.29358E-03  2424   0.971E-02    0.639E-02
DAV:   7    -0.137008049158E+04   -0.46371E-05   -0.96616E-04  2480   0.576E-02    0.471E-02
DAV:   8    -0.137008048401E+04    0.75630E-05   -0.36860E-04  2560   0.370E-02    0.256E-02
DAV:   9    -0.137008047843E+04    0.55888E-05   -0.83586E-05  2208   0.195E-02    0.178E-02
DAV:  10    -0.137008047914E+04   -0.71451E-06   -0.38591E-05  2376   0.121E-02    0.928E-03
DAV:  11    -0.137008047899E+04    0.15546E-06   -0.95427E-06  1832   0.764E-03
  20 F= -.13700805E+04 E0= -.13700805E+04  d E =-.306721E+00
 BRION: g(F)=  0.163E+00 g(S)=  0.000E+00 retain N=  2 mean eig= 5.12
 eig:   3.758  6.488
