 running on  160 total cores
 distrk:  each k-point on  160 cores,    1 groups
 distr:  one band on   20 cores,    8 groups
 using from now: INCAR     
 vasp.5.4.4.18Apr17-6-g9f103f2a35 (build May 01 2020 14:22:42) gamma-only       
  
 POSCAR found type information on POSCAR  O  La Zr Li Al
 POSCAR found :  5 types and     192 ions
 scaLAPACK will be used
 LDA part: xc-table for Pade appr. of Perdew
 POSCAR, INCAR and KPOINTS ok, starting setup
 FFT: planning ...
 WAVECAR not read
 WARNING: random wavefunctions but no delay for mixing, default for NELMDL
 entering main loop
       N       E                     dE             d eps       ncg     rms          rms(c)
DAV:   1     0.251995750529E+05    0.25200E+05   -0.42281E+05  1584   0.253E+03
DAV:   2     0.934681264207E+04   -0.15853E+05   -0.14574E+05  1408   0.701E+02
DAV:   3     0.263630521459E+04   -0.67105E+04   -0.61261E+04  1504   0.357E+02
DAV:   4    -0.395679928847E+03   -0.30320E+04   -0.28414E+04  2040   0.223E+02
DAV:   5    -0.142875715014E+04   -0.10331E+04   -0.99597E+03  2528   0.138E+02    0.117E+02
DAV:   6    -0.131110854361E+04    0.11765E+03   -0.14408E+03  2440   0.656E+01    0.503E+01
DAV:   7    -0.133556478992E+04   -0.24456E+02   -0.39783E+02  2544   0.336E+01    0.242E+01
DAV:   8    -0.134644307795E+04   -0.10878E+02   -0.26773E+02  2520   0.270E+01    0.268E+01
DAV:   9    -0.133830731473E+04    0.81358E+01   -0.66161E+01  2456   0.155E+01    0.722E+00
DAV:  10    -0.133983604489E+04   -0.15287E+01   -0.15409E+01  2592   0.883E+00    0.847E+00
DAV:  11    -0.133987240367E+04   -0.36359E-01   -0.86041E+00  2616   0.489E+00    0.395E+00
DAV:  12    -0.133974211463E+04    0.13029E+00   -0.31056E+00  2584   0.396E+00    0.276E+00
DAV:  13    -0.133984377292E+04   -0.10166E+00   -0.10177E+00  2560   0.192E+00    0.230E+00
DAV:  14    -0.133980962264E+04    0.34150E-01   -0.41499E-01  2608   0.129E+00    0.127E+00
DAV:  15    -0.133982134676E+04   -0.11724E-01   -0.14105E-01  2552   0.748E-01    0.115E+00
DAV:  16    -0.133982146096E+04   -0.11421E-03   -0.41479E-02  2624   0.404E-01    0.773E-01
DAV:  17    -0.133981615916E+04    0.53018E-02   -0.28835E-02  2440   0.343E-01    0.394E-01
DAV:  18    -0.133981661821E+04   -0.45904E-03   -0.71518E-03  2520   0.177E-01    0.236E-01
DAV:  19    -0.133981629124E+04    0.32697E-03   -0.31510E-03  2560   0.106E-01    0.177E-01
DAV:  20    -0.133981627338E+04    0.17863E-04   -0.11748E-03  2576   0.714E-02    0.626E-02
DAV:  21    -0.133981628338E+04   -0.10006E-04   -0.27846E-04  2568   0.372E-02    0.646E-02
DAV:  22    -0.133981629189E+04   -0.85122E-05   -0.12140E-04  2496   0.243E-02    0.298E-02
DAV:  23    -0.133981629675E+04   -0.48594E-05   -0.32319E-05  2256   0.112E-02    0.173E-02
DAV:  24    -0.133981629908E+04   -0.23282E-05   -0.79512E-06  1200   0.776E-03    0.107E-02
DAV:  25    -0.133981630147E+04   -0.23873E-05   -0.54683E-06  1216   0.576E-03    0.767E-03
DAV:  26    -0.133981630122E+04    0.24913E-06   -0.18412E-06  1016   0.494E-03
   1 F= -.13398163E+04 E0= -.13398163E+04  d E =-.133982E+04
 BRION: g(F)=  0.388E+02 g(S)=  0.000E+00
 bond charge predicted
       N       E                     dE             d eps       ncg     rms          rms(c)
DAV:   1    -0.132803577283E+04    0.11781E+02   -0.45981E+03  1640   0.103E+02    0.192E+01
DAV:   2    -0.135766650408E+04   -0.29631E+02   -0.35400E+02  2576   0.450E+01    0.998E+00
DAV:   3    -0.135740937459E+04    0.25713E+00   -0.23652E+01  2608   0.123E+01    0.723E+00
DAV:   4    -0.135639120369E+04    0.10182E+01   -0.49758E+00  2568   0.474E+00    0.395E+00
DAV:   5    -0.135599480821E+04    0.39640E+00   -0.16724E+00  2272   0.328E+00    0.217E+00
DAV:   6    -0.135596975642E+04    0.25052E-01   -0.19309E+00  2400   0.269E+00    0.109E+00
DAV:   7    -0.135600633202E+04   -0.36576E-01   -0.64510E-01  2336   0.155E+00    0.118E+00
DAV:   8    -0.135600087951E+04    0.54525E-02   -0.12303E-01  2616   0.639E-01    0.721E-01
DAV:   9    -0.135599794845E+04    0.29311E-02   -0.90037E-02  2616   0.539E-01    0.400E-01
DAV:  10    -0.135599850285E+04   -0.55440E-03   -0.21532E-02  2536   0.342E-01    0.338E-01
DAV:  11    -0.135599737472E+04    0.11281E-02   -0.14922E-02  2528   0.238E-01    0.183E-01
DAV:  12    -0.135599776730E+04   -0.39258E-03   -0.95134E-03  2464   0.161E-01    0.139E-01
DAV:  13    -0.135599753546E+04    0.23184E-03   -0.23798E-03  2584   0.935E-02    0.454E-02
DAV:  14    -0.135599758589E+04   -0.50421E-04   -0.77491E-04  2584   0.535E-02    0.295E-02
DAV:  15    -0.135599759224E+04   -0.63534E-05   -0.13234E-04  2528   0.273E-02    0.188E-02
DAV:  16    -0.135599759225E+04   -0.84547E-08   -0.86271E-05  2480   0.158E-02    0.926E-03
DAV:  17    -0.135599759228E+04   -0.34590E-07   -0.15235E-05  2056   0.969E-03    0.710E-03
DAV:  18    -0.135599759208E+04    0.20319E-06   -0.40575E-06  1288   0.482E-03
   2 F= -.13559976E+04 E0= -.13559976E+04  d E =-.161813E+02
 BRION: g(F)=  0.170E+02 g(S)=  0.000E+00 retain N=  1 mean eig= 0.66
 eig:   0.659
 bond charge predicted
       N       E                     dE             d eps       ncg     rms          rms(c)
DAV:   1    -0.135173002848E+04    0.42676E+01   -0.14987E+03  1456   0.547E+01    0.107E+01
DAV:   2    -0.136107131707E+04   -0.93413E+01   -0.11429E+02  2496   0.240E+01    0.888E+00
DAV:   3    -0.136140363395E+04   -0.33232E+00   -0.88718E+00  2584   0.679E+00    0.709E+00
DAV:   4    -0.136110334557E+04    0.30029E+00   -0.21647E+00  2600   0.311E+00    0.406E+00
DAV:   5    -0.136100645521E+04    0.96890E-01   -0.10505E+00  2144   0.241E+00    0.245E+00
DAV:   6    -0.136095269770E+04    0.53758E-01   -0.98363E-01  2496   0.183E+00    0.126E+00
DAV:   7    -0.136095864970E+04   -0.59520E-02   -0.30883E-01  2496   0.104E+00    0.714E-01
DAV:   8    -0.136095757797E+04    0.10717E-02   -0.41822E-02  2624   0.437E-01    0.478E-01
DAV:   9    -0.136095795240E+04   -0.37443E-03   -0.21420E-02  2608   0.283E-01    0.366E-01
DAV:  10    -0.136095662520E+04    0.13272E-02   -0.58305E-03  2368   0.194E-01    0.251E-01
DAV:  11    -0.136095653112E+04    0.94085E-04   -0.12102E-02  2368   0.164E-01    0.957E-02
DAV:  12    -0.136095641709E+04    0.11403E-03   -0.14423E-03  2432   0.902E-02    0.406E-02
DAV:  13    -0.136095646895E+04   -0.51864E-04   -0.66276E-04  2528   0.483E-02    0.323E-02
DAV:  14    -0.136095645744E+04    0.11506E-04   -0.11350E-04  2504   0.267E-02    0.161E-02
DAV:  15    -0.136095646456E+04   -0.71102E-05   -0.12149E-04  2344   0.176E-02    0.130E-02
DAV:  16    -0.136095646388E+04    0.67776E-06   -0.13298E-05  1896   0.868E-03    0.967E-03
DAV:  17    -0.136095646272E+04    0.11611E-05   -0.81680E-06  1528   0.667E-03    0.451E-03
DAV:  18    -0.136095646279E+04   -0.75743E-07   -0.48336E-06  1288   0.542E-03
   3 F= -.13609565E+04 E0= -.13609565E+04  d E =-.495887E+01
 BRION: g(F)=  0.379E+01 g(S)=  0.000E+00 retain N=  2 mean eig= 0.81
 eig:   0.432  1.188
 bond charge predicted
       N       E                     dE             d eps       ncg     rms          rms(c)
DAV:   1    -0.136203321582E+04   -0.10768E+01   -0.32757E+02  1368   0.261E+01    0.499E+00
DAV:   2    -0.136361360407E+04   -0.15804E+01   -0.17634E+01  2288   0.101E+01    0.216E+00
DAV:   3    -0.136367220810E+04   -0.58604E-01   -0.14494E+00  2592   0.218E+00    0.185E+00
DAV:   4    -0.136362902303E+04    0.43185E-01   -0.29118E-01  2600   0.116E+00    0.985E-01
DAV:   5    -0.136362069272E+04    0.83303E-02   -0.12416E-01  2248   0.686E-01    0.558E-01
DAV:   6    -0.136362017245E+04    0.52027E-03   -0.51619E-02  2584   0.460E-01    0.392E-01
DAV:   7    -0.136361943058E+04    0.74186E-03   -0.30407E-02  2376   0.309E-01    0.230E-01
DAV:   8    -0.136361934430E+04    0.86276E-04   -0.78537E-03  2608   0.173E-01    0.130E-01
DAV:   9    -0.136361926721E+04    0.77093E-04   -0.18179E-03  2584   0.906E-02    0.851E-02
DAV:  10    -0.136361937231E+04   -0.10510E-03   -0.15536E-03  2256   0.660E-02    0.844E-02
DAV:  11    -0.136361928182E+04    0.90492E-04   -0.77981E-04  2504   0.538E-02    0.313E-02
DAV:  12    -0.136361929630E+04   -0.14483E-04   -0.35761E-04  2528   0.348E-02    0.266E-02
DAV:  13    -0.136361929029E+04    0.60169E-05   -0.80303E-05  2440   0.192E-02    0.117E-02
DAV:  14    -0.136361929224E+04   -0.19492E-05   -0.30119E-05  2304   0.101E-02    0.462E-03
DAV:  15    -0.136361929240E+04   -0.16340E-06   -0.27108E-06  1080   0.569E-03
   4 F= -.13636193E+04 E0= -.13636193E+04  d E =-.266283E+01
 BRION: g(F)=  0.119E+01 g(S)=  0.000E+00 retain N=  3 mean eig= 1.35
 eig:   0.779  1.637  1.637
 bond charge predicted
       N       E                     dE             d eps       ncg     rms          rms(c)
DAV:   1    -0.136415234822E+04   -0.53306E+00   -0.19752E+02  1360   0.203E+01    0.252E+00
DAV:   2    -0.136510921915E+04   -0.95687E+00   -0.10152E+01  2320   0.758E+00    0.129E+00
DAV:   3    -0.136515196305E+04   -0.42744E-01   -0.75044E-01  2592   0.153E+00    0.104E+00
DAV:   4    -0.136513483565E+04    0.17127E-01   -0.95378E-02  2600   0.699E-01    0.665E-01
DAV:   5    -0.136512485821E+04    0.99774E-02   -0.48952E-02  2280   0.435E-01    0.284E-01
DAV:   6    -0.136512588004E+04   -0.10218E-02   -0.25920E-02  2424   0.320E-01    0.255E-01
DAV:   7    -0.136512557057E+04    0.30947E-03   -0.15836E-02  2368   0.229E-01    0.170E-01
DAV:   8    -0.136512555682E+04    0.13750E-04   -0.55524E-03  2592   0.140E-01    0.104E-01
DAV:   9    -0.136512548441E+04    0.72402E-04   -0.10395E-03  2584   0.706E-02    0.727E-02
DAV:  10    -0.136512550303E+04   -0.18619E-04   -0.91406E-04  2360   0.497E-02    0.503E-02
DAV:  11    -0.136512548208E+04    0.20953E-04   -0.35827E-04  2512   0.406E-02    0.226E-02
DAV:  12    -0.136512548876E+04   -0.66821E-05   -0.17067E-04  2456   0.260E-02    0.234E-02
DAV:  13    -0.136512548283E+04    0.59341E-05   -0.54699E-05  2296   0.148E-02    0.122E-02
DAV:  14    -0.136512548314E+04   -0.31540E-06   -0.36161E-05  2024   0.999E-03    0.608E-03
DAV:  15    -0.136512548285E+04    0.29159E-06   -0.22366E-06  1040   0.601E-03
   5 F= -.13651255E+04 E0= -.13651255E+04  d E =-.150619E+01
 BRION: g(F)=  0.658E+00 g(S)=  0.000E+00 retain N=  4 mean eig= 1.67
 eig:   2.234  2.234  1.105  1.105
 bond charge predicted
       N       E                     dE             d eps       ncg     rms          rms(c)
DAV:   1    -0.136550465663E+04   -0.37917E+00   -0.85869E+01  1360   0.134E+01    0.171E+00
DAV:   2    -0.136593545741E+04   -0.43080E+00   -0.46422E+00  2328   0.521E+00    0.881E-01
DAV:   3    -0.136595961525E+04   -0.24158E-01   -0.36379E-01  2584   0.107E+00    0.742E-01
DAV:   4    -0.136595373244E+04    0.58828E-02   -0.44149E-02  2608   0.484E-01    0.499E-01
DAV:   5    -0.136594980068E+04    0.39318E-02   -0.28699E-02  2192   0.318E-01    0.223E-01
DAV:   6    -0.136595062652E+04   -0.82584E-03   -0.12922E-02  2552   0.225E-01    0.243E-01
DAV:   7    -0.136595006407E+04    0.56245E-03   -0.93796E-03  2440   0.175E-01    0.138E-01
DAV:   8    -0.136595000155E+04    0.62517E-04   -0.30286E-03  2520   0.107E-01    0.711E-02
DAV:   9    -0.136594999234E+04    0.92055E-05   -0.45749E-04  2584   0.472E-02    0.468E-02
DAV:  10    -0.136595000603E+04   -0.13692E-04   -0.32496E-04  2376   0.305E-02    0.251E-02
DAV:  11    -0.136594999983E+04    0.62036E-05   -0.83309E-05  2480   0.227E-02    0.114E-02
DAV:  12    -0.136595000487E+04   -0.50374E-05   -0.69483E-05  2360   0.149E-02    0.161E-02
DAV:  13    -0.136595000090E+04    0.39665E-05   -0.23685E-05  2008   0.995E-03    0.642E-03
DAV:  14    -0.136595000102E+04   -0.11730E-06   -0.65273E-06  1528   0.637E-03
   6 F= -.13659500E+04 E0= -.13659500E+04  d E =-.824518E+00
 BRION: g(F)=  0.416E+00 g(S)=  0.000E+00 retain N=  5 mean eig= 2.27
 eig:   3.827  3.827  1.400  1.400  0.917
 bond charge predicted
       N       E                     dE             d eps       ncg     rms          rms(c)
DAV:   1    -0.136622370537E+04   -0.27370E+00   -0.11136E+02  1360   0.149E+01    0.176E+00
DAV:   2    -0.136675582587E+04   -0.53212E+00   -0.55679E+00  2312   0.567E+00    0.905E-01
DAV:   3    -0.136678252657E+04   -0.26701E-01   -0.41029E-01  2600   0.107E+00    0.702E-01
DAV:   4    -0.136677372233E+04    0.88042E-02   -0.45877E-02  2584   0.490E-01    0.438E-01
DAV:   5    -0.136676952430E+04    0.41980E-02   -0.23786E-02  2344   0.321E-01    0.174E-01
DAV:   6    -0.136677039659E+04   -0.87230E-03   -0.12057E-02  2552   0.210E-01    0.158E-01
DAV:   7    -0.136677024432E+04    0.15228E-03   -0.38212E-03  2520   0.124E-01    0.107E-01
DAV:   8    -0.136677021603E+04    0.28283E-04   -0.20164E-03  2536   0.807E-02    0.548E-02
DAV:   9    -0.136677019793E+04    0.18101E-04   -0.29149E-04  2552   0.394E-02    0.389E-02
DAV:  10    -0.136677019938E+04   -0.14428E-05   -0.24654E-04  2432   0.287E-02    0.230E-02
DAV:  11    -0.136677019822E+04    0.11589E-05   -0.67887E-05  2456   0.190E-02    0.106E-02
DAV:  12    -0.136677020102E+04   -0.28070E-05   -0.39736E-05  2312   0.111E-02    0.118E-02
DAV:  13    -0.136677019936E+04    0.16609E-05   -0.11919E-05  1768   0.737E-03    0.575E-03
DAV:  14    -0.136677019934E+04    0.20285E-07   -0.62594E-06  1504   0.557E-03
   7 F= -.13667702E+04 E0= -.13667702E+04  d E =-.820198E+00
 BRION: g(F)=  0.273E+00 g(S)=  0.000E+00 retain N=  6 mean eig= 3.09
 eig:   5.936  5.936  2.151  2.151  1.177  1.177
 bond charge predicted
       N       E                     dE             d eps       ncg     rms          rms(c)
DAV:   1    -0.136695764940E+04   -0.18745E+00   -0.87578E+01  1376   0.132E+01    0.158E+00
DAV:   2    -0.136739074922E+04   -0.43310E+00   -0.45614E+00  2296   0.521E+00    0.792E-01
DAV:   3    -0.136741596111E+04   -0.25212E-01   -0.35534E-01  2584   0.970E-01    0.633E-01
DAV:   4    -0.136741037729E+04    0.55838E-02   -0.35524E-02  2600   0.439E-01    0.422E-01
DAV:   5    -0.136740648935E+04    0.38879E-02   -0.19603E-02  2328   0.285E-01    0.159E-01
DAV:   6    -0.136740724275E+04   -0.75339E-03   -0.99575E-03  2512   0.191E-01    0.153E-01
DAV:   7    -0.136740712390E+04    0.11884E-03   -0.38991E-03  2560   0.120E-01    0.999E-02
DAV:   8    -0.136740706516E+04    0.58739E-04   -0.15331E-03  2576   0.759E-02    0.511E-02
DAV:   9    -0.136740705694E+04    0.82291E-05   -0.27983E-04  2544   0.364E-02    0.357E-02
DAV:  10    -0.136740706248E+04   -0.55436E-05   -0.16120E-04  2584   0.236E-02    0.192E-02
DAV:  11    -0.136740706114E+04    0.13383E-05   -0.43034E-05  2440   0.155E-02    0.961E-03
DAV:  12    -0.136740706300E+04   -0.18585E-05   -0.27337E-05  2288   0.993E-03    0.101E-02
DAV:  13    -0.136740706178E+04    0.12195E-05   -0.92407E-06  1600   0.668E-03    0.444E-03
DAV:  14    -0.136740706166E+04    0.11739E-06   -0.26206E-06  1056   0.561E-03
   8 F= -.13674071E+04 E0= -.13674071E+04  d E =-.636862E+00
 BRION: g(F)=  0.203E+00 g(S)=  0.000E+00 retain N=  5 mean eig= 4.23
 eig:   7.681  7.681  2.304  2.304  1.167
 bond charge predicted
       N       E                     dE             d eps       ncg     rms          rms(c)
DAV:   1    -0.136756585009E+04   -0.15879E+00   -0.64745E+01  1376   0.114E+01    0.134E+00
DAV:   2    -0.136789067793E+04   -0.32483E+00   -0.34331E+00  2304   0.450E+00    0.666E-01
DAV:   3    -0.136791060906E+04   -0.19931E-01   -0.27523E-01  2592   0.857E-01    0.531E-01
DAV:   4    -0.136790663674E+04    0.39723E-02   -0.24856E-02  2600   0.380E-01    0.367E-01
DAV:   5    -0.136790333144E+04    0.33053E-02   -0.14390E-02  2312   0.248E-01    0.138E-01
DAV:   6    -0.136790385849E+04   -0.52705E-03   -0.85481E-03  2480   0.174E-01    0.130E-01
DAV:   7    -0.136790382013E+04    0.38354E-04   -0.29301E-03  2544   0.105E-01    0.890E-02
DAV:   8    -0.136790377427E+04    0.45859E-04   -0.11588E-03  2600   0.652E-02    0.436E-02
DAV:   9    -0.136790376389E+04    0.10384E-04   -0.21009E-04  2336   0.320E-02    0.310E-02
DAV:  10    -0.136790376636E+04   -0.24724E-05   -0.11362E-04  2384   0.206E-02    0.156E-02
DAV:  11    -0.136790376628E+04    0.82262E-07   -0.27865E-05  2360   0.129E-02    0.817E-03
DAV:  12    -0.136790376789E+04   -0.16079E-05   -0.21030E-05  2112   0.822E-03    0.845E-03
DAV:  13    -0.136790376673E+04    0.11582E-05   -0.34045E-06  1152   0.578E-03    0.471E-03
DAV:  14    -0.136790376770E+04   -0.96705E-06   -0.15731E-05  1608   0.747E-03    0.534E-03
DAV:  15    -0.136790376711E+04    0.58777E-06   -0.11664E-06   976   0.502E-03
   9 F= -.13679038E+04 E0= -.13679038E+04  d E =-.496705E+00
 BRION: g(F)=  0.165E+00 g(S)=  0.000E+00 retain N=  3 mean eig= 5.83
 eig:   7.487  7.487  2.521
 bond charge predicted
       N       E                     dE             d eps       ncg     rms          rms(c)
DAV:   1    -0.136804963317E+04   -0.14587E+00   -0.49116E+01  1384   0.100E+01    0.116E+00
DAV:   2    -0.136830333605E+04   -0.25370E+00   -0.26842E+00  2312   0.401E+00    0.574E-01
DAV:   3    -0.136831913338E+04   -0.15797E-01   -0.21362E-01  2584   0.753E-01    0.462E-01
DAV:   4    -0.136831657870E+04    0.25547E-02   -0.19187E-02  2624   0.334E-01    0.335E-01
DAV:   5    -0.136831373021E+04    0.28485E-02   -0.10390E-02  2296   0.206E-01    0.132E-01
DAV:   6    -0.136831400208E+04   -0.27188E-03   -0.68165E-03  2400   0.153E-01    0.110E-01
DAV:   7    -0.136831399018E+04    0.11899E-04   -0.28854E-03  2480   0.999E-02    0.785E-02
DAV:   8    -0.136831396244E+04    0.27745E-04   -0.10195E-03  2568   0.630E-02    0.441E-02
DAV:   9    -0.136831395080E+04    0.11644E-04   -0.22837E-04  2344   0.315E-02    0.295E-02
DAV:  10    -0.136831395430E+04   -0.35057E-05   -0.11500E-04  2376   0.196E-02    0.155E-02
DAV:  11    -0.136831395458E+04   -0.28135E-06   -0.29087E-05  2392   0.128E-02    0.858E-03
DAV:  12    -0.136831395551E+04   -0.92185E-06   -0.19485E-05  2144   0.869E-03    0.890E-03
DAV:  13    -0.136831395449E+04    0.10153E-05   -0.67354E-06  1504   0.611E-03    0.445E-03
DAV:  14    -0.136831395455E+04   -0.58411E-07   -0.60703E-06  1408   0.590E-03
  10 F= -.13683140E+04 E0= -.13683140E+04  d E =-.410187E+00
 BRION: g(F)=  0.143E+00 g(S)=  0.000E+00 retain N=  2 mean eig= 4.82
 eig:   4.825  4.825
 bond charge predicted
       N       E                     dE             d eps       ncg     rms          rms(c)
DAV:   1    -0.136844678709E+04   -0.13283E+00   -0.43533E+01  1384   0.940E+00    0.109E+00
DAV:   2    -0.136867452929E+04   -0.22774E+00   -0.24115E+00  2304   0.379E+00    0.538E-01
DAV:   3    -0.136868872284E+04   -0.14194E-01   -0.19336E-01  2576   0.714E-01    0.433E-01
DAV:   4    -0.136868629963E+04    0.24232E-02   -0.17404E-02  2600   0.319E-01    0.314E-01
DAV:   5    -0.136868372735E+04    0.25723E-02   -0.94789E-03  2320   0.194E-01    0.123E-01
DAV:   6    -0.136868395049E+04   -0.22314E-03   -0.60113E-03  2408   0.144E-01    0.101E-01
DAV:   7    -0.136868395208E+04   -0.15883E-05   -0.26521E-03  2480   0.946E-02    0.716E-02
DAV:   8    -0.136868393330E+04    0.18780E-04   -0.89569E-04  2576   0.599E-02    0.412E-02
DAV:   9    -0.136868392321E+04    0.10087E-04   -0.20398E-04  2384   0.300E-02    0.285E-02
DAV:  10    -0.136868392566E+04   -0.24549E-05   -0.99086E-05  2440   0.184E-02    0.155E-02
DAV:  11    -0.136868392637E+04   -0.70209E-06   -0.31637E-05  2352   0.126E-02    0.882E-03
DAV:  12    -0.136868392671E+04   -0.34021E-06   -0.15511E-05  2056   0.875E-03    0.848E-03
DAV:  13    -0.136868392604E+04    0.66390E-06   -0.88693E-06  1632   0.623E-03
  11 F= -.13686839E+04 E0= -.13686839E+04  d E =-.369971E+00
 BRION: g(F)=  0.128E+00 g(S)=  0.000E+00 retain N=  2 mean eig= 4.97
 eig:   4.966  4.966
 bond charge predicted
       N       E                     dE             d eps       ncg     rms          rms(c)
DAV:   1    -0.136880772124E+04   -0.12379E+00   -0.37114E+01  1384   0.873E+00    0.100E+00
DAV:   2    -0.136900160863E+04   -0.19389E+00   -0.20527E+00  2312   0.351E+00    0.496E-01
DAV:   3    -0.136901362087E+04   -0.12012E-01   -0.16369E-01  2584   0.662E-01    0.404E-01
DAV:   4    -0.136901169399E+04    0.19269E-02   -0.14296E-02  2600   0.290E-01    0.300E-01
DAV:   5    -0.136900923955E+04    0.24544E-02   -0.82567E-03  2272   0.180E-01    0.120E-01
DAV:   6    -0.136900940632E+04   -0.16677E-03   -0.57094E-03  2384   0.139E-01    0.101E-01
DAV:   7    -0.136900939106E+04    0.15265E-04   -0.26025E-03  2440   0.917E-02    0.719E-02
DAV:   8    -0.136900936546E+04    0.25602E-04   -0.86844E-04  2568   0.599E-02    0.411E-02
DAV:   9    -0.136900935695E+04    0.85028E-05   -0.20917E-04  2408   0.295E-02    0.268E-02
DAV:  10    -0.136900935974E+04   -0.27863E-05   -0.76197E-05  2464   0.165E-02    0.148E-02
DAV:  11    -0.136900936083E+04   -0.10938E-05   -0.25042E-05  2336   0.113E-02    0.927E-03
DAV:  12    -0.136900936066E+04    0.17506E-06   -0.14399E-05  1928   0.830E-03    0.837E-03
DAV:  13    -0.136900936017E+04    0.49199E-06   -0.81867E-06  1664   0.596E-03
  12 F= -.13690094E+04 E0= -.13690094E+04  d E =-.325434E+00
 BRION: g(F)=  0.116E+00 g(S)=  0.000E+00 retain N=  2 mean eig= 4.91
 eig:   4.911  4.911
 bond charge predicted
       N       E                     dE             d eps       ncg     rms          rms(c)
DAV:   1    -0.136912204495E+04   -0.11268E+00   -0.34176E+01  1384   0.835E+00    0.953E-01
DAV:   2    -0.136929892945E+04   -0.17688E+00   -0.18654E+00  2304   0.334E+00    0.471E-01
DAV:   3    -0.136930968851E+04   -0.10759E-01   -0.14808E-01  2576   0.633E-01    0.379E-01
DAV:   4    -0.136930775424E+04    0.19343E-02   -0.12894E-02  2584   0.272E-01    0.279E-01
DAV:   5    -0.136930544540E+04    0.23088E-02   -0.75403E-03  2248   0.171E-01    0.106E-01
DAV:   6    -0.136930564502E+04   -0.19962E-03   -0.51304E-03  2392   0.128E-01    0.907E-02
DAV:   7    -0.136930563690E+04    0.81240E-05   -0.19481E-03  2424   0.802E-02    0.639E-02
DAV:   8    -0.136930561705E+04    0.19848E-04   -0.68089E-04  2568   0.515E-02    0.351E-02
DAV:   9    -0.136930560913E+04    0.79182E-05   -0.15412E-04  2280   0.263E-02    0.242E-02
DAV:  10    -0.136930561062E+04   -0.14869E-05   -0.67072E-05  2368   0.155E-02    0.124E-02
DAV:  11    -0.136930561095E+04   -0.33440E-06   -0.18097E-05  2208   0.100E-02    0.607E-03
DAV:  12    -0.136930561161E+04   -0.65926E-06   -0.11127E-05  1768   0.675E-03    0.617E-03
DAV:  13    -0.136930561109E+04    0.51816E-06   -0.16341E-06   984   0.467E-03
  13 F= -.13693056E+04 E0= -.13693056E+04  d E =-.296251E+00
 BRION: g(F)=  0.105E+00 g(S)=  0.000E+00 retain N=  2 mean eig= 4.83
 eig:   4.827  4.827
 bond charge predicted
       N       E                     dE             d eps       ncg     rms          rms(c)
DAV:   1    -0.136939945895E+04   -0.93847E-01   -0.38078E+01  1384   0.878E+00    0.996E-01
DAV:   2    -0.136959674758E+04   -0.19729E+00   -0.20811E+00  2304   0.351E+00    0.498E-01
DAV:   3    -0.136960885057E+04   -0.12103E-01   -0.16609E-01  2584   0.669E-01    0.407E-01
DAV:   4    -0.136960686044E+04    0.19901E-02   -0.14281E-02  2608   0.288E-01    0.304E-01
DAV:   5    -0.136960411118E+04    0.27493E-02   -0.81295E-03  2248   0.180E-01    0.123E-01
DAV:   6    -0.136960425324E+04   -0.14206E-03   -0.62671E-03  2336   0.142E-01    0.101E-01
DAV:   7    -0.136960424192E+04    0.11316E-04   -0.27091E-03  2440   0.936E-02    0.752E-02
DAV:   8    -0.136960420730E+04    0.34618E-04   -0.86543E-04  2536   0.602E-02    0.419E-02
DAV:   9    -0.136960419519E+04    0.12114E-04   -0.24353E-04  2312   0.309E-02    0.263E-02
DAV:  10    -0.136960419976E+04   -0.45693E-05   -0.83426E-05  2392   0.173E-02    0.163E-02
DAV:  11    -0.136960419964E+04    0.11787E-06   -0.29930E-05  2336   0.122E-02    0.986E-03
DAV:  12    -0.136960419963E+04    0.41618E-08   -0.17626E-05  2056   0.882E-03    0.907E-03
DAV:  13    -0.136960419898E+04    0.65580E-06   -0.81193E-06  1696   0.592E-03
  14 F= -.13696042E+04 E0= -.13696042E+04  d E =-.298588E+00
 BRION: g(F)=  0.950E-01 g(S)=  0.000E+00 retain N=  2 mean eig= 5.12
 eig:   5.120  5.120
 bond charge predicted
       N       E                     dE             d eps       ncg     rms          rms(c)
DAV:   1    -0.136966565293E+04   -0.61453E-01   -0.44982E+01  1376   0.955E+00    0.107E+00
DAV:   2    -0.136989451468E+04   -0.22886E+00   -0.24056E+00  2296   0.375E+00    0.539E-01
DAV:   3    -0.136990831753E+04   -0.13803E-01   -0.19058E-01  2584   0.722E-01    0.435E-01
DAV:   4    -0.136990589304E+04    0.24245E-02   -0.16263E-02  2600   0.302E-01    0.323E-01
DAV:   5    -0.136990266475E+04    0.32283E-02   -0.92991E-03  2200   0.194E-01    0.127E-01
DAV:   6    -0.136990289886E+04   -0.23411E-03   -0.72175E-03  2336   0.148E-01    0.108E-01
DAV:   7    -0.136990288544E+04    0.13419E-04   -0.26361E-03  2416   0.922E-02    0.804E-02
DAV:   8    -0.136990284017E+04    0.45270E-04   -0.93567E-04  2592   0.601E-02    0.423E-02
DAV:   9    -0.136990282521E+04    0.14966E-04   -0.24506E-04  2240   0.317E-02    0.272E-02
DAV:  10    -0.136990282855E+04   -0.33427E-05   -0.86894E-05  2296   0.179E-02    0.152E-02
DAV:  11    -0.136990282777E+04    0.78074E-06   -0.25900E-05  2320   0.112E-02    0.621E-03
DAV:  12    -0.136990282869E+04   -0.91962E-06   -0.14396E-05  1960   0.758E-03    0.572E-03
DAV:  13    -0.136990282834E+04    0.35248E-06   -0.14645E-06   984   0.443E-03
  15 F= -.13699028E+04 E0= -.13699028E+04  d E =-.298629E+00
 BRION: g(F)=  0.841E-01 g(S)=  0.000E+00 retain N=  2 mean eig= 6.15
 eig:   6.154  6.154
 bond charge predicted
       N       E                     dE             d eps       ncg     rms          rms(c)
DAV:   1    -0.136996264645E+04   -0.59818E-01   -0.37045E+01  1376   0.857E+00    0.956E-01
DAV:   2    -0.137014799817E+04   -0.18535E+00   -0.19436E+00  2288   0.334E+00    0.484E-01
DAV:   3    -0.137015905795E+04   -0.11060E-01   -0.15376E-01  2592   0.639E-01    0.390E-01
DAV:   4    -0.137015701954E+04    0.20384E-02   -0.12740E-02  2600   0.267E-01    0.287E-01
DAV:   5    -0.137015435021E+04    0.26693E-02   -0.72747E-03  2208   0.172E-01    0.113E-01
DAV:   6    -0.137015450997E+04   -0.15976E-03   -0.57509E-03  2288   0.132E-01    0.922E-02
DAV:   7    -0.137015451452E+04   -0.45557E-05   -0.20737E-03  2432   0.816E-02    0.704E-02
DAV:   8    -0.137015448410E+04    0.30427E-04   -0.70092E-04  2536   0.513E-02    0.385E-02
DAV:   9    -0.137015446735E+04    0.16752E-04   -0.21681E-04  2240   0.292E-02    0.238E-02
DAV:  10    -0.137015447147E+04   -0.41289E-05   -0.78216E-05  2312   0.168E-02    0.154E-02
DAV:  11    -0.137015446962E+04    0.18500E-05   -0.24512E-05  2176   0.111E-02    0.642E-03
DAV:  12    -0.137015447048E+04   -0.85420E-06   -0.13678E-05  1800   0.754E-03    0.619E-03
DAV:  13    -0.137015446997E+04    0.50520E-06   -0.16377E-06   992   0.469E-03
  16 F= -.13701545E+04 E0= -.13701545E+04  d E =-.251642E+00
 BRION: g(F)=  0.753E-01 g(S)=  0.000E+00 retain N=  2 mean eig= 6.90
 eig:   6.901  6.901
 bond charge predicted
       N       E                     dE             d eps       ncg     rms          rms(c)
DAV:   1    -0.137018236011E+04   -0.27890E-01   -0.42778E+01  1376   0.923E+00    0.103E+00
DAV:   2    -0.137039474018E+04   -0.21238E+00   -0.22295E+00  2288   0.358E+00    0.523E-01
DAV:   3    -0.137040751746E+04   -0.12777E-01   -0.17755E-01  2592   0.688E-01    0.422E-01
DAV:   4    -0.137040515657E+04    0.23609E-02   -0.14933E-02  2600   0.287E-01    0.308E-01
DAV:   5    -0.137040224634E+04    0.29102E-02   -0.84690E-03  2216   0.183E-01    0.122E-01
DAV:   6    -0.137040244603E+04   -0.19970E-03   -0.63606E-03  2320   0.140E-01    0.104E-01
DAV:   7    -0.137040242290E+04    0.23135E-04   -0.24960E-03  2400   0.908E-02    0.765E-02
DAV:   8    -0.137040238485E+04    0.38049E-04   -0.90338E-04  2568   0.582E-02    0.426E-02
DAV:   9    -0.137040237164E+04    0.13210E-04   -0.23099E-04  2312   0.307E-02    0.279E-02
DAV:  10    -0.137040237363E+04   -0.19867E-05   -0.90756E-05  2328   0.176E-02    0.155E-02
DAV:  11    -0.137040237342E+04    0.21126E-06   -0.27357E-05  2272   0.117E-02    0.784E-03
DAV:  12    -0.137040237388E+04   -0.46291E-06   -0.16111E-05  1936   0.798E-03    0.723E-03
DAV:  13    -0.137040237322E+04    0.65901E-06   -0.26596E-06  1048   0.529E-03
  17 F= -.13704024E+04 E0= -.13704024E+04  d E =-.247903E+00
 BRION: g(F)=  0.668E-01 g(S)=  0.000E+00 retain N=  2 mean eig= 6.98
 eig:   6.976  6.976
 bond charge predicted
       N       E                     dE             d eps       ncg     rms          rms(c)
DAV:   1    -0.137042624239E+04   -0.23869E-01   -0.35856E+01  1368   0.841E+00    0.930E-01
DAV:   2    -0.137060207501E+04   -0.17583E+00   -0.18403E+00  2288   0.324E+00    0.475E-01
DAV:   3    -0.137061245675E+04   -0.10382E-01   -0.14502E-01  2576   0.616E-01    0.377E-01
DAV:   4    -0.137061043724E+04    0.20195E-02   -0.12336E-02  2584   0.257E-01    0.272E-01
DAV:   5    -0.137060811200E+04    0.23252E-02   -0.65732E-03  2208   0.164E-01    0.106E-01
DAV:   6    -0.137060825633E+04   -0.14434E-03   -0.49668E-03  2296   0.124E-01    0.851E-02
DAV:   7    -0.137060826929E+04   -0.12960E-04   -0.18333E-03  2400   0.768E-02    0.656E-02
DAV:   8    -0.137060824352E+04    0.25772E-04   -0.63764E-04  2544   0.481E-02    0.365E-02
DAV:   9    -0.137060823008E+04    0.13435E-04   -0.18745E-04  2264   0.276E-02    0.233E-02
DAV:  10    -0.137060823261E+04   -0.25286E-05   -0.75722E-05  2320   0.166E-02    0.146E-02
DAV:  11    -0.137060823124E+04    0.13756E-05   -0.24287E-05  2184   0.109E-02    0.619E-03
DAV:  12    -0.137060823198E+04   -0.74474E-06   -0.13047E-05  1792   0.719E-03    0.584E-03
DAV:  13    -0.137060823153E+04    0.44749E-06   -0.15828E-06   984   0.453E-03
  18 F= -.13706082E+04 E0= -.13706082E+04  d E =-.205858E+00
 BRION: g(F)=  0.591E-01 g(S)=  0.000E+00 retain N=  2 mean eig= 7.01
 eig:   7.013  7.013
 bond charge predicted
       N       E                     dE             d eps       ncg     rms          rms(c)
DAV:   1    -0.137064842155E+04   -0.40190E-01   -0.21866E+01  1368   0.657E+00    0.727E-01
DAV:   2    -0.137075582351E+04   -0.10740E+00   -0.11258E+00  2296   0.253E+00    0.373E-01
DAV:   3    -0.137076176220E+04   -0.59387E-02   -0.84852E-02  2584   0.490E-01    0.294E-01
DAV:   4    -0.137076043694E+04    0.13253E-02   -0.78108E-03  2592   0.203E-01    0.204E-01
DAV:   5    -0.137075926774E+04    0.11692E-02   -0.42113E-03  2256   0.128E-01    0.765E-02
DAV:   6    -0.137075939939E+04   -0.13164E-03   -0.24729E-03  2408   0.895E-02    0.672E-02
DAV:   7    -0.137075938244E+04    0.16943E-04   -0.93521E-04  2440   0.565E-02    0.459E-02
DAV:   8    -0.137075937510E+04    0.73465E-05   -0.40047E-04  2520   0.377E-02    0.277E-02
DAV:   9    -0.137075937164E+04    0.34538E-05   -0.80397E-05  2432   0.193E-02    0.205E-02
DAV:  10    -0.137075937036E+04    0.12775E-05   -0.40792E-05  2416   0.118E-02    0.101E-02
DAV:  11    -0.137075937044E+04   -0.72410E-07   -0.10834E-05  1760   0.807E-03    0.524E-03
DAV:  12    -0.137075937054E+04   -0.10333E-06   -0.76942E-06  1600   0.599E-03
  19 F= -.13707594E+04 E0= -.13707594E+04  d E =-.151139E+00
 BRION: g(F)=  0.533E-01 g(S)=  0.000E+00 retain N=  2 mean eig= 6.06
 eig:   6.058  6.058
 bond charge predicted
       N       E                     dE             d eps       ncg     rms          rms(c)
DAV:   1    -0.137074300071E+04    0.16370E-01   -0.39956E+01  1376   0.886E+00    0.973E-01
DAV:   2    -0.137093837591E+04   -0.19538E+00   -0.20425E+00  2312   0.341E+00    0.500E-01
DAV:   3    -0.137094909290E+04   -0.10717E-01   -0.15321E-01  2584   0.656E-01    0.391E-01
DAV:   4    -0.137094664565E+04    0.24473E-02   -0.13801E-02  2584   0.269E-01    0.271E-01
DAV:   5    -0.137094451383E+04    0.21318E-02   -0.72587E-03  2280   0.172E-01    0.102E-01
DAV:   6    -0.137094472114E+04   -0.20731E-03   -0.45745E-03  2424   0.123E-01    0.853E-02
DAV:   7    -0.137094471410E+04    0.70484E-05   -0.16341E-03  2440   0.754E-02    0.621E-02
DAV:   8    -0.137094469622E+04    0.17875E-04   -0.66028E-04  2536   0.485E-02    0.350E-02
DAV:   9    -0.137094468934E+04    0.68792E-05   -0.14940E-04  2376   0.259E-02    0.251E-02
DAV:  10    -0.137094468843E+04    0.90757E-06   -0.78949E-05  2376   0.167E-02    0.137E-02
DAV:  11    -0.137094468818E+04    0.25904E-06   -0.25039E-05  2264   0.113E-02    0.614E-03
DAV:  12    -0.137094468873E+04   -0.55213E-06   -0.11837E-05  1760   0.720E-03    0.560E-03
DAV:  13    -0.137094468830E+04    0.42695E-06   -0.15332E-06   992   0.462E-03
  20 F= -.13709447E+04 E0= -.13709447E+04  d E =-.185318E+00
 BRION: g(F)=  0.468E-01 g(S)=  0.000E+00 retain N=  2 mean eig= 6.54
 eig:   6.544  6.544
