 running on  160 total cores
 distrk:  each k-point on  160 cores,    1 groups
 distr:  one band on   20 cores,    8 groups
 using from now: INCAR     
 vasp.5.4.4.18Apr17-6-g9f103f2a35 (build May 01 2020 14:22:42) gamma-only       
  
 POSCAR found type information on POSCAR  O  La Zr Li Al
 POSCAR found :  5 types and     192 ions
 scaLAPACK will be used
 LDA part: xc-table for Pade appr. of Perdew
 POSCAR, INCAR and KPOINTS ok, starting setup
 FFT: planning ...
 WAVECAR not read
 WARNING: random wavefunctions but no delay for mixing, default for NELMDL
 entering main loop
       N       E                     dE             d eps       ncg     rms          rms(c)
DAV:   1     0.254322248402E+05    0.25432E+05   -0.41795E+05  1544   0.253E+03
DAV:   2     0.943246184472E+04   -0.16000E+05   -0.14791E+05  1432   0.708E+02
DAV:   3     0.267810862353E+04   -0.67544E+04   -0.61332E+04  1504   0.358E+02
DAV:   4    -0.416522014852E+03   -0.30946E+04   -0.28922E+04  2064   0.221E+02
DAV:   5    -0.144023251158E+04   -0.10237E+04   -0.98922E+03  2536   0.139E+02    0.117E+02
DAV:   6    -0.131403011733E+04    0.12620E+03   -0.14033E+03  2424   0.649E+01    0.504E+01
DAV:   7    -0.133682113568E+04   -0.22791E+02   -0.36364E+02  2560   0.331E+01    0.233E+01
DAV:   8    -0.134786962368E+04   -0.11048E+02   -0.24407E+02  2560   0.252E+01    0.261E+01
DAV:   9    -0.133991945249E+04    0.79502E+01   -0.64634E+01  2448   0.152E+01    0.704E+00
DAV:  10    -0.134160137019E+04   -0.16819E+01   -0.14539E+01  2576   0.877E+00    0.941E+00
DAV:  11    -0.134138611326E+04    0.21526E+00   -0.83629E+00  2624   0.485E+00    0.398E+00
DAV:  12    -0.134131149785E+04    0.74615E-01   -0.31699E+00  2624   0.389E+00    0.273E+00
DAV:  13    -0.134140381218E+04   -0.92314E-01   -0.11404E+00  2592   0.205E+00    0.247E+00
DAV:  14    -0.134136406067E+04    0.39752E-01   -0.39334E-01  2600   0.129E+00    0.135E+00
DAV:  15    -0.134137287407E+04   -0.88134E-02   -0.16736E-01  2512   0.796E-01    0.107E+00
DAV:  16    -0.134137451032E+04   -0.16362E-02   -0.41670E-02  2568   0.429E-01    0.701E-01
DAV:  17    -0.134137153208E+04    0.29782E-02   -0.20536E-02  2512   0.310E-01    0.357E-01
DAV:  18    -0.134137187786E+04   -0.34577E-03   -0.51840E-03  2600   0.146E-01    0.223E-01
DAV:  19    -0.134137162121E+04    0.25665E-03   -0.27924E-03  2552   0.996E-02    0.170E-01
DAV:  20    -0.134137159364E+04    0.27563E-04   -0.11822E-03  2600   0.668E-02    0.589E-02
DAV:  21    -0.134137159741E+04   -0.37636E-05   -0.29534E-04  2600   0.365E-02    0.509E-02
DAV:  22    -0.134137161080E+04   -0.13392E-04   -0.12678E-04  2520   0.228E-02    0.195E-02
DAV:  23    -0.134137161595E+04   -0.51562E-05   -0.28468E-05  2264   0.118E-02    0.803E-03
DAV:  24    -0.134137161626E+04   -0.30929E-06   -0.14275E-05  1608   0.806E-03    0.550E-03
DAV:  25    -0.134137161833E+04   -0.20673E-05   -0.29252E-06  1040   0.541E-03    0.153E-03
DAV:  26    -0.134137161848E+04   -0.14728E-06   -0.17769E-06  1016   0.416E-03
   1 F= -.13413716E+04 E0= -.13413716E+04  d E =-.134137E+04
 BRION: g(F)=  0.341E+02 g(S)=  0.000E+00
 bond charge predicted
       N       E                     dE             d eps       ncg     rms          rms(c)
DAV:   1    -0.133665268995E+04    0.47189E+01   -0.35537E+03  1544   0.897E+01    0.150E+01
DAV:   2    -0.135901422587E+04   -0.22362E+02   -0.26186E+02  2576   0.385E+01    0.854E+00
DAV:   3    -0.135895683842E+04    0.57387E-01   -0.16151E+01  2608   0.103E+01    0.634E+00
DAV:   4    -0.135829072804E+04    0.66611E+00   -0.38697E+00  2584   0.405E+00    0.356E+00
DAV:   5    -0.135803160048E+04    0.25913E+00   -0.11282E+00  2328   0.270E+00    0.202E+00
DAV:   6    -0.135797043275E+04    0.61168E-01   -0.10863E+00  2320   0.230E+00    0.925E-01
DAV:   7    -0.135801386187E+04   -0.43429E-01   -0.61719E-01  2304   0.142E+00    0.978E-01
DAV:   8    -0.135801352876E+04    0.33311E-03   -0.95131E-02  2624   0.579E-01    0.757E-01
DAV:   9    -0.135800880747E+04    0.47213E-02   -0.90628E-02  2592   0.540E-01    0.357E-01
DAV:  10    -0.135800927892E+04   -0.47145E-03   -0.23860E-02  2352   0.338E-01    0.313E-01
DAV:  11    -0.135800805098E+04    0.12279E-02   -0.14348E-02  2488   0.243E-01    0.146E-01
DAV:  12    -0.135800859642E+04   -0.54544E-03   -0.96887E-03  2440   0.160E-01    0.145E-01
DAV:  13    -0.135800830719E+04    0.28923E-03   -0.21862E-03  2600   0.930E-02    0.483E-02
DAV:  14    -0.135800834580E+04   -0.38609E-04   -0.78874E-04  2624   0.503E-02    0.283E-02
DAV:  15    -0.135800835041E+04   -0.46120E-05   -0.13030E-04  2592   0.237E-02    0.114E-02
DAV:  16    -0.135800835277E+04   -0.23622E-05   -0.46259E-05  2504   0.124E-02    0.835E-03
DAV:  17    -0.135800835251E+04    0.26661E-06   -0.56836E-06  1376   0.692E-03
   2 F= -.13580084E+04 E0= -.13580084E+04  d E =-.166367E+02
 BRION: g(F)=  0.114E+02 g(S)=  0.000E+00 retain N=  1 mean eig= 0.74
 eig:   0.742
 bond charge predicted
       N       E                     dE             d eps       ncg     rms          rms(c)
DAV:   1    -0.135509838147E+04    0.29100E+01   -0.11355E+03  1432   0.474E+01    0.870E+00
DAV:   2    -0.136200694618E+04   -0.69086E+01   -0.84786E+01  2504   0.212E+01    0.693E+00
DAV:   3    -0.136233607891E+04   -0.32913E+00   -0.70038E+00  2584   0.631E+00    0.553E+00
DAV:   4    -0.136214143117E+04    0.19465E+00   -0.15551E+00  2592   0.257E+00    0.341E+00
DAV:   5    -0.136207054044E+04    0.70891E-01   -0.84387E-01  2144   0.203E+00    0.209E+00
DAV:   6    -0.136203635997E+04    0.34180E-01   -0.59229E-01  2496   0.147E+00    0.138E+00
DAV:   7    -0.136203179282E+04    0.45672E-02   -0.29010E-01  2440   0.977E-01    0.657E-01
DAV:   8    -0.136203206848E+04   -0.27566E-03   -0.37039E-02  2616   0.398E-01    0.451E-01
DAV:   9    -0.136203137607E+04    0.69240E-03   -0.12310E-02  2560   0.234E-01    0.281E-01
DAV:  10    -0.136203130282E+04    0.73252E-04   -0.51664E-03  2232   0.154E-01    0.224E-01
DAV:  11    -0.136203091579E+04    0.38703E-03   -0.66669E-03  2264   0.125E-01    0.717E-02
DAV:  12    -0.136203091868E+04   -0.28933E-05   -0.89378E-04  2520   0.661E-02    0.475E-02
DAV:  13    -0.136203091465E+04    0.40302E-05   -0.46373E-04  2464   0.400E-02    0.207E-02
DAV:  14    -0.136203092077E+04   -0.61157E-05   -0.13268E-04  2456   0.230E-02    0.159E-02
DAV:  15    -0.136203092278E+04   -0.20108E-05   -0.44316E-05  2480   0.124E-02    0.885E-03
DAV:  16    -0.136203092195E+04    0.82738E-06   -0.46236E-06  1216   0.685E-03
   3 F= -.13620309E+04 E0= -.13620309E+04  d E =-.402257E+01
 BRION: g(F)=  0.379E+01 g(S)=  0.000E+00 retain N=  2 mean eig= 0.15
 eig:   0.187  0.121
 bond charge predicted
       N       E                     dE             d eps       ncg     rms          rms(c)
DAV:   1    -0.136311594555E+04   -0.10850E+01   -0.32017E+02  1368   0.263E+01    0.456E+00
DAV:   2    -0.136468171290E+04   -0.15658E+01   -0.17786E+01  2288   0.101E+01    0.199E+00
DAV:   3    -0.136475633434E+04   -0.74621E-01   -0.15856E+00  2584   0.234E+00    0.177E+00
DAV:   4    -0.136471579459E+04    0.40540E-01   -0.25208E-01  2600   0.115E+00    0.104E+00
DAV:   5    -0.136469859827E+04    0.17196E-01   -0.16470E-01  2192   0.782E-01    0.568E-01
DAV:   6    -0.136469964341E+04   -0.10451E-02   -0.71766E-02  2552   0.552E-01    0.544E-01
DAV:   7    -0.136469764351E+04    0.19999E-02   -0.53821E-02  2424   0.400E-01    0.290E-01
DAV:   8    -0.136469736093E+04    0.28258E-03   -0.10587E-02  2568   0.208E-01    0.153E-01
DAV:   9    -0.136469727563E+04    0.85302E-04   -0.21615E-03  2616   0.100E-01    0.997E-02
DAV:  10    -0.136469745578E+04   -0.18015E-03   -0.26801E-03  2264   0.824E-02    0.952E-02
DAV:  11    -0.136469728551E+04    0.17028E-03   -0.87449E-04  2528   0.672E-02    0.354E-02
DAV:  12    -0.136469733100E+04   -0.45492E-04   -0.80169E-04  2528   0.468E-02    0.419E-02
DAV:  13    -0.136469730313E+04    0.27864E-04   -0.18688E-04  2472   0.273E-02    0.135E-02
DAV:  14    -0.136469730651E+04   -0.33796E-05   -0.32812E-05  2080   0.126E-02    0.752E-03
DAV:  15    -0.136469730700E+04   -0.48653E-06   -0.79594E-06  1648   0.568E-03
   4 F= -.13646973E+04 E0= -.13646973E+04  d E =-.266639E+01
 BRION: g(F)=  0.125E+01 g(S)=  0.000E+00 retain N=  3 mean eig= 1.43
 eig:   0.799  1.749  1.749
 bond charge predicted
       N       E                     dE             d eps       ncg     rms          rms(c)
DAV:   1    -0.136534867342E+04   -0.65137E+00   -0.19677E+02  1360   0.203E+01    0.246E+00
DAV:   2    -0.136627584886E+04   -0.92718E+00   -0.97915E+00  2304   0.759E+00    0.123E+00
DAV:   3    -0.136631872313E+04   -0.42874E-01   -0.70521E-01  2576   0.151E+00    0.100E+00
DAV:   4    -0.136630403513E+04    0.14688E-01   -0.82748E-02  2584   0.648E-01    0.661E-01
DAV:   5    -0.136629405912E+04    0.99760E-02   -0.48776E-02  2192   0.444E-01    0.266E-01
DAV:   6    -0.136629578853E+04   -0.17294E-02   -0.27888E-02  2512   0.313E-01    0.274E-01
DAV:   7    -0.136629528130E+04    0.50722E-03   -0.12160E-02  2440   0.207E-01    0.176E-01
DAV:   8    -0.136629511590E+04    0.16540E-03   -0.50107E-03  2584   0.131E-01    0.828E-02
DAV:   9    -0.136629510546E+04    0.10440E-04   -0.72462E-04  2544   0.621E-02    0.613E-02
DAV:  10    -0.136629512375E+04   -0.18288E-04   -0.54232E-04  2336   0.413E-02    0.386E-02
DAV:  11    -0.136629510965E+04    0.14093E-04   -0.15909E-04  2504   0.305E-02    0.174E-02
DAV:  12    -0.136629511906E+04   -0.94019E-05   -0.13200E-04  2392   0.193E-02    0.212E-02
DAV:  13    -0.136629511304E+04    0.60184E-05   -0.30844E-05  2152   0.114E-02    0.105E-02
DAV:  14    -0.136629511284E+04    0.19529E-06   -0.12237E-05  1872   0.715E-03    0.419E-03
DAV:  15    -0.136629511294E+04   -0.93642E-07   -0.15757E-06   992   0.442E-03
   5 F= -.13662951E+04 E0= -.13662951E+04  d E =-.159781E+01
 BRION: g(F)=  0.706E+00 g(S)=  0.000E+00 retain N=  4 mean eig= 1.91
 eig:   2.696  2.696  1.132  1.132
 bond charge predicted
       N       E                     dE             d eps       ncg     rms          rms(c)
DAV:   1    -0.136668315576E+04   -0.38804E+00   -0.13137E+02  1360   0.166E+01    0.203E+00
DAV:   2    -0.136732928477E+04   -0.64613E+00   -0.68651E+00  2312   0.632E+00    0.102E+00
DAV:   3    -0.136736369526E+04   -0.34410E-01   -0.50694E-01  2576   0.133E+00    0.814E-01
DAV:   4    -0.136735617217E+04    0.75231E-02   -0.59724E-02  2624   0.565E-01    0.552E-01
DAV:   5    -0.136735139932E+04    0.47728E-02   -0.34208E-02  2328   0.362E-01    0.235E-01
DAV:   6    -0.136735223941E+04   -0.84009E-03   -0.14681E-02  2568   0.245E-01    0.218E-01
DAV:   7    -0.136735201811E+04    0.22129E-03   -0.89530E-03  2512   0.178E-01    0.131E-01
DAV:   8    -0.136735198939E+04    0.28725E-04   -0.30154E-03  2552   0.109E-01    0.759E-02
DAV:   9    -0.136735197895E+04    0.10444E-04   -0.49486E-04  2544   0.500E-02    0.528E-02
DAV:  10    -0.136735198854E+04   -0.95990E-05   -0.36526E-04  2368   0.338E-02    0.271E-02
DAV:  11    -0.136735198748E+04    0.10687E-05   -0.90551E-05  2528   0.238E-02    0.121E-02
DAV:  12    -0.136735199115E+04   -0.36753E-05   -0.59399E-05  2432   0.141E-02    0.138E-02
DAV:  13    -0.136735198884E+04    0.23131E-05   -0.15956E-05  1896   0.831E-03    0.658E-03
DAV:  14    -0.136735198852E+04    0.31658E-06   -0.32316E-06  1152   0.550E-03
   6 F= -.13673520E+04 E0= -.13673520E+04  d E =-.105688E+01
 BRION: g(F)=  0.436E+00 g(S)=  0.000E+00 retain N=  5 mean eig= 2.68
 eig:   4.672  4.672  1.555  1.555  0.948
 bond charge predicted
       N       E                     dE             d eps       ncg     rms          rms(c)
DAV:   1    -0.136759551886E+04   -0.24353E+00   -0.13565E+02  1360   0.167E+01    0.201E+00
DAV:   2    -0.136824222648E+04   -0.64671E+00   -0.68021E+00  2288   0.631E+00    0.997E-01
DAV:   3    -0.136827613111E+04   -0.33905E-01   -0.51264E-01  2584   0.125E+00    0.776E-01
DAV:   4    -0.136826637067E+04    0.97604E-02   -0.58419E-02  2608   0.545E-01    0.489E-01
DAV:   5    -0.136826172909E+04    0.46416E-02   -0.29578E-02  2328   0.343E-01    0.199E-01
DAV:   6    -0.136826267663E+04   -0.94754E-03   -0.13329E-02  2584   0.226E-01    0.168E-01
DAV:   7    -0.136826254050E+04    0.13613E-03   -0.51830E-03  2544   0.139E-01    0.107E-01
DAV:   8    -0.136826254042E+04    0.83150E-07   -0.21323E-03  2576   0.882E-02    0.629E-02
DAV:   9    -0.136826252535E+04    0.15072E-04   -0.34895E-04  2544   0.423E-02    0.456E-02
DAV:  10    -0.136826252847E+04   -0.31225E-05   -0.29258E-04  2400   0.298E-02    0.256E-02
DAV:  11    -0.136826252607E+04    0.23952E-05   -0.85144E-05  2472   0.209E-02    0.107E-02
DAV:  12    -0.136826252854E+04   -0.24681E-05   -0.37665E-05  2312   0.120E-02    0.111E-02
DAV:  13    -0.136826252719E+04    0.13531E-05   -0.11088E-05  1704   0.719E-03    0.519E-03
DAV:  14    -0.136826252714E+04    0.44602E-07   -0.43109E-06  1288   0.565E-03
   7 F= -.13682625E+04 E0= -.13682625E+04  d E =-.910539E+00
 BRION: g(F)=  0.282E+00 g(S)=  0.000E+00 retain N=  6 mean eig= 3.72
 eig:   7.569  7.569  2.404  2.404  1.194  1.194
 bond charge predicted
       N       E                     dE             d eps       ncg     rms          rms(c)
DAV:   1    -0.136843911035E+04   -0.17658E+00   -0.92149E+01  1368   0.136E+01    0.168E+00
DAV:   2    -0.136888479164E+04   -0.44568E+00   -0.46951E+00  2304   0.522E+00    0.825E-01
DAV:   3    -0.136890820624E+04   -0.23415E-01   -0.35596E-01  2584   0.987E-01    0.641E-01
DAV:   4    -0.136890103528E+04    0.71710E-02   -0.41835E-02  2560   0.454E-01    0.385E-01
DAV:   5    -0.136889839569E+04    0.26396E-02   -0.19456E-02  2384   0.277E-01    0.155E-01
DAV:   6    -0.136889902790E+04   -0.63221E-03   -0.78693E-03  2560   0.169E-01    0.122E-01
DAV:   7    -0.136889896714E+04    0.60752E-04   -0.25788E-03  2568   0.101E-01    0.775E-02
DAV:   8    -0.136889897605E+04   -0.89008E-05   -0.10314E-03  2600   0.613E-02    0.468E-02
DAV:   9    -0.136889896762E+04    0.84275E-05   -0.19020E-04  2584   0.313E-02    0.328E-02
DAV:  10    -0.136889897052E+04   -0.29057E-05   -0.14597E-04  2568   0.213E-02    0.184E-02
DAV:  11    -0.136889896904E+04    0.14801E-05   -0.42654E-05  2440   0.139E-02    0.779E-03
DAV:  12    -0.136889896975E+04   -0.70754E-06   -0.12759E-05  1848   0.796E-03    0.639E-03
DAV:  13    -0.136889896935E+04    0.40149E-06   -0.29603E-06  1120   0.523E-03
   8 F= -.13688990E+04 E0= -.13688990E+04  d E =-.636442E+00
 BRION: g(F)=  0.207E+00 g(S)=  0.000E+00 retain N=  4 mean eig= 4.94
 eig:   7.622  7.622  2.258  2.258
 bond charge predicted
       N       E                     dE             d eps       ncg     rms          rms(c)
DAV:   1    -0.136901149838E+04   -0.11253E+00   -0.80567E+01  1376   0.128E+01    0.149E+00
DAV:   2    -0.136940609158E+04   -0.39459E+00   -0.41645E+00  2304   0.492E+00    0.749E-01
DAV:   3    -0.136942827642E+04   -0.22185E-01   -0.32166E-01  2576   0.927E-01    0.590E-01
DAV:   4    -0.136942294090E+04    0.53355E-02   -0.33244E-02  2576   0.417E-01    0.386E-01
DAV:   5    -0.136941954926E+04    0.33916E-02   -0.16683E-02  2312   0.256E-01    0.143E-01
DAV:   6    -0.136942013605E+04   -0.58679E-03   -0.82191E-03  2536   0.171E-01    0.123E-01
DAV:   7    -0.136942009424E+04    0.41813E-04   -0.30455E-03  2512   0.107E-01    0.803E-02
DAV:   8    -0.136942008826E+04    0.59725E-05   -0.11106E-03  2608   0.652E-02    0.463E-02
DAV:   9    -0.136942008422E+04    0.40401E-05   -0.20815E-04  2544   0.317E-02    0.355E-02
DAV:  10    -0.136942008560E+04   -0.13778E-05   -0.13646E-04  2520   0.211E-02    0.192E-02
DAV:  11    -0.136942008490E+04    0.70645E-06   -0.50450E-05  2416   0.153E-02    0.881E-03
DAV:  12    -0.136942008553E+04   -0.63612E-06   -0.16839E-05  1960   0.942E-03    0.786E-03
DAV:  13    -0.136942008521E+04    0.32481E-06   -0.80531E-06  1568   0.584E-03
   9 F= -.13694201E+04 E0= -.13694201E+04  d E =-.521116E+00
 BRION: g(F)=  0.164E+00 g(S)=  0.000E+00 retain N=  3 mean eig= 5.70
 eig:   7.347  7.347  2.422
 bond charge predicted
       N       E                     dE             d eps       ncg     rms          rms(c)
DAV:   1    -0.136953664497E+04   -0.11656E+00   -0.52642E+01  1368   0.103E+01    0.119E+00
DAV:   2    -0.136979948523E+04   -0.26284E+00   -0.27776E+00  2312   0.405E+00    0.602E-01
DAV:   3    -0.136981411707E+04   -0.14632E-01   -0.21101E-01  2576   0.759E-01    0.476E-01
DAV:   4    -0.136981084880E+04    0.32683E-02   -0.20835E-02  2584   0.335E-01    0.329E-01
DAV:   5    -0.136980798947E+04    0.28593E-02   -0.11199E-02  2288   0.213E-01    0.121E-01
DAV:   6    -0.136980838667E+04   -0.39720E-03   -0.66228E-03  2456   0.150E-01    0.109E-01
DAV:   7    -0.136980835843E+04    0.28243E-04   -0.23885E-03  2464   0.926E-02    0.747E-02
DAV:   8    -0.136980833888E+04    0.19550E-04   -0.93929E-04  2600   0.583E-02    0.392E-02
DAV:   9    -0.136980833432E+04    0.45625E-05   -0.17284E-04  2416   0.292E-02    0.294E-02
DAV:  10    -0.136980833532E+04   -0.10075E-05   -0.88380E-05  2456   0.178E-02    0.155E-02
DAV:  11    -0.136980833528E+04    0.40716E-07   -0.30021E-05  2392   0.124E-02    0.728E-03
DAV:  12    -0.136980833606E+04   -0.77279E-06   -0.13467E-05  1848   0.797E-03    0.709E-03
DAV:  13    -0.136980833537E+04    0.68541E-06   -0.23641E-06  1056   0.522E-03
  10 F= -.13698083E+04 E0= -.13698083E+04  d E =-.388250E+00
 BRION: g(F)=  0.141E+00 g(S)=  0.000E+00 retain N=  2 mean eig= 4.32
 eig:   4.317  4.317
 bond charge predicted
       N       E                     dE             d eps       ncg     rms          rms(c)
DAV:   1    -0.136992151767E+04   -0.11318E+00   -0.37377E+01  1376   0.869E+00    0.997E-01
DAV:   2    -0.137011253854E+04   -0.19102E+00   -0.20162E+00  2296   0.346E+00    0.502E-01
DAV:   3    -0.137012352610E+04   -0.10988E-01   -0.15512E-01  2584   0.638E-01    0.404E-01
DAV:   4    -0.137012129627E+04    0.22298E-02   -0.14191E-02  2592   0.281E-01    0.287E-01
DAV:   5    -0.137011899046E+04    0.23058E-02   -0.82369E-03  2280   0.182E-01    0.103E-01
DAV:   6    -0.137011930074E+04   -0.31028E-03   -0.52830E-03  2440   0.131E-01    0.957E-02
DAV:   7    -0.137011927537E+04    0.25365E-04   -0.17765E-03  2480   0.796E-02    0.654E-02
DAV:   8    -0.137011925446E+04    0.20917E-04   -0.65662E-04  2576   0.495E-02    0.340E-02
DAV:   9    -0.137011924889E+04    0.55702E-05   -0.13454E-04  2248   0.251E-02    0.248E-02
DAV:  10    -0.137011925021E+04   -0.13215E-05   -0.52547E-05  2424   0.143E-02    0.128E-02
DAV:  11    -0.137011925028E+04   -0.72294E-07   -0.17896E-05  2256   0.951E-03    0.577E-03
DAV:  12    -0.137011925093E+04   -0.64544E-06   -0.89442E-06  1760   0.646E-03
  11 F= -.13701193E+04 E0= -.13701193E+04  d E =-.310916E+00
 BRION: g(F)=  0.126E+00 g(S)=  0.000E+00 retain N=  3 mean eig= 5.56
 eig:   7.262  7.262  2.148
 bond charge predicted
       N       E                     dE             d eps       ncg     rms          rms(c)
DAV:   1    -0.137021856186E+04   -0.99312E-01   -0.35624E+01  1376   0.853E+00    0.969E-01
DAV:   2    -0.137040200040E+04   -0.18344E+00   -0.19373E+00  2296   0.338E+00    0.490E-01
DAV:   3    -0.137041286593E+04   -0.10866E-01   -0.15081E-01  2592   0.633E-01    0.398E-01
DAV:   4    -0.137041095748E+04    0.19084E-02   -0.13297E-02  2600   0.277E-01    0.293E-01
DAV:   5    -0.137040853986E+04    0.24176E-02   -0.75949E-03  2280   0.177E-01    0.113E-01
DAV:   6    -0.137040874404E+04   -0.20418E-03   -0.56708E-03  2352   0.139E-01    0.964E-02
DAV:   7    -0.137040873328E+04    0.10762E-04   -0.22157E-03  2448   0.877E-02    0.703E-02
DAV:   8    -0.137040871310E+04    0.20175E-04   -0.77274E-04  2592   0.538E-02    0.376E-02
DAV:   9    -0.137040870065E+04    0.12456E-04   -0.18901E-04  2240   0.284E-02    0.251E-02
DAV:  10    -0.137040870387E+04   -0.32253E-05   -0.73454E-05  2352   0.162E-02    0.155E-02
DAV:  11    -0.137040870303E+04    0.84408E-06   -0.24506E-05  2296   0.110E-02    0.810E-03
DAV:  12    -0.137040870350E+04   -0.46764E-06   -0.13389E-05  1880   0.777E-03    0.750E-03
DAV:  13    -0.137040870284E+04    0.65831E-06   -0.49473E-06  1376   0.544E-03
  12 F= -.13704087E+04 E0= -.13704087E+04  d E =-.289452E+00
 BRION: g(F)=  0.113E+00 g(S)=  0.000E+00 retain N=  3 mean eig= 5.79
 eig:   7.702  7.702  1.976
 bond charge predicted
       N       E                     dE             d eps       ncg     rms          rms(c)
DAV:   1    -0.137049782523E+04   -0.89122E-01   -0.34334E+01  1376   0.832E+00    0.935E-01
DAV:   2    -0.137067417577E+04   -0.17635E+00   -0.18547E+00  2304   0.332E+00    0.474E-01
DAV:   3    -0.137068441543E+04   -0.10240E-01   -0.14283E-01  2592   0.609E-01    0.382E-01
DAV:   4    -0.137068252810E+04    0.18873E-02   -0.12177E-02  2592   0.264E-01    0.282E-01
DAV:   5    -0.137068010267E+04    0.24254E-02   -0.70889E-03  2256   0.170E-01    0.108E-01
DAV:   6    -0.137068031304E+04   -0.21037E-03   -0.55135E-03  2352   0.130E-01    0.918E-02
DAV:   7    -0.137068030694E+04    0.61023E-05   -0.18041E-03  2472   0.796E-02    0.693E-02
DAV:   8    -0.137068027945E+04    0.27487E-04   -0.69118E-04  2536   0.501E-02    0.356E-02
DAV:   9    -0.137068026453E+04    0.14918E-04   -0.18251E-04  2192   0.276E-02    0.231E-02
DAV:  10    -0.137068026710E+04   -0.25711E-05   -0.55225E-05  2488   0.145E-02    0.145E-02
DAV:  11    -0.137068026551E+04    0.15879E-05   -0.23997E-05  2232   0.101E-02    0.464E-03
DAV:  12    -0.137068026611E+04   -0.59107E-06   -0.55199E-06  1328   0.629E-03
  13 F= -.13706803E+04 E0= -.13706803E+04  d E =-.271563E+00
 BRION: g(F)=  0.102E+00 g(S)=  0.000E+00 retain N=  3 mean eig= 5.76
 eig:   7.647  7.647  1.975
 bond charge predicted
       N       E                     dE             d eps       ncg     rms          rms(c)
DAV:   1    -0.137076805278E+04   -0.87787E-01   -0.29508E+01  1376   0.766E+00    0.852E-01
DAV:   2    -0.137091834962E+04   -0.15030E+00   -0.15771E+00  2304   0.303E+00    0.434E-01
DAV:   3    -0.137092731146E+04   -0.89618E-02   -0.12278E-01  2584   0.557E-01    0.353E-01
DAV:   4    -0.137092589719E+04    0.14143E-02   -0.10130E-02  2600   0.239E-01    0.266E-01
DAV:   5    -0.137092368483E+04    0.22124E-02   -0.56742E-03  2288   0.159E-01    0.110E-01
DAV:   6    -0.137092376630E+04   -0.81473E-04   -0.51984E-03  2288   0.132E-01    0.828E-02
DAV:   7    -0.137092379049E+04   -0.24185E-04   -0.19879E-03  2440   0.814E-02    0.675E-02
DAV:   8    -0.137092377052E+04    0.19972E-04   -0.58881E-04  2544   0.487E-02    0.373E-02
DAV:   9    -0.137092374867E+04    0.21849E-04   -0.22706E-04  2320   0.291E-02    0.209E-02
DAV:  10    -0.137092375470E+04   -0.60334E-05   -0.73820E-05  2448   0.167E-02    0.172E-02
DAV:  11    -0.137092375152E+04    0.31792E-05   -0.36174E-05  2184   0.122E-02    0.746E-03
DAV:  12    -0.137092375201E+04   -0.49033E-06   -0.10914E-05  1768   0.772E-03    0.689E-03
DAV:  13    -0.137092375169E+04    0.32524E-06   -0.83109E-06  1568   0.572E-03
  14 F= -.13709238E+04 E0= -.13709238E+04  d E =-.243486E+00
 BRION: g(F)=  0.936E-01 g(S)=  0.000E+00 retain N=  2 mean eig= 4.51
 eig:   4.513  4.513
 bond charge predicted
       N       E                     dE             d eps       ncg     rms          rms(c)
DAV:   1    -0.137098982131E+04   -0.66069E-01   -0.36753E+01  1376   0.855E+00    0.952E-01
DAV:   2    -0.137117547644E+04   -0.18566E+00   -0.19484E+00  2312   0.336E+00    0.487E-01
DAV:   3    -0.137118591346E+04   -0.10437E-01   -0.14730E-01  2568   0.627E-01    0.390E-01
DAV:   4    -0.137118388599E+04    0.20275E-02   -0.13253E-02  2576   0.268E-01    0.285E-01
DAV:   5    -0.137118139178E+04    0.24942E-02   -0.75386E-03  2288   0.177E-01    0.110E-01
DAV:   6    -0.137118158951E+04   -0.19772E-03   -0.56054E-03  2336   0.135E-01    0.957E-02
DAV:   7    -0.137118157627E+04    0.13240E-04   -0.20263E-03  2456   0.845E-02    0.721E-02
DAV:   8    -0.137118154684E+04    0.29430E-04   -0.80725E-04  2584   0.536E-02    0.383E-02
DAV:   9    -0.137118153365E+04    0.13191E-04   -0.19677E-04  2264   0.287E-02    0.252E-02
DAV:  10    -0.137118153621E+04   -0.25617E-05   -0.77144E-05  2352   0.164E-02    0.159E-02
DAV:  11    -0.137118153460E+04    0.16031E-05   -0.23999E-05  2232   0.109E-02    0.735E-03
DAV:  12    -0.137118153524E+04   -0.63753E-06   -0.13678E-05  1888   0.750E-03    0.650E-03
DAV:  13    -0.137118153462E+04    0.62266E-06   -0.20295E-06   984   0.505E-03
  15 F= -.13711815E+04 E0= -.13711815E+04  d E =-.257783E+00
 BRION: g(F)=  0.842E-01 g(S)=  0.000E+00 retain N=  2 mean eig= 5.04
 eig:   5.037  5.037
 bond charge predicted
       N       E                     dE             d eps       ncg     rms          rms(c)
DAV:   1    -0.137124173718E+04   -0.60202E-01   -0.35803E+01  1368   0.838E+00    0.922E-01
DAV:   2    -0.137141942226E+04   -0.17769E+00   -0.18602E+00  2296   0.326E+00    0.472E-01
DAV:   3    -0.137142946578E+04   -0.10044E-01   -0.14158E-01  2576   0.621E-01    0.379E-01
DAV:   4    -0.137142751975E+04    0.19460E-02   -0.12210E-02  2584   0.257E-01    0.277E-01
DAV:   5    -0.137142495788E+04    0.25619E-02   -0.69399E-03  2256   0.175E-01    0.107E-01
DAV:   6    -0.137142515390E+04   -0.19602E-03   -0.57997E-03  2328   0.134E-01    0.920E-02
DAV:   7    -0.137142515725E+04   -0.33552E-05   -0.17276E-03  2440   0.780E-02    0.733E-02
DAV:   8    -0.137142512442E+04    0.32835E-04   -0.67547E-04  2528   0.489E-02    0.382E-02
DAV:   9    -0.137142510178E+04    0.22639E-04   -0.22677E-04  2232   0.303E-02    0.221E-02
DAV:  10    -0.137142510702E+04   -0.52373E-05   -0.69335E-05  2376   0.163E-02    0.176E-02
DAV:  11    -0.137142510304E+04    0.39764E-05   -0.34340E-05  2224   0.116E-02    0.499E-03
DAV:  12    -0.137142510397E+04   -0.92690E-06   -0.88737E-06  1608   0.711E-03
  16 F= -.13714251E+04 E0= -.13714251E+04  d E =-.243569E+00
 BRION: g(F)=  0.763E-01 g(S)=  0.000E+00 retain N=  2 mean eig= 5.40
 eig:   5.395  5.395
 bond charge predicted
       N       E                     dE             d eps       ncg     rms          rms(c)
DAV:   1    -0.137148727335E+04   -0.62170E-01   -0.27807E+01  1360   0.741E+00    0.823E-01
DAV:   2    -0.137162468574E+04   -0.13741E+00   -0.14426E+00  2296   0.285E+00    0.420E-01
DAV:   3    -0.137163259397E+04   -0.79082E-02   -0.11147E-01  2568   0.554E-01    0.338E-01
DAV:   4    -0.137163108120E+04    0.15128E-02   -0.98568E-03  2576   0.230E-01    0.247E-01
DAV:   5    -0.137162914643E+04    0.19348E-02   -0.56242E-03  2288   0.155E-01    0.975E-02
DAV:   6    -0.137162927739E+04   -0.13096E-03   -0.43629E-03  2312   0.119E-01    0.851E-02
DAV:   7    -0.137162926856E+04    0.88319E-05   -0.16078E-03  2408   0.744E-02    0.650E-02
DAV:   8    -0.137162924421E+04    0.24351E-04   -0.62746E-04  2552   0.473E-02    0.339E-02
DAV:   9    -0.137162923263E+04    0.11574E-04   -0.16894E-04  2256   0.265E-02    0.215E-02
DAV:  10    -0.137162923542E+04   -0.27912E-05   -0.61723E-05  2288   0.150E-02    0.152E-02
DAV:  11    -0.137162923327E+04    0.21560E-05   -0.21231E-05  2112   0.102E-02    0.668E-03
DAV:  12    -0.137162923383E+04   -0.56533E-06   -0.12219E-05  1816   0.718E-03    0.589E-03
DAV:  13    -0.137162923336E+04    0.47614E-06   -0.17817E-06   984   0.466E-03
  17 F= -.13716292E+04 E0= -.13716292E+04  d E =-.204129E+00
 BRION: g(F)=  0.691E-01 g(S)=  0.000E+00 retain N=  2 mean eig= 5.04
 eig:   5.045  5.045
 bond charge predicted
       N       E                     dE             d eps       ncg     rms          rms(c)
DAV:   1    -0.137167735252E+04   -0.48119E-01   -0.32077E+01  1360   0.791E+00    0.877E-01
DAV:   2    -0.137183433997E+04   -0.15699E+00   -0.16474E+00  2296   0.304E+00    0.449E-01
DAV:   3    -0.137184288779E+04   -0.85478E-02   -0.12438E-01  2592   0.599E-01    0.358E-01
DAV:   4    -0.137184093271E+04    0.19551E-02   -0.11109E-02  2592   0.244E-01    0.255E-01
DAV:   5    -0.137183877967E+04    0.21530E-02   -0.64342E-03  2216   0.164E-01    0.967E-02
DAV:   6    -0.137183898202E+04   -0.20235E-03   -0.47424E-03  2344   0.119E-01    0.908E-02
DAV:   7    -0.137183896182E+04    0.20201E-04   -0.14352E-03  2440   0.712E-02    0.681E-02
DAV:   8    -0.137183892744E+04    0.34380E-04   -0.65693E-04  2528   0.468E-02    0.331E-02
DAV:   9    -0.137183891835E+04    0.90869E-05   -0.15471E-04  2224   0.258E-02    0.218E-02
DAV:  10    -0.137183892000E+04   -0.16482E-05   -0.48820E-05  2296   0.139E-02    0.144E-02
DAV:  11    -0.137183891814E+04    0.18566E-05   -0.25070E-05  2072   0.982E-03    0.414E-03
DAV:  12    -0.137183891869E+04   -0.54570E-06   -0.61450E-06  1456   0.650E-03
  18 F= -.13718389E+04 E0= -.13718389E+04  d E =-.209685E+00
 BRION: g(F)=  0.625E-01 g(S)=  0.000E+00 retain N=  2 mean eig= 5.03
 eig:   5.027  5.027
 bond charge predicted
       N       E                     dE             d eps       ncg     rms          rms(c)
DAV:   1    -0.137189214511E+04   -0.53227E-01   -0.25202E+01  1360   0.701E+00    0.770E-01
DAV:   2    -0.137201396064E+04   -0.12182E+00   -0.12760E+00  2280   0.267E+00    0.394E-01
DAV:   3    -0.137202110591E+04   -0.71453E-02   -0.10059E-01  2584   0.517E-01    0.317E-01
DAV:   4    -0.137201977676E+04    0.13291E-02   -0.82377E-03  2608   0.210E-01    0.236E-01
DAV:   5    -0.137201781619E+04    0.19606E-02   -0.46189E-03  2224   0.146E-01    0.983E-02
DAV:   6    -0.137201786741E+04   -0.51224E-04   -0.44375E-03  2256   0.119E-01    0.767E-02
DAV:   7    -0.137201789518E+04   -0.27774E-04   -0.15830E-03  2376   0.708E-02    0.650E-02
DAV:   8    -0.137201787553E+04    0.19654E-04   -0.48958E-04  2496   0.431E-02    0.369E-02
DAV:   9    -0.137201784812E+04    0.27412E-04   -0.24388E-04  2344   0.300E-02    0.181E-02
DAV:  10    -0.137201785554E+04   -0.74235E-05   -0.80647E-05  2368   0.181E-02    0.181E-02
DAV:  11    -0.137201785049E+04    0.50465E-05   -0.33745E-05  2048   0.117E-02    0.570E-03
DAV:  12    -0.137201785122E+04   -0.72880E-06   -0.10452E-05  1776   0.756E-03    0.465E-03
DAV:  13    -0.137201785103E+04    0.19814E-06   -0.15797E-06   984   0.422E-03
  19 F= -.13720179E+04 E0= -.13720179E+04  d E =-.178932E+00
 BRION: g(F)=  0.566E-01 g(S)=  0.000E+00 retain N=  2 mean eig= 5.11
 eig:   5.109  5.109
 bond charge predicted
       N       E                     dE             d eps       ncg     rms          rms(c)
DAV:   1    -0.137207306400E+04   -0.55213E-01   -0.19311E+01  1360   0.618E+00    0.696E-01
DAV:   2    -0.137216744776E+04   -0.94384E-01   -0.99657E-01  2280   0.237E+00    0.353E-01
DAV:   3    -0.137217300369E+04   -0.55559E-02   -0.79286E-02  2592   0.477E-01    0.285E-01
DAV:   4    -0.137217187309E+04    0.11306E-02   -0.69746E-03  2584   0.196E-01    0.205E-01
DAV:   5    -0.137217057111E+04    0.13020E-02   -0.41459E-03  2240   0.130E-01    0.822E-02
DAV:   6    -0.137217066530E+04   -0.94192E-04   -0.29769E-03  2336   0.981E-02    0.778E-02
DAV:   7    -0.137217064453E+04    0.20774E-04   -0.12003E-03  2432   0.641E-02    0.561E-02
DAV:   8    -0.137217062278E+04    0.21748E-04   -0.49273E-04  2528   0.420E-02    0.287E-02
DAV:   9    -0.137217061843E+04    0.43455E-05   -0.10358E-04  2264   0.211E-02    0.191E-02
DAV:  10    -0.137217061908E+04   -0.64480E-06   -0.44290E-05  2344   0.124E-02    0.112E-02
DAV:  11    -0.137217061830E+04    0.78104E-06   -0.10138E-05  1736   0.802E-03    0.567E-03
DAV:  12    -0.137217061876E+04   -0.45949E-06   -0.10908E-05  1680   0.623E-03    0.491E-03
DAV:  13    -0.137217061851E+04    0.24545E-06   -0.12157E-06   968   0.413E-03
  20 F= -.13721706E+04 E0= -.13721706E+04  d E =-.152767E+00
 BRION: g(F)=  0.517E-01 g(S)=  0.000E+00 retain N=  2 mean eig= 4.58
 eig:   4.576  4.576
