 running on  160 total cores
 distrk:  each k-point on  160 cores,    1 groups
 distr:  one band on   20 cores,    8 groups
 using from now: INCAR     
 vasp.5.4.4.18Apr17-6-g9f103f2a35 (build May 01 2020 14:22:42) gamma-only       
  
 POSCAR found type information on POSCAR  O  La Zr Li Al
 POSCAR found :  5 types and     192 ions
 scaLAPACK will be used
 LDA part: xc-table for Pade appr. of Perdew
 POSCAR, INCAR and KPOINTS ok, starting setup
 FFT: planning ...
 WAVECAR not read
 WARNING: random wavefunctions but no delay for mixing, default for NELMDL
 entering main loop
       N       E                     dE             d eps       ncg     rms          rms(c)
DAV:   1     0.254870661102E+05    0.25487E+05   -0.41982E+05  1560   0.253E+03
DAV:   2     0.953114729443E+04   -0.15956E+05   -0.14774E+05  1432   0.713E+02
DAV:   3     0.273320216994E+04   -0.67979E+04   -0.61856E+04  1488   0.358E+02
DAV:   4    -0.374483990681E+03   -0.31077E+04   -0.29041E+04  2056   0.224E+02
DAV:   5    -0.142557827027E+04   -0.10511E+04   -0.10154E+04  2528   0.142E+02    0.117E+02
DAV:   6    -0.130815253925E+04    0.11743E+03   -0.14323E+03  2416   0.661E+01    0.503E+01
DAV:   7    -0.133286579060E+04   -0.24713E+02   -0.41500E+02  2552   0.340E+01    0.250E+01
DAV:   8    -0.134224887506E+04   -0.93831E+01   -0.27347E+02  2520   0.283E+01    0.264E+01
DAV:   9    -0.133510626495E+04    0.71426E+01   -0.57597E+01  2496   0.151E+01    0.793E+00
DAV:  10    -0.133619849496E+04   -0.10922E+01   -0.17014E+01  2616   0.845E+00    0.829E+00
DAV:  11    -0.133642297119E+04   -0.22448E+00   -0.72638E+00  2624   0.464E+00    0.472E+00
DAV:  12    -0.133627453946E+04    0.14843E+00   -0.30261E+00  2560   0.379E+00    0.369E+00
DAV:  13    -0.133637112784E+04   -0.96588E-01   -0.10596E+00  2544   0.186E+00    0.263E+00
DAV:  14    -0.133633300828E+04    0.38120E-01   -0.34098E-01  2576   0.122E+00    0.140E+00
DAV:  15    -0.133633951424E+04   -0.65060E-02   -0.14521E-01  2560   0.699E-01    0.111E+00
DAV:  16    -0.133634048604E+04   -0.97179E-03   -0.33530E-02  2616   0.383E-01    0.809E-01
DAV:  17    -0.133633838153E+04    0.21045E-02   -0.29102E-02  2328   0.334E-01    0.459E-01
DAV:  18    -0.133633868887E+04   -0.30734E-03   -0.71981E-03  2520   0.180E-01    0.181E-01
DAV:  19    -0.133633874322E+04   -0.54346E-04   -0.28426E-03  2624   0.110E-01    0.139E-01
DAV:  20    -0.133633874982E+04   -0.66038E-05   -0.10113E-03  2576   0.595E-02    0.309E-02
DAV:  21    -0.133633877048E+04   -0.20660E-04   -0.28328E-04  2600   0.352E-02    0.637E-02
DAV:  22    -0.133633879122E+04   -0.20735E-04   -0.18689E-04  2416   0.291E-02    0.148E-02
DAV:  23    -0.133633878357E+04    0.76407E-05   -0.52471E-05  2424   0.155E-02    0.221E-02
DAV:  24    -0.133633879192E+04   -0.83468E-05   -0.22895E-05  2152   0.108E-02    0.477E-03
DAV:  25    -0.133633879148E+04    0.44271E-06   -0.41150E-06  1040   0.610E-03
   1 F= -.13363388E+04 E0= -.13363388E+04  d E =-.133634E+04
 BRION: g(F)=  0.469E+02 g(S)=  0.000E+00
 bond charge predicted
       N       E                     dE             d eps       ncg     rms          rms(c)
DAV:   1    -0.131160369708E+04    0.24735E+02   -0.65075E+03  1720   0.123E+02    0.249E+01
DAV:   2    -0.135683846901E+04   -0.45235E+02   -0.54343E+02  2584   0.540E+01    0.123E+01
DAV:   3    -0.135582369058E+04    0.10148E+01   -0.34158E+01  2616   0.149E+01    0.829E+00
DAV:   4    -0.135375924529E+04    0.20644E+01   -0.79431E+00  2504   0.649E+00    0.404E+00
DAV:   5    -0.135327379136E+04    0.48545E+00   -0.34610E+00  2416   0.469E+00    0.256E+00
DAV:   6    -0.135333408270E+04   -0.60291E-01   -0.35654E+00  2504   0.335E+00    0.196E+00
DAV:   7    -0.135329794847E+04    0.36134E-01   -0.69657E-01  2528   0.178E+00    0.961E-01
DAV:   8    -0.135330782950E+04   -0.98810E-02   -0.32630E-01  2608   0.100E+00    0.754E-01
DAV:   9    -0.135330099852E+04    0.68310E-02   -0.39975E-02  2624   0.564E-01    0.499E-01
DAV:  10    -0.135330235567E+04   -0.13572E-02   -0.10295E-01  2200   0.524E-01    0.405E-01
DAV:  11    -0.135330218344E+04    0.17223E-03   -0.17797E-02  2336   0.295E-01    0.340E-01
DAV:  12    -0.135330099985E+04    0.11836E-02   -0.97739E-03  2480   0.161E-01    0.126E-01
DAV:  13    -0.135330098345E+04    0.16398E-04   -0.31106E-03  2592   0.982E-02    0.315E-02
DAV:  14    -0.135330103212E+04   -0.48675E-04   -0.55547E-04  2608   0.523E-02    0.366E-02
DAV:  15    -0.135330101925E+04    0.12873E-04   -0.12271E-04  2624   0.263E-02    0.191E-02
DAV:  16    -0.135330102254E+04   -0.32911E-05   -0.51595E-05  2592   0.141E-02    0.101E-02
DAV:  17    -0.135330102211E+04    0.43737E-06   -0.84001E-06  1728   0.751E-03
   2 F= -.13533010E+04 E0= -.13533010E+04  d E =-.169622E+02
 BRION: g(F)=  0.256E+02 g(S)=  0.000E+00 retain N=  1 mean eig= 0.61
 eig:   0.606
 bond charge predicted
       N       E                     dE             d eps       ncg     rms          rms(c)
DAV:   1    -0.134525686204E+04    0.80442E+01   -0.20523E+03  1472   0.625E+01    0.129E+01
DAV:   2    -0.135961541790E+04   -0.14359E+02   -0.17179E+02  2512   0.286E+01    0.128E+01
DAV:   3    -0.136004864712E+04   -0.43323E+00   -0.11996E+01  2584   0.794E+00    0.101E+01
DAV:   4    -0.135956021084E+04    0.48844E+00   -0.36168E+00  2464   0.391E+00    0.575E+00
DAV:   5    -0.135934907925E+04    0.21113E+00   -0.14389E+00  2184   0.330E+00    0.323E+00
DAV:   6    -0.135926969521E+04    0.79384E-01   -0.21022E+00  2408   0.256E+00    0.138E+00
DAV:   7    -0.135929022921E+04   -0.20534E-01   -0.39029E-01  2448   0.127E+00    0.101E+00
DAV:   8    -0.135928680548E+04    0.34237E-02   -0.83374E-02  2624   0.570E-01    0.747E-01
DAV:   9    -0.135928637936E+04    0.42612E-03   -0.36907E-02  2336   0.358E-01    0.611E-01
DAV:  10    -0.135928244582E+04    0.39335E-02   -0.18017E-02  2400   0.265E-01    0.372E-01
DAV:  11    -0.135928175053E+04    0.69528E-03   -0.15206E-02  2408   0.210E-01    0.124E-01
DAV:  12    -0.135928181715E+04   -0.66614E-04   -0.22576E-03  2576   0.102E-01    0.673E-02
DAV:  13    -0.135928184927E+04   -0.32124E-04   -0.70043E-04  2464   0.530E-02    0.302E-02
DAV:  14    -0.135928186937E+04   -0.20094E-04   -0.25867E-04  2616   0.352E-02    0.276E-02
DAV:  15    -0.135928186522E+04    0.41484E-05   -0.94831E-05  2560   0.200E-02    0.208E-02
DAV:  16    -0.135928186264E+04    0.25732E-05   -0.51512E-05  2432   0.130E-02    0.804E-03
DAV:  17    -0.135928186289E+04   -0.25035E-06   -0.72786E-06  1352   0.678E-03
   3 F= -.13592819E+04 E0= -.13592819E+04  d E =-.598084E+01
 BRION: g(F)=  0.430E+01 g(S)=  0.000E+00 retain N=  2 mean eig= 1.29
 eig:   0.446  2.128
 bond charge predicted
       N       E                     dE             d eps       ncg     rms          rms(c)
DAV:   1    -0.136014476166E+04   -0.86290E+00   -0.34813E+02  1376   0.265E+01    0.568E+00
DAV:   2    -0.136187053943E+04   -0.17258E+01   -0.19675E+01  2288   0.100E+01    0.234E+00
DAV:   3    -0.136193774752E+04   -0.67208E-01   -0.17120E+00  2592   0.248E+00    0.198E+00
DAV:   4    -0.136188523265E+04    0.52515E-01   -0.36264E-01  2608   0.127E+00    0.105E+00
DAV:   5    -0.136187719909E+04    0.80336E-02   -0.16492E-01  2296   0.795E-01    0.675E-01
DAV:   6    -0.136187456124E+04    0.26378E-02   -0.77761E-02  2568   0.546E-01    0.417E-01
DAV:   7    -0.136187404497E+04    0.51627E-03   -0.34275E-02  2504   0.339E-01    0.248E-01
DAV:   8    -0.136187375948E+04    0.28549E-03   -0.70729E-03  2616   0.169E-01    0.142E-01
DAV:   9    -0.136187372924E+04    0.30233E-04   -0.24654E-03  2616   0.988E-02    0.787E-02
DAV:  10    -0.136187375680E+04   -0.27556E-04   -0.82613E-04  2256   0.603E-02    0.598E-02
DAV:  11    -0.136187374692E+04    0.98836E-05   -0.54726E-04  2368   0.411E-02    0.318E-02
DAV:  12    -0.136187375195E+04   -0.50329E-05   -0.21583E-04  2568   0.256E-02    0.223E-02
DAV:  13    -0.136187374723E+04    0.47155E-05   -0.66673E-05  2560   0.164E-02    0.940E-03
DAV:  14    -0.136187374866E+04   -0.14254E-05   -0.21418E-05  2328   0.977E-03    0.437E-03
DAV:  15    -0.136187374898E+04   -0.31732E-06   -0.25009E-06  1080   0.533E-03
   4 F= -.13618737E+04 E0= -.13618737E+04  d E =-.259189E+01
 BRION: g(F)=  0.128E+01 g(S)=  0.000E+00 retain N=  3 mean eig= 0.93
 eig:   0.706  1.203  0.868
 bond charge predicted
       N       E                     dE             d eps       ncg     rms          rms(c)
DAV:   1    -0.136244471225E+04   -0.57096E+00   -0.15443E+02  1376   0.180E+01    0.264E+00
DAV:   2    -0.136322054900E+04   -0.77584E+00   -0.83785E+00  2288   0.686E+00    0.126E+00
DAV:   3    -0.136326406092E+04   -0.43512E-01   -0.69626E-01  2608   0.146E+00    0.109E+00
DAV:   4    -0.136324993942E+04    0.14121E-01   -0.89636E-02  2624   0.695E-01    0.703E-01
DAV:   5    -0.136324248121E+04    0.74582E-02   -0.61480E-02  2216   0.453E-01    0.313E-01
DAV:   6    -0.136324383134E+04   -0.13501E-02   -0.22616E-02  2568   0.303E-01    0.318E-01
DAV:   7    -0.136324282670E+04    0.10046E-02   -0.15731E-02  2480   0.224E-01    0.166E-01
DAV:   8    -0.136324270329E+04    0.12341E-03   -0.41577E-03  2536   0.130E-01    0.849E-02
DAV:   9    -0.136324270589E+04   -0.26067E-05   -0.68515E-04  2608   0.560E-02    0.558E-02
DAV:  10    -0.136324272803E+04   -0.22142E-04   -0.36112E-04  2416   0.339E-02    0.302E-02
DAV:  11    -0.136324272003E+04    0.80017E-05   -0.10976E-04  2528   0.255E-02    0.134E-02
DAV:  12    -0.136324272812E+04   -0.80875E-05   -0.95692E-05  2456   0.170E-02    0.184E-02
DAV:  13    -0.136324272326E+04    0.48635E-05   -0.30739E-05  2176   0.113E-02    0.670E-03
DAV:  14    -0.136324272352E+04   -0.26132E-06   -0.71384E-06  1568   0.625E-03
   5 F= -.13632427E+04 E0= -.13632427E+04  d E =-.136897E+01
 BRION: g(F)=  0.696E+00 g(S)=  0.000E+00 retain N=  4 mean eig= 1.36
 eig:   1.756  1.756  0.955  0.955
 bond charge predicted
       N       E                     dE             d eps       ncg     rms          rms(c)
DAV:   1    -0.136366080620E+04   -0.41808E+00   -0.81612E+01  1376   0.132E+01    0.171E+00
DAV:   2    -0.136407157527E+04   -0.41077E+00   -0.44141E+00  2296   0.500E+00    0.850E-01
DAV:   3    -0.136409614246E+04   -0.24567E-01   -0.36896E-01  2592   0.107E+00    0.719E-01
DAV:   4    -0.136408978755E+04    0.63549E-02   -0.41918E-02  2600   0.489E-01    0.494E-01
DAV:   5    -0.136408444682E+04    0.53407E-02   -0.29709E-02  2240   0.327E-01    0.217E-01
DAV:   6    -0.136408513058E+04   -0.68376E-03   -0.15562E-02  2472   0.249E-01    0.237E-01
DAV:   7    -0.136408464152E+04    0.48906E-03   -0.10345E-02  2408   0.183E-01    0.140E-01
DAV:   8    -0.136408458941E+04    0.52104E-04   -0.36034E-03  2552   0.114E-01    0.692E-02
DAV:   9    -0.136408457470E+04    0.14710E-04   -0.46199E-04  2560   0.492E-02    0.502E-02
DAV:  10    -0.136408457272E+04    0.19833E-05   -0.31762E-04  2336   0.306E-02    0.238E-02
DAV:  11    -0.136408457229E+04    0.42372E-06   -0.79800E-05  2440   0.217E-02    0.957E-03
DAV:  12    -0.136408457606E+04   -0.37618E-05   -0.46656E-05  2408   0.129E-02    0.130E-02
DAV:  13    -0.136408457373E+04    0.23263E-05   -0.14278E-05  1848   0.816E-03    0.676E-03
DAV:  14    -0.136408457327E+04    0.45437E-06   -0.26899E-06  1032   0.595E-03
   6 F= -.13640846E+04 E0= -.13640846E+04  d E =-.841850E+00
 BRION: g(F)=  0.450E+00 g(S)=  0.000E+00 retain N=  5 mean eig= 1.60
 eig:   1.860  1.860  1.735  1.735  0.834
 bond charge predicted
       N       E                     dE             d eps       ncg     rms          rms(c)
DAV:   1    -0.136439580805E+04   -0.31123E+00   -0.92457E+01  1376   0.138E+01    0.174E+00
DAV:   2    -0.136487233203E+04   -0.47652E+00   -0.50329E+00  2288   0.535E+00    0.877E-01
DAV:   3    -0.136490098693E+04   -0.28655E-01   -0.40243E-01  2600   0.108E+00    0.724E-01
DAV:   4    -0.136489492713E+04    0.60598E-02   -0.43892E-02  2624   0.495E-01    0.489E-01
DAV:   5    -0.136489020485E+04    0.47223E-02   -0.24439E-02  2352   0.314E-01    0.198E-01
DAV:   6    -0.136489113402E+04   -0.92918E-03   -0.13880E-02  2504   0.229E-01    0.196E-01
DAV:   7    -0.136489078678E+04    0.34724E-03   -0.64573E-03  2448   0.152E-01    0.127E-01
DAV:   8    -0.136489074464E+04    0.42136E-04   -0.29952E-03  2552   0.101E-01    0.636E-02
DAV:   9    -0.136489072639E+04    0.18259E-04   -0.42107E-04  2496   0.455E-02    0.460E-02
DAV:  10    -0.136489072693E+04   -0.54135E-06   -0.22132E-04  2536   0.267E-02    0.235E-02
DAV:  11    -0.136489072904E+04   -0.21131E-05   -0.74299E-05  2464   0.189E-02    0.143E-02
DAV:  12    -0.136489072864E+04    0.40441E-06   -0.32181E-05  2328   0.131E-02    0.124E-02
DAV:  13    -0.136489072787E+04    0.76853E-06   -0.25993E-05  2112   0.906E-03    0.692E-03
DAV:  14    -0.136489072742E+04    0.44348E-06   -0.29053E-06  1128   0.541E-03
   7 F= -.13648907E+04 E0= -.13648907E+04  d E =-.806154E+00
 BRION: g(F)=  0.304E+00 g(S)=  0.000E+00 retain N=  6 mean eig= 2.34
 eig:   4.384  4.384  1.585  1.585  1.041  1.041
 bond charge predicted
       N       E                     dE             d eps       ncg     rms          rms(c)
DAV:   1    -0.136514152585E+04   -0.25080E+00   -0.72599E+01  1384   0.121E+01    0.145E+00
DAV:   2    -0.136550473301E+04   -0.36321E+00   -0.38125E+00  2304   0.466E+00    0.725E-01
DAV:   3    -0.136552580797E+04   -0.21075E-01   -0.30011E-01  2600   0.905E-01    0.578E-01
DAV:   4    -0.136552092528E+04    0.48827E-02   -0.30408E-02  2592   0.410E-01    0.385E-01
DAV:   5    -0.136551747626E+04    0.34490E-02   -0.16295E-02  2304   0.254E-01    0.151E-01
DAV:   6    -0.136551804305E+04   -0.56679E-03   -0.89245E-03  2512   0.182E-01    0.137E-01
DAV:   7    -0.136551791795E+04    0.12511E-03   -0.38240E-03  2472   0.116E-01    0.915E-02
DAV:   8    -0.136551790863E+04    0.93113E-05   -0.16286E-03  2584   0.748E-02    0.514E-02
DAV:   9    -0.136551789384E+04    0.14794E-04   -0.25055E-04  2512   0.350E-02    0.379E-02
DAV:  10    -0.136551789214E+04    0.16980E-05   -0.15553E-04  2544   0.220E-02    0.193E-02
DAV:  11    -0.136551789329E+04   -0.11461E-05   -0.54532E-05  2440   0.157E-02    0.104E-02
DAV:  12    -0.136551789335E+04   -0.64218E-07   -0.20052E-05  2216   0.105E-02    0.912E-03
DAV:  13    -0.136551789300E+04    0.35501E-06   -0.13508E-05  1784   0.695E-03    0.527E-03
DAV:  14    -0.136551789273E+04    0.26621E-06   -0.14706E-06   984   0.463E-03
   8 F= -.13655179E+04 E0= -.13655179E+04  d E =-.627165E+00
 BRION: g(F)=  0.234E+00 g(S)=  0.000E+00 retain N=  6 mean eig= 3.50
 eig:   7.879  7.879  1.788  1.788  0.841  0.841
 bond charge predicted
       N       E                     dE             d eps       ncg     rms          rms(c)
DAV:   1    -0.136568935866E+04   -0.17147E+00   -0.85509E+01  1392   0.130E+01    0.155E+00
DAV:   2    -0.136611793069E+04   -0.42857E+00   -0.44898E+00  2296   0.500E+00    0.761E-01
DAV:   3    -0.136614289321E+04   -0.24963E-01   -0.35145E-01  2600   0.961E-01    0.607E-01
DAV:   4    -0.136613726252E+04    0.56307E-02   -0.33724E-02  2592   0.432E-01    0.404E-01
DAV:   5    -0.136613311805E+04    0.41445E-02   -0.17247E-02  2312   0.267E-01    0.149E-01
DAV:   6    -0.136613378871E+04   -0.67066E-03   -0.98854E-03  2488   0.185E-01    0.133E-01
DAV:   7    -0.136613369851E+04    0.90201E-04   -0.33019E-03  2504   0.110E-01    0.913E-02
DAV:   8    -0.136613367472E+04    0.23783E-04   -0.14610E-03  2576   0.708E-02    0.480E-02
DAV:   9    -0.136613366277E+04    0.11955E-04   -0.26318E-04  2376   0.354E-02    0.368E-02
DAV:  10    -0.136613366093E+04    0.18371E-05   -0.12991E-04  2472   0.220E-02    0.192E-02
DAV:  11    -0.136613366145E+04   -0.52124E-06   -0.49154E-05  2424   0.149E-02    0.912E-03
DAV:  12    -0.136613366253E+04   -0.10806E-05   -0.19460E-05  2248   0.965E-03    0.866E-03
DAV:  13    -0.136613366195E+04    0.58195E-06   -0.89031E-06  1584   0.626E-03
   9 F= -.13661337E+04 E0= -.13661337E+04  d E =-.615769E+00
 BRION: g(F)=  0.193E+00 g(S)=  0.000E+00 retain N=  4 mean eig= 4.88
 eig:   7.645  7.645  2.112  2.112
 bond charge predicted
       N       E                     dE             d eps       ncg     rms          rms(c)
DAV:   1    -0.136630969841E+04   -0.17604E+00   -0.56784E+01  1384   0.107E+01    0.123E+00
DAV:   2    -0.136659867792E+04   -0.28898E+00   -0.30381E+00  2320   0.420E+00    0.619E-01
DAV:   3    -0.136661506140E+04   -0.16383E-01   -0.23049E-01  2592   0.795E-01    0.493E-01
DAV:   4    -0.136661155791E+04    0.35035E-02   -0.21040E-02  2592   0.344E-01    0.341E-01
DAV:   5    -0.136660853516E+04    0.30228E-02   -0.12485E-02  2304   0.222E-01    0.124E-01
DAV:   6    -0.136660901136E+04   -0.47620E-03   -0.68960E-03  2472   0.154E-01    0.117E-01
DAV:   7    -0.136660893925E+04    0.72108E-04   -0.24207E-03  2512   0.933E-02    0.779E-02
DAV:   8    -0.136660890796E+04    0.31295E-04   -0.10218E-03  2576   0.611E-02    0.406E-02
DAV:   9    -0.136660890158E+04    0.63758E-05   -0.17245E-04  2320   0.292E-02    0.306E-02
DAV:  10    -0.136660890177E+04   -0.18271E-06   -0.89810E-05  2408   0.178E-02    0.139E-02
DAV:  11    -0.136660890275E+04   -0.98826E-06   -0.25356E-05  2304   0.114E-02    0.620E-03
DAV:  12    -0.136660890371E+04   -0.95402E-06   -0.12048E-05  1832   0.717E-03    0.645E-03
DAV:  13    -0.136660890310E+04    0.61114E-06   -0.16511E-06   992   0.491E-03
  10 F= -.13666089E+04 E0= -.13666089E+04  d E =-.475241E+00
 BRION: g(F)=  0.174E+00 g(S)=  0.000E+00 retain N=  3 mean eig= 5.74
 eig:   2.456  7.388  7.388
 bond charge predicted
       N       E                     dE             d eps       ncg     rms          rms(c)
DAV:   1    -0.136679700224E+04   -0.18810E+00   -0.37786E+01  1384   0.873E+00    0.101E+00
DAV:   2    -0.136699131671E+04   -0.19431E+00   -0.20442E+00  2296   0.350E+00    0.499E-01
DAV:   3    -0.136700279195E+04   -0.11475E-01   -0.15950E-01  2584   0.660E-01    0.400E-01
DAV:   4    -0.136700058627E+04    0.22057E-02   -0.13820E-02  2584   0.281E-01    0.288E-01
DAV:   5    -0.136699822991E+04    0.23564E-02   -0.81650E-03  2264   0.182E-01    0.108E-01
DAV:   6    -0.136699851010E+04   -0.28019E-03   -0.55032E-03  2400   0.135E-01    0.965E-02
DAV:   7    -0.136699847782E+04    0.32283E-04   -0.19313E-03  2464   0.826E-02    0.681E-02
DAV:   8    -0.136699845527E+04    0.22550E-04   -0.76448E-04  2560   0.527E-02    0.357E-02
DAV:   9    -0.136699844640E+04    0.88641E-05   -0.15930E-04  2288   0.268E-02    0.253E-02
DAV:  10    -0.136699844750E+04   -0.10994E-05   -0.65858E-05  2416   0.156E-02    0.135E-02
DAV:  11    -0.136699844761E+04   -0.10322E-06   -0.21731E-05  2248   0.103E-02    0.622E-03
DAV:  12    -0.136699844826E+04   -0.65037E-06   -0.98632E-06  1760   0.679E-03
  11 F= -.13669984E+04 E0= -.13669984E+04  d E =-.389545E+00
 BRION: g(F)=  0.163E+00 g(S)=  0.000E+00 retain N=  2 mean eig= 4.24
 eig:   4.242  4.242
 bond charge predicted
       N       E                     dE             d eps       ncg     rms          rms(c)
DAV:   1    -0.136718443160E+04   -0.18598E+00   -0.33033E+01  1384   0.818E+00    0.927E-01
DAV:   2    -0.136735640751E+04   -0.17198E+00   -0.18083E+00  2320   0.329E+00    0.466E-01
DAV:   3    -0.136736593093E+04   -0.95234E-02   -0.13489E-01  2584   0.610E-01    0.371E-01
DAV:   4    -0.136736390463E+04    0.20263E-02   -0.12032E-02  2592   0.261E-01    0.265E-01
DAV:   5    -0.136736185599E+04    0.20486E-02   -0.70155E-03  2264   0.169E-01    0.975E-02
DAV:   6    -0.136736210328E+04   -0.24729E-03   -0.46238E-03  2392   0.123E-01    0.865E-02
DAV:   7    -0.136736208606E+04    0.17222E-04   -0.15360E-03  2440   0.733E-02    0.617E-02
DAV:   8    -0.136736206591E+04    0.20149E-04   -0.58904E-04  2568   0.465E-02    0.322E-02
DAV:   9    -0.136736205851E+04    0.73958E-05   -0.13263E-04  2264   0.243E-02    0.226E-02
DAV:  10    -0.136736205989E+04   -0.13788E-05   -0.52206E-05  2456   0.141E-02    0.123E-02
DAV:  11    -0.136736205967E+04    0.22142E-06   -0.17568E-05  2216   0.937E-03    0.539E-03
DAV:  12    -0.136736206033E+04   -0.66317E-06   -0.87355E-06  1760   0.632E-03
  12 F= -.13673621E+04 E0= -.13673621E+04  d E =-.363612E+00
 BRION: g(F)=  0.156E+00 g(S)=  0.000E+00 retain N=  2 mean eig= 4.04
 eig:   4.044  4.044
 bond charge predicted
       N       E                     dE             d eps       ncg     rms          rms(c)
DAV:   1    -0.136754014057E+04   -0.17808E+00   -0.24099E+01  1384   0.703E+00    0.801E-01
DAV:   2    -0.136766766593E+04   -0.12753E+00   -0.13419E+00  2312   0.286E+00    0.403E-01
DAV:   3    -0.136767494440E+04   -0.72785E-02   -0.10137E-01  2576   0.536E-01    0.321E-01
DAV:   4    -0.136767353689E+04    0.14075E-02   -0.91037E-03  2584   0.227E-01    0.232E-01
DAV:   5    -0.136767205417E+04    0.14827E-02   -0.53549E-03  2264   0.146E-01    0.867E-02
DAV:   6    -0.136767224082E+04   -0.18665E-03   -0.34261E-03  2440   0.106E-01    0.763E-02
DAV:   7    -0.136767222230E+04    0.18525E-04   -0.12489E-03  2480   0.647E-02    0.525E-02
DAV:   8    -0.136767220907E+04    0.13227E-04   -0.46928E-04  2552   0.422E-02    0.291E-02
DAV:   9    -0.136767220494E+04    0.41317E-05   -0.93463E-05  2336   0.208E-02    0.205E-02
DAV:  10    -0.136767220568E+04   -0.74258E-06   -0.44974E-05  2448   0.128E-02    0.979E-03
DAV:  11    -0.136767220598E+04   -0.30034E-06   -0.10105E-05  1808   0.810E-03    0.504E-03
DAV:  12    -0.136767220661E+04   -0.62911E-06   -0.10305E-05  1600   0.604E-03    0.532E-03
DAV:  13    -0.136767220617E+04    0.43905E-06   -0.12683E-06   960   0.471E-03
  13 F= -.13676722E+04 E0= -.13676722E+04  d E =-.310146E+00
 BRION: g(F)=  0.150E+00 g(S)=  0.000E+00 retain N=  3 mean eig= 5.64
 eig:   7.352  7.352  2.222
 bond charge predicted
       N       E                     dE             d eps       ncg     rms          rms(c)
DAV:   1    -0.136784528849E+04   -0.17308E+00   -0.21419E+01  1384   0.659E+00    0.743E-01
DAV:   2    -0.136795698365E+04   -0.11170E+00   -0.11740E+00  2320   0.265E+00    0.374E-01
DAV:   3    -0.136796333889E+04   -0.63552E-02   -0.88717E-02  2584   0.495E-01    0.298E-01
DAV:   4    -0.136796206413E+04    0.12748E-02   -0.77994E-03  2592   0.211E-01    0.215E-01
DAV:   5    -0.136796070721E+04    0.13569E-02   -0.45884E-03  2256   0.137E-01    0.805E-02
DAV:   6    -0.136796086798E+04   -0.16077E-03   -0.31786E-03  2408   0.102E-01    0.702E-02
DAV:   7    -0.136796086071E+04    0.72658E-05   -0.10990E-03  2408   0.602E-02    0.501E-02
DAV:   8    -0.136796084724E+04    0.13473E-04   -0.37587E-04  2568   0.381E-02    0.260E-02
DAV:   9    -0.136796084229E+04    0.49542E-05   -0.89419E-05  2264   0.197E-02    0.178E-02
DAV:  10    -0.136796084359E+04   -0.13058E-05   -0.31655E-05  2472   0.113E-02    0.103E-02
DAV:  11    -0.136796084317E+04    0.42701E-06   -0.12719E-05  1944   0.805E-03    0.453E-03
DAV:  12    -0.136796084340E+04   -0.23005E-06   -0.42882E-06  1336   0.566E-03
  14 F= -.13679608E+04 E0= -.13679608E+04  d E =-.288637E+00
 BRION: g(F)=  0.146E+00 g(S)=  0.000E+00 retain N=  3 mean eig= 4.26
 eig:   5.456  5.456  1.881
 bond charge predicted
       N       E                     dE             d eps       ncg     rms          rms(c)
DAV:   1    -0.136813438903E+04   -0.17355E+00   -0.21940E+01  1384   0.671E+00    0.769E-01
DAV:   2    -0.136825085851E+04   -0.11647E+00   -0.12251E+00  2320   0.270E+00    0.387E-01
DAV:   3    -0.136825756480E+04   -0.67063E-02   -0.92925E-02  2560   0.510E-01    0.308E-01
DAV:   4    -0.136825626836E+04    0.12964E-02   -0.86928E-03  2576   0.220E-01    0.220E-01
DAV:   5    -0.136825496231E+04    0.13060E-02   -0.48715E-03  2272   0.140E-01    0.813E-02
DAV:   6    -0.136825513139E+04   -0.16908E-03   -0.29955E-03  2432   0.999E-02    0.714E-02
DAV:   7    -0.136825511631E+04    0.15083E-04   -0.11041E-03  2464   0.607E-02    0.489E-02
DAV:   8    -0.136825510419E+04    0.12117E-04   -0.40160E-04  2560   0.396E-02    0.269E-02
DAV:   9    -0.136825510112E+04    0.30695E-05   -0.84719E-05  2360   0.197E-02    0.191E-02
DAV:  10    -0.136825510173E+04   -0.61230E-06   -0.38532E-05  2392   0.120E-02    0.962E-03
DAV:  11    -0.136825510175E+04   -0.18539E-07   -0.10164E-05  1744   0.822E-03    0.498E-03
DAV:  12    -0.136825510236E+04   -0.61176E-06   -0.10201E-05  1600   0.636E-03    0.538E-03
DAV:  13    -0.136825510193E+04    0.42973E-06   -0.12582E-06   944   0.473E-03
  15 F= -.13682551E+04 E0= -.13682551E+04  d E =-.294259E+00
 BRION: g(F)=  0.140E+00 g(S)=  0.000E+00 retain N=  3 mean eig= 4.17
 eig:   5.405  5.405  1.695
 bond charge predicted
       N       E                     dE             d eps       ncg     rms          rms(c)
DAV:   1    -0.136843105307E+04   -0.17595E+00   -0.33100E+01  1384   0.820E+00    0.927E-01
DAV:   2    -0.136860424554E+04   -0.17319E+00   -0.18240E+00  2320   0.327E+00    0.469E-01
DAV:   3    -0.136861436431E+04   -0.10119E-01   -0.14013E-01  2576   0.623E-01    0.373E-01
DAV:   4    -0.136861249243E+04    0.18719E-02   -0.12449E-02  2592   0.267E-01    0.271E-01
DAV:   5    -0.136861046179E+04    0.20306E-02   -0.70293E-03  2280   0.168E-01    0.106E-01
DAV:   6    -0.136861065277E+04   -0.19098E-03   -0.46877E-03  2392   0.125E-01    0.876E-02
DAV:   7    -0.136861063924E+04    0.13527E-04   -0.18516E-03  2448   0.785E-02    0.615E-02
DAV:   8    -0.136861062268E+04    0.16560E-04   -0.65496E-04  2576   0.506E-02    0.344E-02
DAV:   9    -0.136861061626E+04    0.64248E-05   -0.15103E-04  2360   0.254E-02    0.238E-02
DAV:  10    -0.136861061742E+04   -0.11585E-05   -0.59805E-05  2448   0.149E-02    0.131E-02
DAV:  11    -0.136861061764E+04   -0.22212E-06   -0.22584E-05  2256   0.104E-02    0.663E-03
DAV:  12    -0.136861061786E+04   -0.22538E-06   -0.97285E-06  1760   0.715E-03
  16 F= -.13686106E+04 E0= -.13686106E+04  d E =-.355516E+00
 BRION: g(F)=  0.132E+00 g(S)=  0.000E+00 retain N=  3 mean eig= 4.63
 eig:   6.064  6.064  1.761
 bond charge predicted
       N       E                     dE             d eps       ncg     rms          rms(c)
DAV:   1    -0.136877844094E+04   -0.16782E+00   -0.38927E+01  1384   0.888E+00    0.100E+00
DAV:   2    -0.136898068250E+04   -0.20224E+00   -0.21282E+00  2320   0.350E+00    0.508E-01
DAV:   3    -0.136899215492E+04   -0.11472E-01   -0.16218E-01  2568   0.672E-01    0.401E-01
DAV:   4    -0.136898973266E+04    0.24223E-02   -0.15117E-02  2584   0.291E-01    0.285E-01
DAV:   5    -0.136898736209E+04    0.23706E-02   -0.79259E-03  2280   0.183E-01    0.110E-01
DAV:   6    -0.136898756258E+04   -0.20049E-03   -0.53718E-03  2400   0.136E-01    0.884E-02
DAV:   7    -0.136898756774E+04   -0.51573E-05   -0.19815E-03  2432   0.821E-02    0.648E-02
DAV:   8    -0.136898754935E+04    0.18385E-04   -0.68699E-04  2600   0.514E-02    0.354E-02
DAV:   9    -0.136898754172E+04    0.76303E-05   -0.17700E-04  2400   0.274E-02    0.240E-02
DAV:  10    -0.136898754379E+04   -0.20661E-05   -0.70176E-05  2472   0.164E-02    0.148E-02
DAV:  11    -0.136898754312E+04    0.67004E-06   -0.28811E-05  2320   0.117E-02    0.700E-03
DAV:  12    -0.136898754364E+04   -0.52567E-06   -0.11928E-05  1776   0.794E-03    0.678E-03
DAV:  13    -0.136898754308E+04    0.56747E-06   -0.34685E-06  1184   0.518E-03
  17 F= -.13689875E+04 E0= -.13689875E+04  d E =-.376925E+00
 BRION: g(F)=  0.122E+00 g(S)=  0.000E+00 retain N=  3 mean eig= 5.72
 eig:   7.545  7.545  2.084
 bond charge predicted
       N       E                     dE             d eps       ncg     rms          rms(c)
DAV:   1    -0.136911485134E+04   -0.12731E+00   -0.51202E+01  1384   0.102E+01    0.117E+00
DAV:   2    -0.136938073489E+04   -0.26588E+00   -0.28078E+00  2312   0.402E+00    0.591E-01
DAV:   3    -0.136939691525E+04   -0.16180E-01   -0.22394E-01  2584   0.775E-01    0.475E-01
DAV:   4    -0.136939399700E+04    0.29182E-02   -0.19643E-02  2608   0.335E-01    0.347E-01
DAV:   5    -0.136939059198E+04    0.34050E-02   -0.10626E-02  2288   0.209E-01    0.143E-01
DAV:   6    -0.136939074904E+04   -0.15706E-03   -0.77134E-03  2344   0.163E-01    0.111E-01
DAV:   7    -0.136939075141E+04   -0.23620E-05   -0.34394E-03  2456   0.107E-01    0.832E-02
DAV:   8    -0.136939071345E+04    0.37954E-04   -0.11279E-03  2592   0.681E-02    0.490E-02
DAV:   9    -0.136939069882E+04    0.14634E-04   -0.31669E-04  2488   0.349E-02    0.303E-02
DAV:  10    -0.136939070220E+04   -0.33793E-05   -0.99696E-05  2536   0.194E-02    0.184E-02
DAV:  11    -0.136939070319E+04   -0.99154E-06   -0.38801E-05  2432   0.135E-02    0.117E-02
DAV:  12    -0.136939070246E+04    0.72607E-06   -0.21986E-05  2208   0.103E-02    0.977E-03
DAV:  13    -0.136939070194E+04    0.52071E-06   -0.12474E-05  1768   0.681E-03    0.557E-03
DAV:  14    -0.136939070150E+04    0.44028E-06   -0.20990E-06   984   0.481E-03
  18 F= -.13693907E+04 E0= -.13693907E+04  d E =-.403158E+00
 BRION: g(F)=  0.108E+00 g(S)=  0.000E+00 retain N=  2 mean eig= 5.46
 eig:   5.456  5.456
 bond charge predicted
       N       E                     dE             d eps       ncg     rms          rms(c)
DAV:   1    -0.136949396182E+04   -0.10326E+00   -0.50540E+01  1384   0.101E+01    0.114E+00
DAV:   2    -0.136975015041E+04   -0.25619E+00   -0.27064E+00  2312   0.391E+00    0.583E-01
DAV:   3    -0.136976489592E+04   -0.14746E-01   -0.21289E-01  2576   0.758E-01    0.464E-01
DAV:   4    -0.136976163021E+04    0.32657E-02   -0.19256E-02  2600   0.328E-01    0.333E-01
DAV:   5    -0.136975815927E+04    0.34709E-02   -0.10128E-02  2272   0.210E-01    0.136E-01
DAV:   6    -0.136975828629E+04   -0.12701E-03   -0.77743E-03  2336   0.164E-01    0.107E-01
DAV:   7    -0.136975830968E+04   -0.23397E-04   -0.32096E-03  2408   0.104E-01    0.818E-02
DAV:   8    -0.136975827759E+04    0.32093E-04   -0.10338E-03  2600   0.632E-02    0.450E-02
DAV:   9    -0.136975826075E+04    0.16841E-04   -0.30970E-04  2416   0.348E-02    0.282E-02
DAV:  10    -0.136975826605E+04   -0.52959E-05   -0.11103E-04  2448   0.203E-02    0.202E-02
DAV:  11    -0.136975826389E+04    0.21594E-05   -0.49538E-05  2416   0.149E-02    0.105E-02
DAV:  12    -0.136975826431E+04   -0.42010E-06   -0.21546E-05  2096   0.101E-02    0.101E-02
DAV:  13    -0.136975826334E+04    0.96737E-06   -0.12181E-05  1696   0.698E-03    0.492E-03
DAV:  14    -0.136975826314E+04    0.19460E-06   -0.34302E-06  1160   0.539E-03
  19 F= -.13697583E+04 E0= -.13697583E+04  d E =-.367562E+00
 BRION: g(F)=  0.919E-01 g(S)=  0.000E+00 retain N=  2 mean eig= 6.11
 eig:   6.113  6.113
 bond charge predicted
       N       E                     dE             d eps       ncg     rms          rms(c)
DAV:   1    -0.136983097599E+04   -0.72713E-01   -0.43273E+01  1376   0.934E+00    0.108E+00
DAV:   2    -0.137005272423E+04   -0.22175E+00   -0.23446E+00  2312   0.364E+00    0.552E-01
DAV:   3    -0.137006525776E+04   -0.12534E-01   -0.18311E-01  2584   0.706E-01    0.440E-01
DAV:   4    -0.137006226564E+04    0.29921E-02   -0.17130E-02  2600   0.308E-01    0.311E-01
DAV:   5    -0.137005932675E+04    0.29389E-02   -0.89443E-03  2272   0.197E-01    0.123E-01
DAV:   6    -0.137005949636E+04   -0.16961E-03   -0.64336E-03  2360   0.148E-01    0.992E-02
DAV:   7    -0.137005950440E+04   -0.80375E-05   -0.24819E-03  2384   0.914E-02    0.756E-02
DAV:   8    -0.137005947499E+04    0.29403E-04   -0.91064E-04  2600   0.583E-02    0.421E-02
DAV:   9    -0.137005946260E+04    0.12391E-04   -0.23789E-04  2464   0.313E-02    0.267E-02
DAV:  10    -0.137005946589E+04   -0.32899E-05   -0.96448E-05  2496   0.186E-02    0.170E-02
DAV:  11    -0.137005946498E+04    0.91294E-06   -0.32851E-05  2376   0.128E-02    0.939E-03
DAV:  12    -0.137005946537E+04   -0.39444E-06   -0.19031E-05  2080   0.907E-03    0.899E-03
DAV:  13    -0.137005946455E+04    0.82892E-06   -0.83553E-06  1632   0.633E-03
  20 F= -.13700595E+04 E0= -.13700595E+04  d E =-.301201E+00
 BRION: g(F)=  0.772E-01 g(S)=  0.000E+00 retain N=  2 mean eig= 6.46
 eig:   6.463  6.463
