 running on  160 total cores
 distrk:  each k-point on  160 cores,    1 groups
 distr:  one band on   20 cores,    8 groups
 using from now: INCAR     
 vasp.5.4.4.18Apr17-6-g9f103f2a35 (build May 01 2020 14:22:42) gamma-only       
  
 POSCAR found type information on POSCAR  O  La Zr Li Al
 POSCAR found :  5 types and     192 ions
 scaLAPACK will be used
 LDA part: xc-table for Pade appr. of Perdew
 POSCAR, INCAR and KPOINTS ok, starting setup
 FFT: planning ...
 WAVECAR not read
 WARNING: random wavefunctions but no delay for mixing, default for NELMDL
 entering main loop
       N       E                     dE             d eps       ncg     rms          rms(c)
DAV:   1     0.254231622551E+05    0.25423E+05   -0.41860E+05  1544   0.253E+03
DAV:   2     0.942357519480E+04   -0.16000E+05   -0.14814E+05  1432   0.704E+02
DAV:   3     0.264256826939E+04   -0.67810E+04   -0.61777E+04  1504   0.358E+02
DAV:   4    -0.399718046725E+03   -0.30423E+04   -0.28479E+04  2048   0.225E+02
DAV:   5    -0.143113169383E+04   -0.10314E+04   -0.99503E+03  2528   0.139E+02    0.117E+02
DAV:   6    -0.130906526471E+04    0.12207E+03   -0.14280E+03  2448   0.666E+01    0.501E+01
DAV:   7    -0.133281433094E+04   -0.23749E+02   -0.38970E+02  2568   0.337E+01    0.247E+01
DAV:   8    -0.134444160108E+04   -0.11627E+02   -0.28760E+02  2520   0.278E+01    0.279E+01
DAV:   9    -0.133532972388E+04    0.91119E+01   -0.67687E+01  2472   0.158E+01    0.802E+00
DAV:  10    -0.133673515110E+04   -0.14054E+01   -0.17241E+01  2600   0.890E+00    0.876E+00
DAV:  11    -0.133682256470E+04   -0.87414E-01   -0.82513E+00  2624   0.484E+00    0.452E+00
DAV:  12    -0.133669239189E+04    0.13017E+00   -0.31991E+00  2544   0.396E+00    0.321E+00
DAV:  13    -0.133678737665E+04   -0.94985E-01   -0.96923E-01  2552   0.189E+00    0.232E+00
DAV:  14    -0.133675783487E+04    0.29542E-01   -0.44707E-01  2544   0.130E+00    0.113E+00
DAV:  15    -0.133676966755E+04   -0.11833E-01   -0.13452E-01  2544   0.742E-01    0.107E+00
DAV:  16    -0.133677024298E+04   -0.57543E-03   -0.41957E-02  2608   0.399E-01    0.711E-01
DAV:  17    -0.133676688557E+04    0.33574E-02   -0.31179E-02  2416   0.344E-01    0.326E-01
DAV:  18    -0.133676739641E+04   -0.51085E-03   -0.66626E-03  2424   0.174E-01    0.186E-01
DAV:  19    -0.133676728146E+04    0.11496E-03   -0.30720E-03  2568   0.107E-01    0.118E-01
DAV:  20    -0.133676733707E+04   -0.55615E-04   -0.91536E-04  2608   0.584E-02    0.346E-02
DAV:  21    -0.133676735353E+04   -0.16455E-04   -0.21758E-04  2616   0.296E-02    0.274E-02
DAV:  22    -0.133676737228E+04   -0.18747E-04   -0.70789E-05  2520   0.155E-02    0.167E-02
DAV:  23    -0.133676737000E+04    0.22759E-05   -0.36139E-05  2088   0.111E-02    0.840E-03
DAV:  24    -0.133676737451E+04   -0.45130E-05   -0.11767E-05  1296   0.822E-03    0.344E-03
DAV:  25    -0.133676737288E+04    0.16341E-05   -0.53585E-06  1032   0.604E-03    0.551E-03
DAV:  26    -0.133676737430E+04   -0.14262E-05   -0.29600E-06   968   0.590E-03    0.317E-03
DAV:  27    -0.133676737522E+04   -0.91382E-06   -0.16415E-06   944   0.429E-03
   1 F= -.13367674E+04 E0= -.13367674E+04  d E =-.133677E+04
 BRION: g(F)=  0.448E+02 g(S)=  0.000E+00
 bond charge predicted
       N       E                     dE             d eps       ncg     rms          rms(c)
DAV:   1    -0.131543222924E+04    0.21335E+02   -0.59331E+03  1664   0.117E+02    0.234E+01
DAV:   2    -0.135659781199E+04   -0.41166E+02   -0.48860E+02  2576   0.518E+01    0.116E+01
DAV:   3    -0.135591162301E+04    0.68619E+00   -0.30361E+01  2616   0.141E+01    0.799E+00
DAV:   4    -0.135431060448E+04    0.16010E+01   -0.68116E+00  2560   0.586E+00    0.410E+00
DAV:   5    -0.135386734975E+04    0.44325E+00   -0.26039E+00  2472   0.409E+00    0.234E+00
DAV:   6    -0.135388105832E+04   -0.13709E-01   -0.26267E+00  2536   0.301E+00    0.147E+00
DAV:   7    -0.135388134451E+04   -0.28620E-03   -0.47173E-01  2528   0.151E+00    0.110E+00
DAV:   8    -0.135388023210E+04    0.11124E-02   -0.27568E-01  2592   0.827E-01    0.544E-01
DAV:   9    -0.135387879552E+04    0.14366E-02   -0.27760E-02  2624   0.473E-01    0.401E-01
DAV:  10    -0.135387747059E+04    0.13249E-02   -0.33961E-02  2512   0.365E-01    0.179E-01
DAV:  11    -0.135387846211E+04   -0.99152E-03   -0.12182E-02  2432   0.229E-01    0.179E-01
DAV:  12    -0.135387835943E+04    0.10268E-03   -0.29693E-03  2544   0.959E-02    0.979E-02
DAV:  13    -0.135387826772E+04    0.91707E-04   -0.17926E-03  2624   0.806E-02    0.317E-02
DAV:  14    -0.135387829855E+04   -0.30836E-04   -0.55231E-04  2624   0.495E-02    0.307E-02
DAV:  15    -0.135387830136E+04   -0.28018E-05   -0.83834E-05  2608   0.223E-02    0.261E-02
DAV:  16    -0.135387829395E+04    0.74105E-05   -0.55560E-05  2504   0.127E-02    0.114E-02
DAV:  17    -0.135387829529E+04   -0.13446E-05   -0.20343E-05  2280   0.939E-03    0.576E-03
DAV:  18    -0.135387829485E+04    0.44412E-06   -0.31774E-06  1144   0.530E-03
   2 F= -.13538783E+04 E0= -.13538783E+04  d E =-.171109E+02
 BRION: g(F)=  0.212E+02 g(S)=  0.000E+00 retain N=  1 mean eig= 0.63
 eig:   0.634
 bond charge predicted
       N       E                     dE             d eps       ncg     rms          rms(c)
DAV:   1    -0.134674929919E+04    0.71290E+01   -0.18720E+03  1448   0.594E+01    0.124E+01
DAV:   2    -0.135933817342E+04   -0.12589E+02   -0.15126E+02  2480   0.267E+01    0.117E+01
DAV:   3    -0.135979871558E+04   -0.46054E+00   -0.11159E+01  2576   0.752E+00    0.937E+00
DAV:   4    -0.135938700098E+04    0.41171E+00   -0.29511E+00  2512   0.360E+00    0.529E+00
DAV:   5    -0.135923629648E+04    0.15070E+00   -0.12844E+00  2152   0.298E+00    0.302E+00
DAV:   6    -0.135915663070E+04    0.79666E-01   -0.16618E+00  2448   0.232E+00    0.133E+00
DAV:   7    -0.135917260827E+04   -0.15978E-01   -0.33426E-01  2480   0.117E+00    0.941E-01
DAV:   8    -0.135917008725E+04    0.25210E-02   -0.56023E-02  2624   0.497E-01    0.715E-01
DAV:   9    -0.135916932084E+04    0.76641E-03   -0.32608E-02  2368   0.332E-01    0.586E-01
DAV:  10    -0.135916549319E+04    0.38277E-02   -0.15749E-02  2496   0.259E-01    0.349E-01
DAV:  11    -0.135916495796E+04    0.53523E-03   -0.12720E-02  2464   0.196E-01    0.124E-01
DAV:  12    -0.135916497487E+04   -0.16906E-04   -0.15250E-03  2600   0.884E-02    0.670E-02
DAV:  13    -0.135916497499E+04   -0.12273E-06   -0.52871E-04  2384   0.479E-02    0.244E-02
DAV:  14    -0.135916499489E+04   -0.19903E-04   -0.23263E-04  2584   0.330E-02    0.199E-02
DAV:  15    -0.135916499275E+04    0.21431E-05   -0.52320E-05  2560   0.168E-02    0.148E-02
DAV:  16    -0.135916499260E+04    0.15377E-06   -0.38751E-05  2312   0.106E-02    0.685E-03
DAV:  17    -0.135916499256E+04    0.33091E-07   -0.50116E-06  1320   0.678E-03
   3 F= -.13591650E+04 E0= -.13591650E+04  d E =-.528670E+01
 BRION: g(F)=  0.411E+01 g(S)=  0.000E+00 retain N=  2 mean eig= 0.93
 eig:   0.441  1.413
 bond charge predicted
       N       E                     dE             d eps       ncg     rms          rms(c)
DAV:   1    -0.136007647634E+04   -0.91148E+00   -0.31820E+02  1376   0.256E+01    0.542E+00
DAV:   2    -0.136160492140E+04   -0.15284E+01   -0.17311E+01  2304   0.977E+00    0.226E+00
DAV:   3    -0.136165110806E+04   -0.46187E-01   -0.14686E+00  2592   0.229E+00    0.192E+00
DAV:   4    -0.136160082005E+04    0.50288E-01   -0.33327E-01  2560   0.123E+00    0.969E-01
DAV:   5    -0.136159233353E+04    0.84865E-02   -0.12695E-01  2304   0.751E-01    0.600E-01
DAV:   6    -0.136159105912E+04    0.12744E-02   -0.71895E-02  2584   0.518E-01    0.376E-01
DAV:   7    -0.136159079312E+04    0.26600E-03   -0.26837E-02  2480   0.303E-01    0.252E-01
DAV:   8    -0.136159048780E+04    0.30532E-03   -0.69209E-03  2624   0.159E-01    0.136E-01
DAV:   9    -0.136159040913E+04    0.78666E-04   -0.20515E-03  2624   0.946E-02    0.822E-02
DAV:  10    -0.136159047802E+04   -0.68886E-04   -0.11758E-03  2296   0.636E-02    0.809E-02
DAV:  11    -0.136159041667E+04    0.61346E-04   -0.65282E-04  2456   0.460E-02    0.356E-02
DAV:  12    -0.136159041996E+04   -0.32932E-05   -0.29942E-04  2520   0.303E-02    0.225E-02
DAV:  13    -0.136159041772E+04    0.22488E-05   -0.60178E-05  2568   0.170E-02    0.116E-02
DAV:  14    -0.136159041872E+04   -0.10011E-05   -0.17505E-05  2096   0.825E-03    0.478E-03
DAV:  15    -0.136159041889E+04   -0.17452E-06   -0.38693E-06  1264   0.510E-03
   4 F= -.13615904E+04 E0= -.13615904E+04  d E =-.242543E+01
 BRION: g(F)=  0.119E+01 g(S)=  0.000E+00 retain N=  3 mean eig= 1.13
 eig:   0.680  1.356  1.356
 bond charge predicted
       N       E                     dE             d eps       ncg     rms          rms(c)
DAV:   1    -0.136214656241E+04   -0.55614E+00   -0.17142E+02  1352   0.189E+01    0.269E+00
DAV:   2    -0.136297001910E+04   -0.82346E+00   -0.87800E+00  2288   0.696E+00    0.128E+00
DAV:   3    -0.136300947486E+04   -0.39456E-01   -0.69061E-01  2624   0.147E+00    0.106E+00
DAV:   4    -0.136299337275E+04    0.16102E-01   -0.97264E-02  2576   0.689E-01    0.638E-01
DAV:   5    -0.136298682737E+04    0.65454E-02   -0.44387E-02  2312   0.422E-01    0.283E-01
DAV:   6    -0.136298789008E+04   -0.10627E-02   -0.20090E-02  2536   0.285E-01    0.243E-01
DAV:   7    -0.136298744691E+04    0.44317E-03   -0.10594E-02  2416   0.191E-01    0.153E-01
DAV:   8    -0.136298743097E+04    0.15948E-04   -0.46287E-03  2584   0.125E-01    0.881E-02
DAV:   9    -0.136298738784E+04    0.43129E-04   -0.70314E-04  2552   0.595E-02    0.642E-02
DAV:  10    -0.136298739878E+04   -0.10938E-04   -0.68233E-04  2328   0.435E-02    0.453E-02
DAV:  11    -0.136298737973E+04    0.19042E-04   -0.25989E-04  2528   0.344E-02    0.167E-02
DAV:  12    -0.136298738624E+04   -0.65040E-05   -0.10693E-04  2408   0.201E-02    0.175E-02
DAV:  13    -0.136298738319E+04    0.30442E-05   -0.31927E-05  2160   0.115E-02    0.830E-03
DAV:  14    -0.136298738339E+04   -0.20115E-06   -0.13621E-05  1768   0.725E-03    0.371E-03
DAV:  15    -0.136298738350E+04   -0.10837E-06   -0.13925E-06   992   0.455E-03
   5 F= -.13629874E+04 E0= -.13629874E+04  d E =-.139696E+01
 BRION: g(F)=  0.640E+00 g(S)=  0.000E+00 retain N=  4 mean eig= 1.48
 eig:   1.898  1.898  1.147  0.963
 bond charge predicted
       N       E                     dE             d eps       ncg     rms          rms(c)
DAV:   1    -0.136336213888E+04   -0.37476E+00   -0.90751E+01  1352   0.138E+01    0.174E+00
DAV:   2    -0.136381854800E+04   -0.45641E+00   -0.48469E+00  2304   0.532E+00    0.880E-01
DAV:   3    -0.136384325750E+04   -0.24709E-01   -0.38011E-01  2608   0.108E+00    0.708E-01
DAV:   4    -0.136383643125E+04    0.68262E-02   -0.43462E-02  2608   0.480E-01    0.461E-01
DAV:   5    -0.136383239367E+04    0.40376E-02   -0.23630E-02  2312   0.299E-01    0.195E-01
DAV:   6    -0.136383296381E+04   -0.57014E-03   -0.11872E-02  2520   0.216E-01    0.176E-01
DAV:   7    -0.136383285328E+04    0.11052E-03   -0.67043E-03  2472   0.150E-01    0.114E-01
DAV:   8    -0.136383283023E+04    0.23056E-04   -0.23789E-03  2576   0.933E-02    0.613E-02
DAV:   9    -0.136383281382E+04    0.16403E-04   -0.37494E-04  2560   0.445E-02    0.467E-02
DAV:  10    -0.136383282265E+04   -0.88306E-05   -0.38688E-04  2344   0.325E-02    0.317E-02
DAV:  11    -0.136383281302E+04    0.96358E-05   -0.12971E-04  2496   0.256E-02    0.132E-02
DAV:  12    -0.136383281678E+04   -0.37660E-05   -0.63948E-05  2376   0.151E-02    0.137E-02
DAV:  13    -0.136383281451E+04    0.22747E-05   -0.16312E-05  1952   0.855E-03    0.685E-03
DAV:  14    -0.136383281455E+04   -0.36976E-07   -0.89450E-06  1760   0.608E-03
   6 F= -.13638328E+04 E0= -.13638328E+04  d E =-.845431E+00
 BRION: g(F)=  0.421E+00 g(S)=  0.000E+00 retain N=  5 mean eig= 1.86
 eig:   2.431  2.431  1.806  1.806  0.803
 bond charge predicted
       N       E                     dE             d eps       ncg     rms          rms(c)
DAV:   1    -0.136409861694E+04   -0.26580E+00   -0.91772E+01  1384   0.138E+01    0.163E+00
DAV:   2    -0.136456983609E+04   -0.47122E+00   -0.49824E+00  2296   0.548E+00    0.841E-01
DAV:   3    -0.136459729216E+04   -0.27456E-01   -0.39447E-01  2600   0.107E+00    0.676E-01
DAV:   4    -0.136459133818E+04    0.59540E-02   -0.39725E-02  2592   0.476E-01    0.464E-01
DAV:   5    -0.136458701500E+04    0.43232E-02   -0.22001E-02  2320   0.292E-01    0.192E-01
DAV:   6    -0.136458757843E+04   -0.56343E-03   -0.12281E-02  2448   0.220E-01    0.164E-01
DAV:   7    -0.136458752790E+04    0.50530E-04   -0.67803E-03  2440   0.150E-01    0.112E-01
DAV:   8    -0.136458750516E+04    0.22743E-04   -0.23319E-03  2592   0.935E-02    0.651E-02
DAV:   9    -0.136458747894E+04    0.26216E-04   -0.43301E-04  2568   0.460E-02    0.474E-02
DAV:  10    -0.136458748140E+04   -0.24592E-05   -0.33760E-04  2424   0.317E-02    0.272E-02
DAV:  11    -0.136458748001E+04    0.13899E-05   -0.10832E-04  2456   0.233E-02    0.133E-02
DAV:  12    -0.136458748188E+04   -0.18653E-05   -0.48610E-05  2344   0.144E-02    0.133E-02
DAV:  13    -0.136458748007E+04    0.18116E-05   -0.20159E-05  1960   0.894E-03    0.696E-03
DAV:  14    -0.136458748009E+04   -0.28347E-07   -0.11048E-05  1760   0.663E-03    0.338E-03
DAV:  15    -0.136458748013E+04   -0.31214E-07   -0.99984E-07   976   0.376E-03
   7 F= -.13645875E+04 E0= -.13645875E+04  d E =-.754666E+00
 BRION: g(F)=  0.293E+00 g(S)=  0.000E+00 retain N=  6 mean eig= 2.52
 eig:   4.601  4.601  1.927  1.927  1.025  1.025
 bond charge predicted
       N       E                     dE             d eps       ncg     rms          rms(c)
DAV:   1    -0.136479423380E+04   -0.20675E+00   -0.80951E+01  1376   0.129E+01    0.156E+00
DAV:   2    -0.136519741919E+04   -0.40319E+00   -0.42436E+00  2312   0.503E+00    0.781E-01
DAV:   3    -0.136522029948E+04   -0.22880E-01   -0.32727E-01  2592   0.941E-01    0.618E-01
DAV:   4    -0.136521473735E+04    0.55621E-02   -0.33890E-02  2592   0.427E-01    0.399E-01
DAV:   5    -0.136521158366E+04    0.31537E-02   -0.17391E-02  2328   0.274E-01    0.156E-01
DAV:   6    -0.136521226479E+04   -0.68112E-03   -0.91330E-03  2528   0.186E-01    0.138E-01
DAV:   7    -0.136521218040E+04    0.84390E-04   -0.33866E-03  2520   0.112E-01    0.938E-02
DAV:   8    -0.136521214763E+04    0.32770E-04   -0.14675E-03  2616   0.723E-02    0.475E-02
DAV:   9    -0.136521213622E+04    0.11405E-04   -0.24602E-04  2480   0.357E-02    0.356E-02
DAV:  10    -0.136521213824E+04   -0.20115E-05   -0.18502E-04  2424   0.250E-02    0.198E-02
DAV:  11    -0.136521213689E+04    0.13470E-05   -0.50699E-05  2416   0.169E-02    0.922E-03
DAV:  12    -0.136521213916E+04   -0.22721E-05   -0.29352E-05  2328   0.102E-02    0.101E-02
DAV:  13    -0.136521213783E+04    0.13315E-05   -0.74191E-06  1504   0.639E-03    0.485E-03
DAV:  14    -0.136521213802E+04   -0.19580E-06   -0.74646E-06  1488   0.637E-03
   8 F= -.13652121E+04 E0= -.13652121E+04  d E =-.624658E+00
 BRION: g(F)=  0.220E+00 g(S)=  0.000E+00 retain N=  5 mean eig= 3.86
 eig:   7.240  7.240  1.915  1.915  0.999
 bond charge predicted
       N       E                     dE             d eps       ncg     rms          rms(c)
DAV:   1    -0.136538364906E+04   -0.17151E+00   -0.69841E+01  1384   0.119E+01    0.143E+00
DAV:   2    -0.136574021483E+04   -0.35657E+00   -0.37718E+00  2320   0.478E+00    0.706E-01
DAV:   3    -0.136576066068E+04   -0.20446E-01   -0.28880E-01  2592   0.888E-01    0.557E-01
DAV:   4    -0.136575608154E+04    0.45791E-02   -0.28311E-02  2592   0.397E-01    0.364E-01
DAV:   5    -0.136575343320E+04    0.26483E-02   -0.14382E-02  2368   0.244E-01    0.137E-01
DAV:   6    -0.136575395343E+04   -0.52023E-03   -0.70857E-03  2544   0.158E-01    0.115E-01
DAV:   7    -0.136575393747E+04    0.15965E-04   -0.25318E-03  2560   0.985E-02    0.774E-02
DAV:   8    -0.136575392834E+04    0.91286E-05   -0.10289E-03  2616   0.611E-02    0.423E-02
DAV:   9    -0.136575392034E+04    0.79946E-05   -0.18850E-04  2480   0.308E-02    0.311E-02
DAV:  10    -0.136575392365E+04   -0.33091E-05   -0.14288E-04  2520   0.225E-02    0.167E-02
DAV:  11    -0.136575392262E+04    0.10332E-05   -0.40515E-05  2416   0.146E-02    0.769E-03
DAV:  12    -0.136575392394E+04   -0.13143E-05   -0.18603E-05  2224   0.878E-03    0.739E-03
DAV:  13    -0.136575392315E+04    0.78460E-06   -0.30528E-06  1120   0.543E-03
   9 F= -.13657539E+04 E0= -.13657539E+04  d E =-.541785E+00
 BRION: g(F)=  0.182E+00 g(S)=  0.000E+00 retain N=  4 mean eig= 4.92
 eig:   7.713  7.713  2.119  2.119
 bond charge predicted
       N       E                     dE             d eps       ncg     rms          rms(c)
DAV:   1    -0.136592107871E+04   -0.16715E+00   -0.46540E+01  1384   0.985E+00    0.115E+00
DAV:   2    -0.136616894988E+04   -0.24787E+00   -0.26383E+00  2296   0.405E+00    0.575E-01
DAV:   3    -0.136618455078E+04   -0.15601E-01   -0.21117E-01  2584   0.753E-01    0.465E-01
DAV:   4    -0.136618199548E+04    0.25553E-02   -0.19228E-02  2608   0.340E-01    0.335E-01
DAV:   5    -0.136617942982E+04    0.25657E-02   -0.10375E-02  2328   0.207E-01    0.134E-01
DAV:   6    -0.136617970830E+04   -0.27848E-03   -0.65494E-03  2400   0.151E-01    0.111E-01
DAV:   7    -0.136617969437E+04    0.13930E-04   -0.29073E-03  2448   0.101E-01    0.769E-02
DAV:   8    -0.136617968440E+04    0.99669E-05   -0.11089E-03  2584   0.647E-02    0.444E-02
DAV:   9    -0.136617966919E+04    0.15206E-04   -0.22907E-04  2384   0.323E-02    0.305E-02
DAV:  10    -0.136617967223E+04   -0.30320E-05   -0.12490E-04  2416   0.204E-02    0.158E-02
DAV:  11    -0.136617967330E+04   -0.10733E-05   -0.35917E-05  2392   0.137E-02    0.989E-03
DAV:  12    -0.136617967350E+04   -0.20345E-06   -0.17760E-05  2176   0.927E-03    0.926E-03
DAV:  13    -0.136617967268E+04    0.82105E-06   -0.10854E-05  1728   0.658E-03    0.458E-03
DAV:  14    -0.136617967245E+04    0.23318E-06   -0.21550E-06  1000   0.499E-03
  10 F= -.13661797E+04 E0= -.13661797E+04  d E =-.425749E+00
 BRION: g(F)=  0.162E+00 g(S)=  0.000E+00 retain N=  3 mean eig= 5.36
 eig:   6.940  6.940  2.210
 bond charge predicted
       N       E                     dE             d eps       ncg     rms          rms(c)
DAV:   1    -0.136634194086E+04   -0.16227E+00   -0.45225E+01  1376   0.969E+00    0.115E+00
DAV:   2    -0.136658630662E+04   -0.24437E+00   -0.25989E+00  2312   0.401E+00    0.569E-01
DAV:   3    -0.136660110904E+04   -0.14802E-01   -0.20376E-01  2576   0.743E-01    0.457E-01
DAV:   4    -0.136659840971E+04    0.26993E-02   -0.19070E-02  2608   0.332E-01    0.327E-01
DAV:   5    -0.136659573726E+04    0.26725E-02   -0.96759E-03  2320   0.206E-01    0.129E-01
DAV:   6    -0.136659601540E+04   -0.27815E-03   -0.68408E-03  2432   0.154E-01    0.103E-01
DAV:   7    -0.136659603139E+04   -0.15990E-04   -0.26575E-03  2432   0.954E-02    0.772E-02
DAV:   8    -0.136659601589E+04    0.15500E-04   -0.98782E-04  2608   0.602E-02    0.417E-02
DAV:   9    -0.136659600000E+04    0.15899E-04   -0.23179E-04  2344   0.317E-02    0.275E-02
DAV:  10    -0.136659600443E+04   -0.44367E-05   -0.10454E-04  2416   0.196E-02    0.165E-02
DAV:  11    -0.136659600378E+04    0.65335E-06   -0.32543E-05  2408   0.128E-02    0.876E-03
DAV:  12    -0.136659600459E+04   -0.81265E-06   -0.16696E-05  2088   0.877E-03    0.849E-03
DAV:  13    -0.136659600380E+04    0.78844E-06   -0.74958E-06  1584   0.597E-03
  11 F= -.13665960E+04 E0= -.13665960E+04  d E =-.416331E+00
 BRION: g(F)=  0.146E+00 g(S)=  0.000E+00 retain N=  2 mean eig= 4.54
 eig:   4.538  4.538
 bond charge predicted
       N       E                     dE             d eps       ncg     rms          rms(c)
DAV:   1    -0.136675155290E+04   -0.15555E+00   -0.38687E+01  1384   0.898E+00    0.106E+00
DAV:   2    -0.136696477625E+04   -0.21322E+00   -0.22722E+00  2304   0.377E+00    0.529E-01
DAV:   3    -0.136697788778E+04   -0.13112E-01   -0.18051E-01  2576   0.697E-01    0.426E-01
DAV:   4    -0.136697549220E+04    0.23956E-02   -0.16819E-02  2592   0.315E-01    0.304E-01
DAV:   5    -0.136697329410E+04    0.21981E-02   -0.86253E-03  2344   0.186E-01    0.121E-01
DAV:   6    -0.136697350507E+04   -0.21098E-03   -0.54083E-03  2416   0.135E-01    0.931E-02
DAV:   7    -0.136697352419E+04   -0.19113E-04   -0.24472E-03  2456   0.905E-02    0.676E-02
DAV:   8    -0.136697351694E+04    0.72496E-05   -0.85065E-04  2616   0.578E-02    0.411E-02
DAV:   9    -0.136697350546E+04    0.11474E-04   -0.19009E-04  2456   0.291E-02    0.280E-02
DAV:  10    -0.136697350865E+04   -0.31841E-05   -0.10550E-04  2488   0.185E-02    0.153E-02
DAV:  11    -0.136697350960E+04   -0.95760E-06   -0.34196E-05  2376   0.130E-02    0.969E-03
DAV:  12    -0.136697350927E+04    0.33686E-06   -0.15911E-05  2120   0.915E-03    0.809E-03
DAV:  13    -0.136697350888E+04    0.39286E-06   -0.96473E-06  1744   0.602E-03
  12 F= -.13669735E+04 E0= -.13669735E+04  d E =-.377505E+00
 BRION: g(F)=  0.134E+00 g(S)=  0.000E+00 retain N=  2 mean eig= 4.87
 eig:   4.865  4.865
 bond charge predicted
       N       E                     dE             d eps       ncg     rms          rms(c)
DAV:   1    -0.136712779310E+04   -0.15428E+00   -0.30662E+01  1376   0.798E+00    0.942E-01
DAV:   2    -0.136729526143E+04   -0.16747E+00   -0.17833E+00  2304   0.331E+00    0.471E-01
DAV:   3    -0.136730544449E+04   -0.10183E-01   -0.14135E-01  2584   0.619E-01    0.378E-01
DAV:   4    -0.136730349357E+04    0.19509E-02   -0.12873E-02  2592   0.275E-01    0.271E-01
DAV:   5    -0.136730161454E+04    0.18790E-02   -0.69908E-03  2328   0.168E-01    0.105E-01
DAV:   6    -0.136730180982E+04   -0.19528E-03   -0.45712E-03  2432   0.123E-01    0.854E-02
DAV:   7    -0.136730181390E+04   -0.40800E-05   -0.18170E-03  2424   0.783E-02    0.607E-02
DAV:   8    -0.136730180459E+04    0.93154E-05   -0.65601E-04  2616   0.497E-02    0.338E-02
DAV:   9    -0.136730179674E+04    0.78451E-05   -0.14479E-04  2432   0.256E-02    0.233E-02
DAV:  10    -0.136730179879E+04   -0.20450E-05   -0.68810E-05  2464   0.158E-02    0.128E-02
DAV:  11    -0.136730179901E+04   -0.22116E-06   -0.21938E-05  2280   0.105E-02    0.709E-03
DAV:  12    -0.136730179933E+04   -0.31981E-06   -0.10128E-05  1776   0.712E-03    0.667E-03
DAV:  13    -0.136730179873E+04    0.60053E-06   -0.28878E-06  1120   0.499E-03
  13 F= -.13673018E+04 E0= -.13673018E+04  d E =-.328290E+00
 BRION: g(F)=  0.122E+00 g(S)=  0.000E+00 retain N=  2 mean eig= 4.86
 eig:   4.856  4.856
 bond charge predicted
       N       E                     dE             d eps       ncg     rms          rms(c)
DAV:   1    -0.136744321382E+04   -0.14141E+00   -0.33267E+01  1376   0.826E+00    0.970E-01
DAV:   2    -0.136762322406E+04   -0.18001E+00   -0.19124E+00  2288   0.341E+00    0.486E-01
DAV:   3    -0.136763402411E+04   -0.10800E-01   -0.15149E-01  2584   0.637E-01    0.384E-01
DAV:   4    -0.136763172530E+04    0.22988E-02   -0.13937E-02  2584   0.283E-01    0.268E-01
DAV:   5    -0.136762989688E+04    0.18284E-02   -0.70084E-03  2344   0.168E-01    0.103E-01
DAV:   6    -0.136763007230E+04   -0.17542E-03   -0.43098E-03  2432   0.119E-01    0.775E-02
DAV:   7    -0.136763010264E+04   -0.30336E-04   -0.16717E-03  2480   0.752E-02    0.570E-02
DAV:   8    -0.136763009507E+04    0.75701E-05   -0.56763E-04  2624   0.467E-02    0.324E-02
DAV:   9    -0.136763008937E+04    0.56983E-05   -0.13535E-04  2480   0.247E-02    0.224E-02
DAV:  10    -0.136763009172E+04   -0.23524E-05   -0.69827E-05  2512   0.161E-02    0.130E-02
DAV:  11    -0.136763009146E+04    0.26227E-06   -0.22177E-05  2280   0.105E-02    0.666E-03
DAV:  12    -0.136763009176E+04   -0.29933E-06   -0.97733E-06  1776   0.709E-03
  14 F= -.13676301E+04 E0= -.13676301E+04  d E =-.328293E+00
 BRION: g(F)=  0.111E+00 g(S)=  0.000E+00 retain N=  2 mean eig= 5.20
 eig:   5.195  5.195
 bond charge predicted
       N       E                     dE             d eps       ncg     rms          rms(c)
DAV:   1    -0.136776281578E+04   -0.13272E+00   -0.28571E+01  1376   0.762E+00    0.887E-01
DAV:   2    -0.136791434692E+04   -0.15153E+00   -0.16078E+00  2312   0.310E+00    0.449E-01
DAV:   3    -0.136792352682E+04   -0.91799E-02   -0.12795E-01  2584   0.581E-01    0.355E-01
DAV:   4    -0.136792162593E+04    0.19009E-02   -0.11489E-02  2584   0.256E-01    0.248E-01
DAV:   5    -0.136792008156E+04    0.15444E-02   -0.61426E-03  2320   0.154E-01    0.928E-02
DAV:   6    -0.136792026368E+04   -0.18212E-03   -0.34824E-03  2432   0.104E-01    0.751E-02
DAV:   7    -0.136792026700E+04   -0.33173E-05   -0.13247E-03  2480   0.672E-02    0.510E-02
DAV:   8    -0.136792025973E+04    0.72676E-05   -0.47205E-04  2592   0.425E-02    0.294E-02
DAV:   9    -0.136792025484E+04    0.48958E-05   -0.99789E-05  2416   0.219E-02    0.211E-02
DAV:  10    -0.136792025594E+04   -0.11042E-05   -0.61851E-05  2456   0.144E-02    0.107E-02
DAV:  11    -0.136792025601E+04   -0.64028E-07   -0.15421E-05  2064   0.931E-03    0.546E-03
DAV:  12    -0.136792025634E+04   -0.33069E-06   -0.81845E-06  1664   0.617E-03
  15 F= -.13679203E+04 E0= -.13679203E+04  d E =-.290165E+00
 BRION: g(F)=  0.102E+00 g(S)=  0.000E+00 retain N=  2 mean eig= 5.36
 eig:   5.360  5.360
 bond charge predicted
       N       E                     dE             d eps       ncg     rms          rms(c)
DAV:   1    -0.136804355397E+04   -0.12330E+00   -0.23268E+01  1376   0.684E+00    0.783E-01
DAV:   2    -0.136816389579E+04   -0.12034E+00   -0.12741E+00  2304   0.273E+00    0.396E-01
DAV:   3    -0.136817113284E+04   -0.72371E-02   -0.10109E-01  2584   0.511E-01    0.312E-01
DAV:   4    -0.136816964282E+04    0.14900E-02   -0.89237E-03  2576   0.224E-01    0.219E-01
DAV:   5    -0.136816830979E+04    0.13330E-02   -0.46779E-03  2304   0.139E-01    0.837E-02
DAV:   6    -0.136816842909E+04   -0.11930E-03   -0.30132E-03  2392   0.989E-02    0.668E-02
DAV:   7    -0.136816843988E+04   -0.10787E-04   -0.11075E-03  2464   0.620E-02    0.482E-02
DAV:   8    -0.136816843283E+04    0.70531E-05   -0.38899E-04  2552   0.377E-02    0.266E-02
DAV:   9    -0.136816842757E+04    0.52629E-05   -0.94791E-05  2336   0.206E-02    0.184E-02
DAV:  10    -0.136816842850E+04   -0.93454E-06   -0.42414E-05  2408   0.128E-02    0.106E-02
DAV:  11    -0.136816842817E+04    0.33465E-06   -0.13630E-05  1976   0.851E-03    0.499E-03
DAV:  12    -0.136816842853E+04   -0.36678E-06   -0.68019E-06  1600   0.592E-03
  16 F= -.13681684E+04 E0= -.13681684E+04  d E =-.248172E+00
 BRION: g(F)=  0.950E-01 g(S)=  0.000E+00 retain N=  2 mean eig= 5.06
 eig:   5.055  5.055
 bond charge predicted
       N       E                     dE             d eps       ncg     rms          rms(c)
DAV:   1    -0.136828127180E+04   -0.11284E+00   -0.23388E+01  1360   0.684E+00    0.776E-01
DAV:   2    -0.136840030569E+04   -0.11903E+00   -0.12562E+00  2304   0.269E+00    0.394E-01
DAV:   3    -0.136840745257E+04   -0.71469E-02   -0.99400E-02  2584   0.509E-01    0.309E-01
DAV:   4    -0.136840594618E+04    0.15064E-02   -0.87814E-03  2592   0.219E-01    0.213E-01
DAV:   5    -0.136840472981E+04    0.12164E-02   -0.44118E-03  2312   0.133E-01    0.800E-02
DAV:   6    -0.136840485451E+04   -0.12471E-03   -0.26589E-03  2408   0.906E-02    0.630E-02
DAV:   7    -0.136840486211E+04   -0.75974E-05   -0.93475E-04  2440   0.572E-02    0.449E-02
DAV:   8    -0.136840485721E+04    0.49055E-05   -0.35522E-04  2544   0.357E-02    0.261E-02
DAV:   9    -0.136840485178E+04    0.54291E-05   -0.82096E-05  2352   0.195E-02    0.181E-02
DAV:  10    -0.136840485214E+04   -0.35853E-06   -0.46290E-05  2384   0.128E-02    0.932E-03
DAV:  11    -0.136840485198E+04    0.15435E-06   -0.80352E-06  1576   0.783E-03
  17 F= -.13684049E+04 E0= -.13684049E+04  d E =-.236423E+00
 BRION: g(F)=  0.887E-01 g(S)=  0.000E+00 retain N=  2 mean eig= 5.17
 eig:   5.165  5.165
 bond charge predicted
       N       E                     dE             d eps       ncg     rms          rms(c)
DAV:   1    -0.136850690778E+04   -0.10206E+00   -0.24993E+01  1360   0.706E+00    0.790E-01
DAV:   2    -0.136863243151E+04   -0.12552E+00   -0.13251E+00  2304   0.276E+00    0.401E-01
DAV:   3    -0.136864008587E+04   -0.76544E-02   -0.10497E-01  2576   0.523E-01    0.317E-01
DAV:   4    -0.136863869270E+04    0.13932E-02   -0.90853E-03  2584   0.223E-01    0.225E-01
DAV:   5    -0.136863731271E+04    0.13800E-02   -0.47128E-03  2312   0.138E-01    0.870E-02
DAV:   6    -0.136863743093E+04   -0.11822E-03   -0.30565E-03  2368   0.978E-02    0.701E-02
DAV:   7    -0.136863743513E+04   -0.41946E-05   -0.11608E-03  2440   0.634E-02    0.498E-02
DAV:   8    -0.136863742850E+04    0.66271E-05   -0.43663E-04  2536   0.394E-02    0.292E-02
DAV:   9    -0.136863742105E+04    0.74438E-05   -0.10281E-04  2336   0.215E-02    0.200E-02
DAV:  10    -0.136863742171E+04   -0.65033E-06   -0.54610E-05  2408   0.137E-02    0.108E-02
DAV:  11    -0.136863742159E+04    0.11228E-06   -0.12889E-05  1936   0.882E-03    0.588E-03
DAV:  12    -0.136863742190E+04   -0.30811E-06   -0.93172E-06  1696   0.626E-03
  18 F= -.13686374E+04 E0= -.13686374E+04  d E =-.232570E+00
 BRION: g(F)=  0.826E-01 g(S)=  0.000E+00 retain N=  2 mean eig= 5.69
 eig:   5.686  5.686
 bond charge predicted
       N       E                     dE             d eps       ncg     rms          rms(c)
DAV:   1    -0.136872534994E+04   -0.87928E-01   -0.28779E+01  1368   0.758E+00    0.846E-01
DAV:   2    -0.136886970578E+04   -0.14436E+00   -0.15200E+00  2312   0.296E+00    0.431E-01
DAV:   3    -0.136887796048E+04   -0.82547E-02   -0.11615E-01  2584   0.560E-01    0.336E-01
DAV:   4    -0.136887617798E+04    0.17825E-02   -0.10660E-02  2592   0.238E-01    0.230E-01
DAV:   5    -0.136887476603E+04    0.14119E-02   -0.50001E-03  2360   0.145E-01    0.884E-02
DAV:   6    -0.136887489030E+04   -0.12427E-03   -0.31260E-03  2424   0.100E-01    0.659E-02
DAV:   7    -0.136887490549E+04   -0.15189E-04   -0.11199E-03  2448   0.636E-02    0.493E-02
DAV:   8    -0.136887490170E+04    0.37934E-05   -0.43524E-04  2584   0.389E-02    0.289E-02
DAV:   9    -0.136887489564E+04    0.60635E-05   -0.10426E-04  2416   0.216E-02    0.198E-02
DAV:  10    -0.136887489628E+04   -0.64014E-06   -0.55081E-05  2440   0.141E-02    0.115E-02
DAV:  11    -0.136887489588E+04    0.39735E-06   -0.13951E-05  1944   0.886E-03    0.585E-03
DAV:  12    -0.136887489618E+04   -0.30364E-06   -0.99537E-06  1760   0.646E-03
  19 F= -.13688749E+04 E0= -.13688749E+04  d E =-.237474E+00
 BRION: g(F)=  0.767E-01 g(S)=  0.000E+00 retain N=  2 mean eig= 6.20
 eig:   6.201  6.201
 bond charge predicted
       N       E                     dE             d eps       ncg     rms          rms(c)
DAV:   1    -0.136894731247E+04   -0.72417E-01   -0.30768E+01  1368   0.784E+00    0.873E-01
DAV:   2    -0.136910188923E+04   -0.15458E+00   -0.16296E+00  2312   0.307E+00    0.446E-01
DAV:   3    -0.136911087408E+04   -0.89849E-02   -0.12510E-01  2576   0.582E-01    0.351E-01
DAV:   4    -0.136910913128E+04    0.17428E-02   -0.11472E-02  2584   0.247E-01    0.244E-01
DAV:   5    -0.136910765424E+04    0.14770E-02   -0.54549E-03  2368   0.148E-01    0.956E-02
DAV:   6    -0.136910778052E+04   -0.12628E-03   -0.32623E-03  2392   0.102E-01    0.710E-02
DAV:   7    -0.136910779044E+04   -0.99173E-05   -0.13577E-03  2448   0.690E-02    0.516E-02
DAV:   8    -0.136910778899E+04    0.14505E-05   -0.52162E-04  2568   0.432E-02    0.336E-02
DAV:   9    -0.136910778060E+04    0.83842E-05   -0.12027E-04  2464   0.232E-02    0.231E-02
DAV:  10    -0.136910778048E+04    0.12452E-06   -0.65915E-05  2496   0.146E-02    0.120E-02
DAV:  11    -0.136910778085E+04   -0.37100E-06   -0.15826E-05  2096   0.921E-03    0.738E-03
DAV:  12    -0.136910778058E+04    0.26560E-06   -0.10876E-05  1760   0.685E-03    0.570E-03
DAV:  13    -0.136910778026E+04    0.32409E-06   -0.31146E-06  1136   0.508E-03
  20 F= -.13691078E+04 E0= -.13691078E+04  d E =-.232884E+00
 BRION: g(F)=  0.707E-01 g(S)=  0.000E+00 retain N=  2 mean eig= 6.73
 eig:   6.730  6.730
