 vasp.5.4.4.18Apr17-6-g9f103f2a35 (build May 01 2020 14:22:42) gamma-only       
  
 executed on             LinuxIFC date 2022.02.09  13:21:21
 running on  160 total cores
 distrk:  each k-point on  160 cores,    1 groups
 distr:  one band on NCORES_PER_BAND=  20 cores,    8 groups


--------------------------------------------------------------------------------------------------------


 INCAR:
 POTCAR:    PAW_PBE O 08Apr2002                   
 POTCAR:    PAW_PBE La 06Sep2000                  
 POTCAR:    PAW_PBE Zr_sv 04Jan2005               
 POTCAR:    PAW_PBE Li 17Jan2003                  
 POTCAR:    PAW_PBE Al 04Jan2001                  
 POTCAR:    PAW_PBE O 08Apr2002                   
   VRHFIN =O: s2p4                                                              
   LEXCH  = PE                                                                  
   EATOM  =   432.3788 eV,   31.7789 Ry                                         
                                                                                
   TITEL  = PAW_PBE O 08Apr2002                                                 
   LULTRA =        F    use ultrasoft PP ?                                      
   IUNSCR =        1    unscreen: 0-lin 1-nonlin 2-no                           
   RPACOR =    1.200    partial core radius                                     
   POMASS =   16.000; ZVAL   =    6.000    mass and valenz                      
   RCORE  =    1.520    outmost cutoff radius                                   
   RWIGS  =    1.550; RWIGS  =    0.820    wigner-seitz radius (au A)           
   ENMAX  =  400.000; ENMIN  =  300.000 eV                                      
   ICORE  =        2    local potential                                         
   LCOR   =        T    correct aug charges                                     
   LPAW   =        T    paw PP                                                  
   EAUG   =  605.392                                                            
   DEXC   =    0.000                                                            
   RMAX   =    1.553    core radius for proj-oper                               
   RAUG   =    1.300    factor for augmentation sphere                          
   RDEP   =    1.550    radius for radial grids                                 
   RDEPT  =    1.329    core radius for aug-charge                              
                                                                                
   Atomic configuration                                                         
    4 entries                                                                   
     n  l   j            E        occ.                                          
     1  0  0.50      -514.6923   2.0000                                         
     2  0  0.50       -23.9615   2.0000                                         
     2  1  0.50        -9.0305   4.0000                                         
     3  2  1.50        -9.5241   0.0000                                         
   Description                                                                  
     l       E           TYP  RCUT    TYP  RCUT                                 
     0    -23.9615318     23  1.200                                             
     0     -9.5240782     23  1.200                                             
     1     -9.0304911     23  1.520                                             
     1      8.1634956     23  1.520                                             
     2     -9.5240782      7  1.500                                             
  local pseudopotential read in
  partial core-charges read in
  partial kinetic energy density read in
  kinetic energy density of atom read in
  atomic valenz-charges read in
  non local Contribution for L=           0  read in
    real space projection operators read in
  non local Contribution for L=           0  read in
    real space projection operators read in
  non local Contribution for L=           1  read in
    real space projection operators read in
  non local Contribution for L=           1  read in
    real space projection operators read in
    PAW grid and wavefunctions read in
 
   number of l-projection  operators is LMAX  =           4
   number of lm-projection operators is LMMAX =           8
 
 POTCAR:    PAW_PBE La 06Sep2000                  
   VRHFIN =La : [core=Kr4d]                                                     
   LEXCH  = PE                                                                  
   EATOM  =   865.9763 eV,   63.6475 Ry                                         
                                                                                
   TITEL  = PAW_PBE La 06Sep2000                                                
   LULTRA =        F    use ultrasoft PP ?                                      
   IUNSCR =        1    unscreen: 0-lin 1-nonlin 2-no                           
   RPACOR =    2.300    partial core radius                                     
   POMASS =  138.900; ZVAL   =   11.000    mass and valenz                      
   RCORE  =    2.800    outmost cutoff radius                                   
   RWIGS  =    2.900; RWIGS  =    1.535    wigner-seitz radius (au A)           
   ENMAX  =  219.292; ENMIN  =  164.469 eV                                      
   RCLOC  =    1.601    cutoff for local pot                                    
   LCOR   =        T    correct aug charges                                     
   LPAW   =        T    paw PP                                                  
   EAUG   =  583.575                                                            
   DEXC   =    0.000                                                            
   RMAX   =    2.853    core radius for proj-oper                               
   RAUG   =    1.300    factor for augmentation sphere                          
   RDEP   =    2.802    radius for radial grids                                 
   RDEPT  =    2.156    core radius for aug-charge                              
                                                                                
   Atomic configuration                                                         
   14 entries                                                                   
     n  l   j            E        occ.                                          
     1  0  0.50    -38741.0879   2.0000                                         
     2  0  0.50     -6166.6801   2.0000                                         
     2  1  1.50     -5526.1593   6.0000                                         
     3  0  0.50     -1319.0200   2.0000                                         
     3  1  1.50     -1114.5963   6.0000                                         
     3  2  2.50      -821.1793  10.0000                                         
     4  0  0.50      -266.3851   2.0000                                         
     4  1  1.50      -199.9276   6.0000                                         
     4  2  2.50      -103.8239  10.0000                                         
     5  0  0.50       -38.9172   2.0000                                         
     6  0  0.50        -3.6792   2.0000                                         
     5  1  1.50       -22.3948   6.0000                                         
     5  2  2.50        -3.0911   0.9999                                         
     4  3  2.50        -4.3603   0.0001                                         
   Description                                                                  
     l       E           TYP  RCUT    TYP  RCUT                                 
     0    -38.9171645     23  2.800                                             
     0     -3.6792381     23  2.800                                             
     1    -22.3948300     23  2.500                                             
     1     27.2116520     23  2.500                                             
     2     -3.0910934     23  2.500                                             
     2      1.0119135     23  2.500                                             
     3     -4.3602911     23  2.800                                             
     3     -5.7208737     23  2.800                                             
  local pseudopotential read in
  partial core-charges read in
  partial kinetic energy density read in
  atomic valenz-charges read in
  non local Contribution for L=           0  read in
    real space projection operators read in
  non local Contribution for L=           0  read in
    real space projection operators read in
  non local Contribution for L=           1  read in
    real space projection operators read in
  non local Contribution for L=           1  read in
    real space projection operators read in
  non local Contribution for L=           2  read in
    real space projection operators read in
  non local Contribution for L=           2  read in
    real space projection operators read in
  non local Contribution for L=           3  read in
    real space projection operators read in
  non local Contribution for L=           3  read in
    real space projection operators read in
    PAW grid and wavefunctions read in
 
   number of l-projection  operators is LMAX  =           8
   number of lm-projection operators is LMMAX =          32
 
 POTCAR:    PAW_PBE Zr_sv 04Jan2005               
   VRHFIN =Zr: 4s4p5s4d                                                         
   LEXCH  = PE                                                                  
   EATOM  =  1284.2219 eV,   94.3876 Ry                                         
                                                                                
   TITEL  = PAW_PBE Zr_sv 04Jan2005                                             
   LULTRA =        F    use ultrasoft PP ?                                      
   IUNSCR =        1    unscreen: 0-lin 1-nonlin 2-no                           
   RPACOR =    2.200    partial core radius                                     
   POMASS =   91.224; ZVAL   =   12.000    mass and valenz                      
   RCORE  =    2.500    outmost cutoff radius                                   
   RWIGS  =    3.070; RWIGS  =    1.625    wigner-seitz radius (au A)           
   ENMAX  =  229.898; ENMIN  =  172.424 eV                                      
   ICORE  =        3    local potential                                         
   LCOR   =        T    correct aug charges                                     
   LPAW   =        T    paw PP                                                  
   EAUG   =  461.257                                                            
   DEXC   =    0.000                                                            
   RMAX   =    2.561    core radius for proj-oper                               
   RAUG   =    1.300    factor for augmentation sphere                          
   RDEP   =    2.597    radius for radial grids                                 
   RDEPT  =    2.007    core radius for aug-charge                              
                                                                                
   Atomic configuration                                                         
   11 entries                                                                   
     n  l   j            E        occ.                                          
     1  0  0.50    -17820.0161   2.0000                                         
     2  0  0.50     -2467.0882   2.0000                                         
     2  1  1.50     -2199.6095   6.0000                                         
     3  0  0.50      -402.4863   2.0000                                         
     3  1  1.50      -315.3675   6.0000                                         
     3  2  2.50      -172.4472  10.0000                                         
     4  0  0.50       -52.4146   2.0000                                         
     5  0  0.50        -3.8421   1.0000                                         
     4  1  1.50       -30.5054   6.0000                                         
     4  2  2.50        -2.3341   3.0000                                         
     4  3  2.50        -1.3606   0.0000                                         
   Description                                                                  
     l       E           TYP  RCUT    TYP  RCUT                                 
     0    -52.4145962     23  2.200                                             
     0     -3.8421270     23  2.500                                             
     1    -30.5053914     23  2.200                                             
     1     20.4087390     23  2.200                                             
     2     -2.3340816     23  2.500                                             
     2     -0.6120942     23  2.500                                             
     3     -4.0817478     23  2.500                                             
  local pseudopotential read in
  partial core-charges read in
  partial kinetic energy density read in
  atomic valenz-charges read in
  non local Contribution for L=           0  read in
    real space projection operators read in
  non local Contribution for L=           0  read in
    real space projection operators read in
  non local Contribution for L=           1  read in
    real space projection operators read in
  non local Contribution for L=           1  read in
    real space projection operators read in
  non local Contribution for L=           2  read in
    real space projection operators read in
  non local Contribution for L=           2  read in
    real space projection operators read in
    PAW grid and wavefunctions read in
 
   number of l-projection  operators is LMAX  =           6
   number of lm-projection operators is LMMAX =          18
 
 POTCAR:    PAW_PBE Li 17Jan2003                  
   VRHFIN =Li: s1p0                                                             
   LEXCH  = PE                                                                  
   EATOM  =     5.3001 eV,    0.3895 Ry                                         
                                                                                
   TITEL  = PAW_PBE Li 17Jan2003                                                
   LULTRA =        F    use ultrasoft PP ?                                      
   IUNSCR =        1    unscreen: 0-lin 1-nonlin 2-no                           
   RPACOR =    1.500    partial core radius                                     
   POMASS =    7.010; ZVAL   =    1.000    mass and valenz                      
   RCORE  =    2.050    outmost cutoff radius                                   
   RWIGS  =    2.600; RWIGS  =    1.376    wigner-seitz radius (au A)           
   ENMAX  =  140.000; ENMIN  =  100.000 eV                                      
   ICORE  =        2    local potential                                         
   LCOR   =        T    correct aug charges                                     
   LPAW   =        T    paw PP                                                  
   EAUG   =  331.638                                                            
   DEXC   =    0.000                                                            
   RMAX   =    2.098    core radius for proj-oper                               
   RAUG   =    1.300    factor for augmentation sphere                          
   RDEP   =    2.094    radius for radial grids                                 
   RDEPT  =    1.810    core radius for aug-charge                              
                                                                                
   Atomic configuration                                                         
    4 entries                                                                   
     n  l   j            E        occ.                                          
     1  0  0.50       -51.8549   2.0000                                         
     2  0  0.50        -2.8742   1.0000                                         
     2  1  0.50        -1.3606   0.0000                                         
     3  2  1.50        -1.3606   0.0000                                         
   Description                                                                  
     l       E           TYP  RCUT    TYP  RCUT                                 
     0     -2.8742052     23  2.050                                             
     0     27.2116520     23  2.050                                             
     1     -1.3605826     23  2.050                                             
     2     -1.3605826     23  2.050                                             
  local pseudopotential read in
  partial core-charges read in
  partial kinetic energy density read in
  atomic valenz-charges read in
  non local Contribution for L=           0  read in
    real space projection operators read in
  non local Contribution for L=           0  read in
    real space projection operators read in
  non local Contribution for L=           1  read in
    real space projection operators read in
    PAW grid and wavefunctions read in
 
   number of l-projection  operators is LMAX  =           3
   number of lm-projection operators is LMMAX =           5
 
 POTCAR:    PAW_PBE Al 04Jan2001                  
   VRHFIN =Al: s2p1                                                             
   LEXCH  = PE                                                                  
   EATOM  =    53.5387 eV,    3.9350 Ry                                         
                                                                                
   TITEL  = PAW_PBE Al 04Jan2001                                                
   LULTRA =        F    use ultrasoft PP ?                                      
   IUNSCR =        1    unscreen: 0-lin 1-nonlin 2-no                           
   RPACOR =    1.500    partial core radius                                     
   POMASS =   26.981; ZVAL   =    3.000    mass and valenz                      
   RCORE  =    1.900    outmost cutoff radius                                   
   RWIGS  =    2.650; RWIGS  =    1.402    wigner-seitz radius (au A)           
   ENMAX  =  240.300; ENMIN  =  180.225 eV                                      
   ICORE  =        2    local potential                                         
   LCOR   =        T    correct aug charges                                     
   LPAW   =        T    paw PP                                                  
   EAUG   =  291.052                                                            
   DEXC   =    0.000                                                            
   RMAX   =    1.939    core radius for proj-oper                               
   RAUG   =    1.300    factor for augmentation sphere                          
   RDEP   =    1.966    radius for radial grids                                 
   RDEPT  =    1.856    core radius for aug-charge                              
                                                                                
   Atomic configuration                                                         
    6 entries                                                                   
     n  l   j            E        occ.                                          
     1  0  0.50     -1511.1048   2.0000                                         
     2  0  0.50      -108.1629   2.0000                                         
     2  1  1.50       -69.6402   6.0000                                         
     3  0  0.50        -7.7528   2.0000                                         
     3  1  1.50        -2.7121   1.0000                                         
     3  2  2.50        -2.7212   0.0000                                         
   Description                                                                  
     l       E           TYP  RCUT    TYP  RCUT                                 
     0     -7.7528455     23  1.900                                             
     0     -3.3096929     23  1.900                                             
     1     -2.7120682     23  1.900                                             
     1     13.6058260     23  1.900                                             
     2     -2.7211652      7  1.900                                             
  local pseudopotential read in
  partial core-charges read in
  partial kinetic energy density read in
  atomic valenz-charges read in
  non local Contribution for L=           0  read in
    real space projection operators read in
  non local Contribution for L=           0  read in
    real space projection operators read in
  non local Contribution for L=           1  read in
    real space projection operators read in
  non local Contribution for L=           1  read in
    real space projection operators read in
    PAW grid and wavefunctions read in
 
   number of l-projection  operators is LMAX  =           4
   number of lm-projection operators is LMMAX =           8
 
 Optimization of the real space projectors (new method)

 maximal supplied QI-value         = 24.76
 optimisation between [QCUT,QGAM] = [ 11.39, 22.77] = [ 36.31,145.25] Ry 
 Optimized for a Real-space Cutoff    1.10 Angstroem

   l    n(q)    QCUT    max X(q) W(low)/X(q) W(high)/X(q)  e(spline) 
   0      7    11.387    20.381    0.22E-03    0.48E-03    0.18E-06
   0      7    11.387    15.268    0.22E-03    0.52E-03    0.19E-06
   1      7    11.387     5.964    0.22E-03    0.73E-03    0.24E-06
   1      7    11.387     5.382    0.19E-03    0.60E-03    0.21E-06
 Optimization of the real space projectors (new method)

 maximal supplied QI-value         = 13.42
 optimisation between [QCUT,QGAM] = [ 11.40, 22.81] = [ 36.42,145.68] Ry 
 Optimized for a Real-space Cutoff    1.66 Angstroem

   l    n(q)    QCUT    max X(q) W(low)/X(q) W(high)/X(q)  e(spline) 
   0     11    11.404    13.882    0.31E-04    0.82E-05    0.60E-07
   0     11    11.404    12.184    0.45E-04    0.14E-04    0.98E-07
   1     11    11.404     4.523    0.47E-05    0.18E-04    0.12E-06
   1     11    11.404     4.424    0.66E-05    0.26E-04    0.18E-06
   2     10    11.404    52.481    0.10E-03    0.52E-04    0.18E-06
   2     10    11.404    38.501    0.97E-04    0.49E-04    0.18E-06
   3     10    11.404    65.631    0.11E-03    0.47E-04    0.67E-06
   3     10    11.404    56.854    0.11E-03    0.44E-04    0.68E-06
 Optimization of the real space projectors (new method)

 maximal supplied QI-value         = 15.12
 optimisation between [QCUT,QGAM] = [ 11.34, 22.83] = [ 36.00,145.93] Ry 
 Optimized for a Real-space Cutoff    1.52 Angstroem

   l    n(q)    QCUT    max X(q) W(low)/X(q) W(high)/X(q)  e(spline) 
   0     10    11.338    12.107    0.25E-04    0.17E-04    0.51E-07
   0     10    11.338     9.948    0.49E-04    0.35E-04    0.12E-06
   1     10    11.338     3.563    0.20E-04    0.52E-05    0.48E-07
   1     10    11.338     4.524    0.21E-03    0.12E-03    0.44E-06
   2      9    11.338    87.261    0.14E-03    0.22E-04    0.23E-06
   2      9    11.338    70.950    0.14E-03    0.22E-04    0.23E-06
 Optimization of the real space projectors (new method)

 maximal supplied QI-value         = 18.33
 optimisation between [QCUT,QGAM] = [ 11.36, 22.73] = [ 36.17,144.67] Ry 
 Optimized for a Real-space Cutoff    1.23 Angstroem

   l    n(q)    QCUT    max X(q) W(low)/X(q) W(high)/X(q)  e(spline) 
   0      8    11.365    33.825    0.48E-04    0.18E-03    0.59E-07
   0      8    11.365     8.944    0.37E-04    0.13E-03    0.44E-07
   1      8    11.365     4.214    0.24E-03    0.13E-03    0.38E-07
 Optimization of the real space projectors (new method)

 maximal supplied QI-value         = 19.84
 optimisation between [QCUT,QGAM] = [ 11.31, 22.82] = [ 35.82,145.81] Ry 
 Optimized for a Real-space Cutoff    1.16 Angstroem

   l    n(q)    QCUT    max X(q) W(low)/X(q) W(high)/X(q)  e(spline) 
   0      8    11.310   176.870    0.22E-03    0.22E-03    0.34E-07
   0      8    11.310   105.762    0.21E-03    0.22E-03    0.33E-07
   1      7    11.310    55.370    0.19E-03    0.26E-03    0.72E-07
   1      7    11.310    20.208    0.18E-03    0.24E-03    0.66E-07
  PAW_PBE O 08Apr2002                   :
 energy of atom  1       EATOM= -432.3788
 kinetic energy error for atom=    0.0224 (will be added to EATOM!!)
  PAW_PBE La 06Sep2000                  :
 energy of atom  2       EATOM= -865.9763
 kinetic energy error for atom=    0.0011 (will be added to EATOM!!)
  PAW_PBE Zr_sv 04Jan2005               :
 energy of atom  3       EATOM=-1284.2219
 kinetic energy error for atom=    0.0049 (will be added to EATOM!!)
  PAW_PBE Li 17Jan2003                  :
 energy of atom  4       EATOM=   -5.3001
 kinetic energy error for atom=    0.0000 (will be added to EATOM!!)
  PAW_PBE Al 04Jan2001                  :
 energy of atom  5       EATOM=  -53.5387
 kinetic energy error for atom=    0.0003 (will be added to EATOM!!)
 
 
 POSCAR: LLZO_Ia3d_partial_99                    
  positions in direct lattice
  No initial velocities read in
 exchange correlation table for  LEXCH =        8
   RHO(1)=    0.500       N(1)  =     2000
   RHO(2)=  100.500       N(2)  =     4000
 


--------------------------------------------------------------------------------------------------------


 ion  position               nearest neighbor table
   1  0.100  0.196  0.282- 128 2.11 151 2.14 113 2.51  97 2.59 162 2.61
   2  0.900  0.804  0.718- 166 1.87 181 1.91 127 2.11 114 2.51  98 2.59
   3  0.400  0.804  0.782- 170 1.91 126 2.11 143 2.14 160 2.25 119 2.51  99 2.59
   4  0.600  0.196  0.218- 176 1.91 125 2.11 120 2.51 100 2.59 140 2.61
   5  0.900  0.696  0.218- 149 1.87 178 1.91 130 2.11 168 2.25 115 2.51 101 2.59
   6  0.100  0.304  0.782- 182 1.91 129 2.11 138 2.14 116 2.51 102 2.59
   7  0.600  0.304  0.718- 148 1.87 180 1.91 132 2.11 117 2.51 103 2.59
   8  0.400  0.696  0.282- 184 1.91 131 2.11 118 2.51 104 2.59 161 2.61
   9  0.282  0.100  0.196- 140 1.88 169 1.91 128 2.11 165 2.25  97 2.51 105 2.59
  10  0.718  0.900  0.804- 171 1.91 127 2.11 160 2.14  98 2.51 106 2.59
  11  0.782  0.400  0.804- 132 2.11 137 2.12 103 2.51 107 2.59 158 2.61
  12  0.218  0.600  0.196- 173 1.91 131 2.11 168 2.14 104 2.51 108 2.59 139 2.61
  13  0.218  0.900  0.696- 185 1.91 126 2.11  99 2.51 109 2.59
  14  0.782  0.100  0.304- 162 1.88 187 1.91 125 2.11 100 2.51 110 2.59 159 2.61
  15  0.718  0.600  0.304- 161 1.88 130 2.11 154 2.12 142 2.25 101 2.51 111 2.59
  16  0.282  0.400  0.696- 183 1.91 129 2.11 146 2.12 102 2.51 112 2.59 164 2.61
  17  0.196  0.282  0.100- 139 1.87 179 1.91 128 2.11 157 2.12 138 2.25 105 2.51 113 2.59
  18  0.804  0.718  0.900- 158 1.87 172 1.91 127 2.11 106 2.51 114 2.59 149 2.61
  19  0.804  0.782  0.400- 159 1.87 130 2.11 111 2.51 115 2.59 166 2.61
  20  0.196  0.218  0.600- 175 1.91 129 2.11 151 2.25 112 2.51 116 2.59
  21  0.696  0.218  0.900- 177 1.91 132 2.11 107 2.51 117 2.59
  22  0.304  0.782  0.100- 186 1.91 131 2.11 165 2.14 143 2.25 108 2.51 118 2.59
  23  0.304  0.718  0.600- 164 1.87 188 1.91 126 2.11 109 2.51 119 2.59
  24  0.696  0.282  0.400- 174 1.91 125 2.11 142 2.14 110 2.51 120 2.59 148 2.61
  25  0.946  0.350  0.968- 182 1.91 134 2.11 145 2.25 113 2.51 107 2.59
  26  0.054  0.650  0.032- 168 1.87 178 1.91 134 2.11 149 2.12 167 2.25 114 2.51 108 2.59
  27  0.554  0.650  0.468- 184 1.91 133 2.11 161 2.14 119 2.51 111 2.59
  28  0.446  0.350  0.532- 180 1.91 133 2.11 148 2.12 156 2.25 120 2.51 112 2.59
  29  0.446  0.150  0.032- 176 1.91 135 2.11 140 2.14 117 2.51 105 2.59 157 2.61
  30  0.554  0.850  0.968- 160 1.87 170 1.91 135 2.11 144 2.25 118 2.51 106 2.59
  31  0.054  0.850  0.532- 181 1.91 136 2.11 166 2.12 115 2.51 109 2.59
  32  0.946  0.150  0.468- 136 2.11 162 2.14 116 2.51 110 2.59
  33  0.850  0.532  0.054- 172 1.91 134 2.11 158 2.12 149 2.14 107 2.51 101 2.59 154 2.61
  34  0.150  0.468  0.946- 138 1.87 179 1.91 134 2.11 139 2.12 108 2.51 102 2.59 146 2.61
  35  0.150  0.032  0.446- 151 1.87 175 1.91 136 2.11 153 2.25 109 2.51  97 2.59
  36  0.850  0.968  0.554- 136 2.11 159 2.12 166 2.14 150 2.25 110 2.51  98 2.59
  37  0.650  0.468  0.554- 174 1.91 133 2.11 148 2.14 111 2.51 103 2.59 137 2.61
  38  0.350  0.532  0.446- 188 1.91 133 2.11 164 2.12 141 2.25 112 2.51 104 2.59
  39  0.350  0.968  0.946- 143 1.87 186 1.91 135 2.11 105 2.51  99 2.59
  40  0.650  0.032  0.054- 177 1.91 135 2.11 106 2.51 100 2.59
  41  0.032  0.446  0.150- 173 1.91 134 2.11 139 2.14 101 2.51 113 2.59
  42  0.968  0.554  0.850- 134 2.11 158 2.14 102 2.51 114 2.59
  43  0.532  0.054  0.850- 171 1.91 135 2.11  99 2.51 117 2.59
  44  0.468  0.946  0.150- 165 1.88 169 1.91 135 2.11 140 2.12 152 2.25 100 2.51 118 2.59
  45  0.968  0.946  0.350- 187 1.91 136 2.11 162 2.12 159 2.14 155 2.25  97 2.51 115 2.59
  46  0.032  0.054  0.650- 185 1.91 136 2.11 163 2.25  98 2.51 116 2.59
  47  0.468  0.554  0.650- 183 1.91 133 2.11 164 2.14 147 2.25 103 2.51 119 2.59
  48  0.532  0.446  0.350- 142 1.88 133 2.11 161 2.12 104 2.51 120 2.59
  49  0.600  0.696  0.782- 144 1.87 170 1.91 127 2.11 160 2.12 119 2.51 103 2.59 147 2.61
  50  0.400  0.304  0.218- 176 1.91 128 2.11 157 2.14 120 2.51 104 2.59
  51  0.900  0.304  0.282- 125 2.11 113 2.51 101 2.59
  52  0.100  0.696  0.718- 181 1.91 126 2.11 114 2.51 102 2.59
  53  0.400  0.196  0.718- 156 1.87 180 1.91 129 2.11 117 2.51  99 2.59
  54  0.600  0.804  0.282- 184 1.91 130 2.11 118 2.51 100 2.59 152 2.61
  55  0.100  0.804  0.218- 167 1.87 178 1.91 131 2.11 168 2.12 115 2.51  97 2.59 155 2.61
  56  0.900  0.196  0.782- 145 1.87 182 1.91 132 2.11 116 2.51  98 2.59 163 2.61
  57  0.782  0.600  0.696- 127 2.11 137 2.25 103 2.51 111 2.59
  58  0.218  0.400  0.304- 173 1.91 128 2.11 104 2.51 112 2.59 141 2.61
  59  0.282  0.900  0.304- 152 1.88 169 1.91 131 2.11 165 2.12  97 2.51 109 2.59 153 2.61
  60  0.718  0.100  0.696- 171 1.91 132 2.11  98 2.51 110 2.59 150 2.61
  61  0.718  0.400  0.196- 125 2.11 142 2.12 154 2.25 101 2.51 107 2.59
  62  0.282  0.600  0.804- 147 1.88 183 1.91 126 2.11 146 2.25 102 2.51 108 2.59
  63  0.218  0.100  0.804- 163 1.88 185 1.91 129 2.11  99 2.51 105 2.59
  64  0.782  0.900  0.196- 155 1.88 187 1.91 130 2.11 100 2.51 106 2.59
  65  0.696  0.782  0.600- 150 1.87 127 2.11 111 2.51 119 2.59
  66  0.304  0.218  0.400- 153 1.87 175 1.91 128 2.11 151 2.12 112 2.51 120 2.59 156 2.61
  67  0.304  0.282  0.900- 179 1.91 129 2.11 138 2.12 146 2.14 157 2.25 105 2.51 117 2.59
  68  0.696  0.718  0.100- 172 1.91 130 2.11 154 2.14 106 2.51 118 2.59 144 2.61
  69  0.196  0.718  0.400- 141 1.87 188 1.91 131 2.11 109 2.51 115 2.59
  70  0.804  0.282  0.600- 174 1.91 132 2.11 137 2.14 110 2.51 116 2.59
  71  0.804  0.218  0.100- 177 1.91 125 2.11 107 2.51 113 2.59 145 2.61
  72  0.196  0.782  0.900- 186 1.91 126 2.11 143 2.12 108 2.51 114 2.59 167 2.61
  73  0.446  0.850  0.468- 184 1.91 122 2.11 152 2.14 119 2.51 109 2.59
  74  0.554  0.150  0.532- 180 1.91 122 2.11 156 2.12 148 2.25 120 2.51 110 2.59
  75  0.054  0.150  0.968- 182 1.91 121 2.11 145 2.12 163 2.14 113 2.51 105 2.59 138 2.61
  76  0.946  0.850  0.032- 178 1.91 121 2.11 167 2.12 155 2.14 149 2.25 114 2.51 106 2.59
  77  0.946  0.650  0.532- 181 1.91 123 2.11 166 2.25 115 2.51 111 2.59
  78  0.054  0.350  0.468- 123 2.11 116 2.51 112 2.59 151 2.61
  79  0.554  0.350  0.032- 176 1.91 124 2.11 117 2.51 107 2.59
  80  0.446  0.650  0.968- 170 1.91 124 2.11 144 2.12 147 2.14 118 2.51 108 2.59 143 2.61
  81  0.350  0.032  0.554- 175 1.91 122 2.11 153 2.12 156 2.14 109 2.51  99 2.59
  82  0.650  0.968  0.446- 122 2.11 150 2.12 159 2.25 110 2.51 100 2.59
  83  0.650  0.532  0.946- 172 1.91 124 2.11 144 2.14 158 2.25 107 2.51 103 2.59
  84  0.350  0.468  0.054- 157 1.87 179 1.91 124 2.11 139 2.25 108 2.51 104 2.59
  85  0.150  0.968  0.054- 186 1.91 121 2.11 167 2.14 105 2.51  97 2.59 165 2.61
  86  0.850  0.032  0.946- 177 1.91 121 2.11 145 2.14 106 2.51  98 2.59
  87  0.850  0.468  0.446- 174 1.91 123 2.11 111 2.51 101 2.59 142 2.61
  88  0.150  0.532  0.554- 188 1.91 123 2.11 141 2.12 164 2.25 112 2.51 102 2.59
  89  0.532  0.946  0.650- 171 1.91 122 2.11 150 2.14  99 2.51 119 2.59 160 2.61
  90  0.468  0.054  0.350- 169 1.91 122 2.11 152 2.12 153 2.14 140 2.25 100 2.51 120 2.59
  91  0.032  0.554  0.350- 173 1.91 123 2.11 141 2.14 101 2.51 115 2.59 168 2.61
  92  0.968  0.446  0.650- 137 1.88 123 2.11 102 2.51 116 2.59
  93  0.468  0.446  0.850- 146 1.88 183 1.91 124 2.11 147 2.12 103 2.51 117 2.59
  94  0.532  0.554  0.150- 154 1.88 124 2.11 161 2.25 104 2.51 118 2.59
  95  0.968  0.054  0.150- 187 1.91 121 2.11 155 2.12 162 2.25  97 2.51 113 2.59
  96  0.032  0.946  0.850- 185 1.91 121 2.11 163 2.12  98 2.51 114 2.59
  97  0.125  0.000  0.250-  45 2.51  95 2.51   9 2.51  59 2.51   1 2.59  85 2.59  35 2.59  55 2.59
                           165 2.99 155 2.99 162 2.99 169 3.24 187 3.24 153 3.26 151 3.35 167 3.35
  98  0.875  0.000  0.750-  60 2.51  10 2.51  96 2.51  46 2.51  56 2.59   2 2.59  86 2.59  36 2.59
                           163 2.99 171 3.24 185 3.24 150 3.26 145 3.35 166 3.35 132 3.62 136 3.62
  99  0.375  0.000  0.750-  63 2.51  13 2.51  89 2.51  43 2.51  53 2.59   3 2.59  81 2.59  39 2.59
                           171 3.24 185 3.24 160 3.26 156 3.35 143 3.35 126 3.62 129 3.62 135 3.62
 100  0.625  0.000  0.250-  44 2.51  90 2.51  14 2.51  64 2.51  40 2.59  82 2.59   4 2.59  54 2.59
                           152 2.99 140 2.99 169 3.24 187 3.24 159 3.26 125 3.62 130 3.62 135 3.62
 101  0.875  0.500  0.250-  91 2.51  61 2.51  41 2.51  15 2.51  33 2.59  87 2.59  51 2.59   5 2.59
                           154 2.99 142 2.99 173 3.24 168 3.26 149 3.35 125 3.62 130 3.62 134 3.62
 102  0.125  0.500  0.750-  16 2.51  42 2.51  62 2.51  92 2.51   6 2.59  52 2.59  88 2.59  34 2.59
                           146 2.99 183 3.24 164 3.26 138 3.35 123 3.62 126 3.62 129 3.62 134 3.62
 103  0.625  0.500  0.750-  11 2.51  47 2.51  57 2.51  93 2.51   7 2.59  37 2.59  83 2.59  49 2.59
                           147 2.99 137 2.99 183 3.24 158 3.26 148 3.35 144 3.35 132 3.62 133 3.62
 104  0.375  0.500  0.250-  94 2.51  58 2.51  48 2.51  12 2.51  38 2.59  84 2.59  50 2.59   8 2.59
                           161 2.99 173 3.24 139 3.26 141 3.26 157 3.35 128 3.62 131 3.62 133 3.62
 105  0.250  0.125  0.000-  17 2.51  67 2.51  39 2.51  85 2.51   9 2.59  63 2.59  75 2.59  29 2.59
                           138 2.99 157 2.99 179 3.24 186 3.24 165 3.26 140 3.35 163 3.35 129 3.62
 106  0.750  0.875  0.000-  68 2.51  18 2.51  86 2.51  40 2.51  64 2.59  10 2.59  76 2.59  30 2.59
                           172 3.24 177 3.24 144 3.26 149 3.26 155 3.35 160 3.35 127 3.62 130 3.62
 107  0.750  0.375  0.000-  71 2.51  21 2.51  83 2.51  33 2.51  61 2.59  11 2.59  79 2.59  25 2.59
                           158 2.99 172 3.24 177 3.24 154 3.26 145 3.26 132 3.62 125 3.62 134 3.62
 108  0.250  0.625  0.000-  22 2.51  72 2.51  34 2.51  84 2.51  12 2.59  62 2.59  80 2.59  26 2.59
                           139 2.99 143 2.99 179 3.24 186 3.24 146 3.26 167 3.26 147 3.35 168 3.35
 109  0.250  0.875  0.500-  69 2.51  23 2.51  81 2.51  35 2.51  59 2.59  13 2.59  73 2.59  31 2.59
                           153 2.99 175 3.24 188 3.24 152 3.35 126 3.62 131 3.62 122 3.62 136 3.62
 110  0.750  0.125  0.500-  24 2.51  70 2.51  36 2.51  82 2.51  14 2.59  60 2.59  74 2.59  32 2.59
                           150 2.99 159 2.99 174 3.24 148 3.26 162 3.35 132 3.62 125 3.62 136 3.62
 111  0.750  0.625  0.500-  19 2.51  65 2.51  37 2.51  87 2.51  15 2.59  57 2.59  77 2.59  27 2.59
                           174 3.24 142 3.26 137 3.26 166 3.26 161 3.35 130 3.62 127 3.62 133 3.62
 112  0.250  0.375  0.500-  66 2.51  20 2.51  88 2.51  38 2.51  58 2.59  16 2.59  78 2.59  28 2.59
                           141 2.99 164 2.99 151 2.99 175 3.24 188 3.24 156 3.26 128 3.62 129 3.62
 113  0.000  0.250  0.125-  25 2.51  75 2.51   1 2.51  51 2.51  41 2.59  95 2.59  17 2.59  71 2.59
                           145 2.99 182 3.24 162 3.26 138 3.26 139 3.35 134 3.62 121 3.62 125 3.62
 114  0.000  0.750  0.875-  76 2.51  26 2.51  52 2.51   2 2.51  42 2.59  96 2.59  72 2.59  18 2.59
                           149 2.99 167 2.99 178 3.24 181 3.24 158 3.35 134 3.62 121 3.62 126 3.62
 115  0.000  0.750  0.375-  77 2.51  31 2.51  55 2.51   5 2.51  45 2.59  91 2.59  69 2.59  19 2.59
                           168 2.99 166 2.99 178 3.24 181 3.24 155 3.26 141 3.35 159 3.35 136 3.62
 116  0.000  0.250  0.625-  32 2.51  78 2.51   6 2.51  56 2.51  46 2.59  92 2.59  20 2.59  70 2.59
                           182 3.24 163 3.26 151 3.26 137 3.35 123 3.62 136 3.62 132 3.62 129 3.62
 117  0.500  0.250  0.875-  79 2.51  29 2.51  53 2.51   7 2.51  43 2.59  93 2.59  67 2.59  21 2.59
                           176 3.24 180 3.24 157 3.26 146 3.35 124 3.62 135 3.62 132 3.62 129 3.62
 118  0.500  0.750  0.125-  30 2.51  80 2.51   8 2.51  54 2.51  44 2.59  94 2.59  22 2.59  68 2.59
                           144 2.99 170 3.24 184 3.24 152 3.26 161 3.26 143 3.26 154 3.35 165 3.35
 119  0.500  0.750  0.625-  27 2.51  73 2.51   3 2.51  49 2.51  47 2.59  89 2.59  23 2.59  65 2.59
                           160 2.99 170 3.24 184 3.24 147 3.26 164 3.35 150 3.35 122 3.62 133 3.62
 120  0.500  0.250  0.375-  74 2.51  28 2.51  50 2.51   4 2.51  48 2.59  90 2.59  66 2.59  24 2.59
                           148 2.99 156 2.99 176 3.24 180 3.24 140 3.26 142 3.35 153 3.35 133 3.62
 121  0.000  0.000  0.000-  96 2.11  95 2.11  76 2.11  75 2.11  86 2.11  85 2.11 155 2.91 163 2.91
                           145 2.91 167 2.91 113 3.62 114 3.62  97 3.62  98 3.62 187 3.62 106 3.62
 122  0.500  0.000  0.500-  89 2.11  90 2.11  73 2.11  74 2.11  82 2.11  81 2.11 152 2.91 156 2.91
                           153 2.91 150 2.91 119 3.62 120 3.62  99 3.62 100 3.62 109 3.62 110 3.62
 123  0.000  0.500  0.500-  92 2.11  91 2.11  77 2.11  78 2.11  87 2.11  88 2.11 141 2.91 137 3.11
                           115 3.62 116 3.62 101 3.62 102 3.62 111 3.62 112 3.62 188 3.62
 124  0.500  0.500  0.000-  93 2.11  94 2.11  80 2.11  79 2.11  83 2.11  84 2.11 147 2.91 144 2.91
                           157 3.11 154 3.11 146 3.11 118 3.62 117 3.62 104 3.62 103 3.62 108 3.62
 125  0.750  0.250  0.250-  14 2.11  61 2.11  71 2.11  24 2.11   4 2.11  51 2.11 142 2.91 162 3.11
                           107 3.62 110 3.62 100 3.62 101 3.62 187 3.62 120 3.62 113 3.62
 126  0.250  0.750  0.750-  13 2.11  62 2.11  23 2.11  72 2.11  52 2.11   3 2.11 143 2.91 164 3.11
                           147 3.11 109 3.62 108 3.62 188 3.62  99 3.62 102 3.62 114 3.62 119 3.62
 127  0.750  0.750  0.750-  10 2.11  57 2.11  18 2.11  65 2.11   2 2.11  49 2.11 160 2.91 158 3.11
                           150 3.11 144 3.11 166 3.11 111 3.62 106 3.62 103 3.62  98 3.62 119 3.62
 128  0.250  0.250  0.250-   9 2.11  58 2.11  17 2.11  66 2.11   1 2.11  50 2.11 151 2.91 157 2.91
                           139 3.11 153 3.11 140 3.11 112 3.62 105 3.62 104 3.62  97 3.62 120 3.62
 129  0.250  0.250  0.750-  63 2.11  16 2.11  20 2.11  67 2.11   6 2.11  53 2.11 146 2.91 138 2.91
                           156 3.11 163 3.11 105 3.62 112 3.62  99 3.62 102 3.62 116 3.62 117 3.62
 130  0.750  0.750  0.250-  15 2.11  64 2.11  68 2.11  19 2.11   5 2.11  54 2.11 154 2.91 159 3.11
                           149 3.11 155 3.11 161 3.11 111 3.62 106 3.62 101 3.62 100 3.62 187 3.62
 131  0.250  0.750  0.250-  12 2.11  59 2.11  22 2.11  69 2.11  55 2.11   8 2.11 165 2.91 168 2.91
                           141 3.11 167 3.11 152 3.11 109 3.62 108 3.62 188 3.62  97 3.62 104 3.62
 132  0.750  0.250  0.750-  60 2.11  11 2.11  21 2.11  70 2.11   7 2.11  56 2.11 137 2.91 145 3.11
                           148 3.11 110 3.62 107 3.62 103 3.62  98 3.62 117 3.62 116 3.62
 133  0.500  0.500  0.500-  47 2.11  48 2.11  27 2.11  28 2.11  37 2.11  38 2.11 161 2.91 148 2.91
                           164 2.91 142 3.11 119 3.62 120 3.62 103 3.62 104 3.62 111 3.62 112 3.62
 134  0.000  0.500  0.000-  42 2.11  41 2.11  26 2.11  25 2.11  33 2.11  34 2.11 149 2.91 139 2.91
                           158 2.91 168 3.11 138 3.11 114 3.62 113 3.62 102 3.62 101 3.62 108 3.62
 135  0.500  0.000  0.000-  43 2.11  44 2.11  30 2.11  29 2.11  40 2.11  39 2.11 140 2.91 160 3.11
                           143 3.11 165 3.11 117 3.62 118 3.62  99 3.62 100 3.62 105 3.62 106 3.62
 136  0.000  0.000  0.500-  46 2.11  45 2.11  31 2.11  32 2.11  36 2.11  35 2.11 162 2.91 166 2.91
                           159 2.91 151 3.11 115 3.62 116 3.62  97 3.62  98 3.62 187 3.62 110 3.62
 137  0.824  0.438  0.651-  92 1.88  11 2.12  70 2.14  57 2.25 174 2.33  37 2.61 132 2.91 103 2.99
                           123 3.11 111 3.26 116 3.35
 138  0.151  0.324  0.938- 179 1.66  34 1.87  67 2.12   6 2.14  17 2.25 182 2.33 139 2.52  75 2.61
                           129 2.91 146 2.92 105 2.99 157 3.04 134 3.11 113 3.26 102 3.35
 139  0.188  0.426  0.099- 179 1.66  17 1.87  34 2.12  41 2.14  84 2.25 173 2.33 138 2.52 157 2.52
                            12 2.61 134 2.91 108 2.99 128 3.11 104 3.26 113 3.35
 140  0.426  0.099  0.188- 169 1.66   9 1.88  44 2.12  29 2.14  90 2.25 176 2.33 165 2.52   4 2.61
                           135 2.91 100 2.99 152 3.04 128 3.11 153 3.15 120 3.26 105 3.35
 141  0.188  0.574  0.401- 188 1.66  69 1.87  88 2.12  91 2.14  38 2.25 173 2.33  58 2.61 123 2.91
                           112 2.99 164 3.04 131 3.11 104 3.26 115 3.35
 142  0.676  0.438  0.349-  48 1.88  61 2.12  24 2.14  15 2.25 174 2.33 161 2.52  87 2.61 125 2.91
                           101 2.99 154 3.04 133 3.11 111 3.26 120 3.35
 143  0.349  0.824  0.938- 186 1.66  39 1.87  72 2.12   3 2.14  22 2.25 170 2.33  80 2.61 126 2.91
                           108 2.99 135 3.11 165 3.15 160 3.15 118 3.26  99 3.35
 144  0.599  0.688  0.926- 170 1.66  49 1.87  80 2.12  83 2.14  30 2.25 172 2.33 160 2.52  68 2.61
                           124 2.91 147 2.92 118 2.99 127 3.11 158 3.15 106 3.26 103 3.35
 145  0.901  0.188  0.926- 182 1.66  56 1.87  75 2.12  86 2.14  25 2.25 177 2.33  71 2.61 121 2.91
                           163 2.92 113 2.99 132 3.11 107 3.26  98 3.35
 146  0.324  0.438  0.849- 183 1.66  93 1.88  16 2.12  67 2.14  62 2.25 179 2.33 147 2.52  34 2.61
                           129 2.91 138 2.92 102 2.99 124 3.11 157 3.15 108 3.26 117 3.35
 147  0.426  0.599  0.812- 183 1.66  62 1.88  93 2.12  80 2.14  47 2.25 170 2.33 146 2.52  49 2.61
                           124 2.91 144 2.92 103 2.99 126 3.11 164 3.15 119 3.26 108 3.35
 148  0.599  0.312  0.574- 180 1.66   7 1.87  28 2.12  37 2.14  74 2.25 174 2.33  24 2.61 133 2.91
                           120 2.99 156 3.04 132 3.11 110 3.26 103 3.35
 149  0.901  0.688  0.074- 178 1.66   5 1.87  26 2.12  33 2.14  76 2.25 172 2.33 168 2.52  18 2.61
                           134 2.91 158 2.92 114 2.99 167 3.04 130 3.11 155 3.15 106 3.26 101 3.35
 150  0.688  0.926  0.599-  65 1.87  82 2.12  89 2.14  36 2.25 171 2.33  60 2.61 122 2.91 110 2.99
                           159 3.04 127 3.11 166 3.15  98 3.26 119 3.35
 151  0.151  0.176  0.438- 175 1.66  35 1.87  66 2.12   1 2.14  20 2.25 153 2.52  78 2.61 128 2.91
                           112 2.99 136 3.11 116 3.26  97 3.35
 152  0.426  0.901  0.312- 169 1.66  59 1.88  90 2.12  73 2.14  44 2.25 184 2.33 165 2.52  54 2.61
                           122 2.91 153 2.92 100 2.99 140 3.04 131 3.11 118 3.26 109 3.35
 153  0.312  0.074  0.401- 175 1.66  66 1.87  81 2.12  90 2.14  35 2.25 169 2.33 151 2.52  59 2.61
                           122 2.91 156 2.92 152 2.92 109 2.99 128 3.11 140 3.15  97 3.26 120 3.35
 154  0.676  0.562  0.151-  94 1.88  15 2.12  68 2.14  61 2.25 172 2.33 161 2.52  33 2.61 130 2.91
                           101 2.99 142 3.04 124 3.11 107 3.26 118 3.35
 155  0.926  0.901  0.188- 187 1.66  64 1.88  95 2.12  76 2.14  45 2.25 178 2.33  55 2.61 121 2.91
                           167 2.92  97 2.99 162 3.04 130 3.11 149 3.15 159 3.15 115 3.26 106 3.35
 156  0.401  0.188  0.574- 180 1.66  53 1.87  74 2.12  81 2.14  28 2.25 175 2.33  66 2.61 122 2.91
                           153 2.92 120 2.99 148 3.04 129 3.11 112 3.26  99 3.35
 157  0.349  0.324  0.062- 179 1.66  84 1.87  17 2.12  50 2.14  67 2.25 176 2.33 139 2.52  29 2.61
                           128 2.91 105 2.99 138 3.04 124 3.11 146 3.15 117 3.26 104 3.35
 158  0.812  0.574  0.901- 172 1.66  18 1.87  33 2.12  42 2.14  83 2.25  11 2.61 134 2.91 149 2.92
                           107 2.99 127 3.11 144 3.15 103 3.26 114 3.35
 159  0.812  0.926  0.401-  19 1.87  36 2.12  45 2.14  82 2.25 187 2.33  14 2.61 136 2.91 166 2.92
                           162 2.92 110 2.99 150 3.04 130 3.11 155 3.15 100 3.26 115 3.35
 160  0.562  0.849  0.824- 170 1.66  30 1.87  49 2.12  10 2.14   3 2.25 171 2.33 144 2.52  89 2.61
                           127 2.91 119 2.99 135 3.11 143 3.15  99 3.26 106 3.35
 161  0.574  0.599  0.312-  15 1.88  48 2.12  27 2.14  94 2.25 184 2.33 142 2.52 154 2.52   8 2.61
                           133 2.91 104 2.99 130 3.11 118 3.26 111 3.35
 162  0.926  0.099  0.312- 187 1.66  14 1.88  45 2.12  32 2.14  95 2.25   1 2.61 136 2.91 159 2.92
                            97 2.99 155 3.04 125 3.11 113 3.26 110 3.35
 163  0.074  0.099  0.812- 185 1.66  63 1.88  96 2.12  75 2.14  46 2.25 182 2.33  56 2.61 121 2.91
                           145 2.92  98 2.99 129 3.11 116 3.26 105 3.35
 164  0.312  0.574  0.599- 188 1.66  23 1.87  38 2.12  47 2.14  88 2.25 183 2.33  16 2.61 133 2.91
                           112 2.99 141 3.04 126 3.11 147 3.15 102 3.26 119 3.35
 165  0.324  0.938  0.151- 169 1.66  44 1.88  59 2.12  22 2.14   9 2.25 186 2.33 140 2.52 152 2.52
                            85 2.61 131 2.91  97 2.99 135 3.11 143 3.15 105 3.26 118 3.35
 166  0.901  0.812  0.574- 181 1.66   2 1.87  31 2.12  36 2.14  77 2.25  19 2.61 136 2.91 159 2.92
                           115 2.99 127 3.11 150 3.15 111 3.26  98 3.35
 167  0.099  0.812  0.074- 178 1.66  55 1.87  76 2.12  85 2.14  26 2.25 186 2.33 168 2.52  72 2.61
                           121 2.91 155 2.92 114 2.99 149 3.04 131 3.11 108 3.26  97 3.35
 168  0.062  0.651  0.176- 178 1.66  26 1.87  55 2.12  12 2.14   5 2.25 173 2.33 167 2.52 149 2.52
                            91 2.61 131 2.91 115 2.99 134 3.11 101 3.26 108 3.35
 169  0.375  0.000  0.250- 165 1.66 152 1.66 140 1.66  44 1.91  90 1.91   9 1.91  59 1.91 153 2.33
                            97 3.24 100 3.24
 170  0.500  0.750  0.875- 160 1.66 144 1.66  30 1.91  80 1.91   3 1.91  49 1.91 147 2.33 143 2.33
                           118 3.24 119 3.24
 171  0.625  0.000  0.750-  60 1.91  10 1.91  89 1.91  43 1.91 150 2.33 160 2.33  98 3.24  99 3.24

 172  0.750  0.625  0.000- 158 1.66  68 1.91  18 1.91  83 1.91  33 1.91 154 2.33 144 2.33 149 2.33
                           106 3.24 107 3.24
 173  0.125  0.500  0.250-  91 1.91  58 1.91  41 1.91  12 1.91 139 2.33 141 2.33 168 2.33 104 3.24
                           101 3.24
 174  0.750  0.375  0.500-  24 1.91  70 1.91  37 1.91  87 1.91 137 2.33 142 2.33 148 2.33 111 3.24
                           110 3.24
 175  0.250  0.125  0.500- 153 1.66 151 1.66  66 1.91  20 1.91  81 1.91  35 1.91 156 2.33 112 3.24
                           109 3.24
 176  0.500  0.250  0.125-  79 1.91  29 1.91  50 1.91   4 1.91 140 2.33 157 2.33 117 3.24 120 3.24

 177  0.750  0.125  0.000-  71 1.91  21 1.91  86 1.91  40 1.91 145 2.33 107 3.24 106 3.24
 178  0.000  0.750  0.125- 168 1.66 149 1.66 167 1.66  76 1.91  26 1.91  55 1.91   5 1.91 155 2.33
                           114 3.24 115 3.24
 179  0.250  0.375  0.000- 139 1.66 138 1.66 157 1.66  17 1.91  67 1.91  34 1.91  84 1.91 146 2.33
                           105 3.24 108 3.24
 180  0.500  0.250  0.625- 148 1.66 156 1.66  74 1.91  28 1.91  53 1.91   7 1.91 117 3.24 120 3.24

 181  0.000  0.750  0.625- 166 1.66  77 1.91  31 1.91  52 1.91   2 1.91 115 3.24 114 3.24
 182  0.000  0.250  0.875- 145 1.66  25 1.91  75 1.91   6 1.91  56 1.91 163 2.33 138 2.33 116 3.24
                           113 3.24
 183  0.375  0.500  0.750- 147 1.66 146 1.66  16 1.91  47 1.91  62 1.91  93 1.91 164 2.33 103 3.24
                           102 3.24
 184  0.500  0.750  0.375-  27 1.91  73 1.91   8 1.91  54 1.91 152 2.33 161 2.33 118 3.24 119 3.24

 185  0.125  0.000  0.750- 163 1.66  63 1.91  96 1.91  13 1.91  46 1.91  99 3.24  98 3.24
 186  0.250  0.875  0.000- 143 1.66  22 1.91  72 1.91  39 1.91  85 1.91 165 2.33 167 2.33 108 3.24
                           105 3.24
 187  0.875  0.000  0.250- 155 1.66 162 1.66  45 1.91  95 1.91  14 1.91  64 1.91 159 2.33 100 3.24
                            97 3.24 136 3.62 121 3.62 125 3.62 130 3.62
 188  0.250  0.625  0.500- 141 1.66 164 1.66  69 1.91  23 1.91  88 1.91  38 1.91 109 3.24 112 3.24
                           126 3.62 131 3.62 123 3.62 133 3.62
 

IMPORTANT INFORMATION: All symmetrisations will be switched off!
NOSYMM: (Re-)initialisation of all symmetry stuff for point group C_1.

 
 
 KPOINTS: K-Points                                

Automatic generation of k-mesh.
Space group operators:
 irot       det(A)        alpha          n_x          n_y          n_z        tau_x        tau_y        tau_z
    1     1.000000     0.000000     1.000000     0.000000     0.000000     0.000000     0.000000     0.000000
 
 Subroutine IBZKPT returns following result:
 ===========================================
 
 Found      1 irreducible k-points:
 
 Following reciprocal coordinates:
            Coordinates               Weight
  0.000000  0.000000  0.000000      1.000000
 
 Following cartesian coordinates:
            Coordinates               Weight
  0.000000  0.000000  0.000000      1.000000
 


--------------------------------------------------------------------------------------------------------




 Dimension of arrays:
   k-points           NKPTS =      1   k-points in BZ     NKDIM =      1   number of bands    NBANDS=    656
   number of dos      NEDOS =    301   number of ions     NIONS =    188
   non local maximal  LDIM  =      8   non local SUM 2l+1 LMDIM =     32
   total plane-waves  NPLWV = 884736
   max r-space proj   IRMAX =   7820   max aug-charges    IRDMAX=  21410
   dimension x,y,z NGX =    96 NGY =   96 NGZ =   96
   dimension x,y,z NGXF=   192 NGYF=  192 NGZF=  192
   support grid    NGXF=   192 NGYF=  192 NGZF=  192
   ions per type =              96  24  16  50   2
   NGX,Y,Z   is equivalent  to a cutoff of  12.31, 12.31, 12.31 a.u.
   NGXF,Y,Z  is equivalent  to a cutoff of  24.62, 24.62, 24.62 a.u.

 SYSTEM =  unknown system                          
 POSCAR =  LLZO_Ia3d_partial_99                    

 Startparameter for this run:
   NWRITE =      2    write-flag & timer
   PREC   = accura    normal or accurate (medium, high low for compatibility)
   ISTART =      0    job   : 0-new  1-cont  2-samecut
   ICHARG =      2    charge: 1-file 2-atom 10-const
   ISPIN  =      1    spin polarized calculation?
   LNONCOLLINEAR =      F non collinear calculations
   LSORBIT =      F    spin-orbit coupling
   INIWAV =      1    electr: 0-lowe 1-rand  2-diag
   LASPH  =      F    aspherical Exc in radial PAW
   METAGGA=      F    non-selfconsistent MetaGGA calc.

 Electronic Relaxation 1
   ENCUT  =  500.0 eV  36.75 Ry    6.06 a.u.  23.64 23.64 23.64*2*pi/ulx,y,z
   ENINI  =  500.0     initial cutoff
   ENAUG  =  605.4 eV  augmentation charge cutoff
   NELM   =     60;   NELMIN=  2; NELMDL=  0     # of ELM steps 
   EDIFF  = 0.1E-05   stopping-criterion for ELM
   LREAL  =      T    real-space projection
   NLSPLINE    = F    spline interpolate recip. space projectors
   LCOMPAT=      F    compatible to vasp.4.4
   GGA_COMPAT  = T    GGA compatible to vasp.4.4-vasp.4.6
   LMAXPAW     = -100 max onsite density
   LMAXMIX     =    2 max onsite mixed and CHGCAR
   VOSKOWN=      0    Vosko Wilk Nusair interpolation
   ROPT   =   -0.00025  -0.00025  -0.00025  -0.00025
   ROPT   =   -0.00025
 Ionic relaxation
   EDIFFG = -.1E-01   stopping-criterion for IOM
   NSW    =     20    number of steps for IOM
   NBLOCK =      1;   KBLOCK =     20    inner block; outer block 
   IBRION =      1    ionic relax: 0-MD 1-quasi-New 2-CG
   NFREE  =      0    steps in history (QN), initial steepest desc. (CG)
   ISIF   =      2    stress and relaxation
   IWAVPR =     11    prediction:  0-non 1-charg 2-wave 3-comb
   ISYM   =      0    0-nonsym 1-usesym 2-fastsym
   LCORR  =      T    Harris-Foulkes like correction to forces

   POTIM  = 0.5000    time-step for ionic-motion
   TEIN   =    0.0    initial temperature
   TEBEG  =    0.0;   TEEND  =   0.0 temperature during run
   SMASS  =  -3.00    Nose mass-parameter (am)
   estimated Nose-frequenzy (Omega)   =  0.10E-29 period in steps =****** mass=  -0.384E-26a.u.
   SCALEE = 1.0000    scale energy and forces
   NPACO  =    256;   APACO  = 16.0  distance and # of slots for P.C.
   PSTRESS=    0.0 pullay stress

  Mass of Ions in am
   POMASS =  16.00138.90 91.22  7.01 26.98
  Ionic Valenz
   ZVAL   =   6.00 11.00 12.00  1.00  3.00
  Atomic Wigner-Seitz radii
   RWIGS  =  -1.00 -1.00 -1.00 -1.00 -1.00
  virtual crystal weights 
   VCA    =   1.00  1.00  1.00  1.00  1.00
   NELECT =    1088.0000    total number of electrons
   NUPDOWN=      -1.0000    fix difference up-down

 DOS related values:
   EMIN   =  10.00;   EMAX   =-10.00  energy-range for DOS
   EFERMI =   0.00
   ISMEAR =     0;   SIGMA  =   0.20  broadening in eV -4-tet -1-fermi 0-gaus

 Electronic relaxation 2 (details)
   IALGO  =     38    algorithm
   LDIAG  =      T    sub-space diagonalisation (order eigenvalues)
   LSUBROT=      F    optimize rotation matrix (better conditioning)
   TURBO    =      0    0=normal 1=particle mesh
   IRESTART =      0    0=no restart 2=restart with 2 vectors
   NREBOOT  =      0    no. of reboots
   NMIN     =      0    reboot dimension
   EREF     =   0.00    reference energy to select bands
   IMIX   =      4    mixing-type and parameters
     AMIX     =   0.40;   BMIX     =  1.00
     AMIX_MAG =   1.60;   BMIX_MAG =  1.00
     AMIN     =   0.10
     WC   =   100.;   INIMIX=   1;  MIXPRE=   1;  MAXMIX= -45

 Intra band minimization:
   WEIMIN = 0.0010     energy-eigenvalue tresh-hold
   EBREAK =  0.38E-09  absolut break condition
   DEPER  =   0.30     relativ break condition  

   TIME   =   0.40     timestep for ELM

  volume/ion in A,a.u.               =      11.59        78.23
  Fermi-wavevector in a.u.,A,eV,Ry     =   1.298703  2.454192 22.947972  1.686628
  Thomas-Fermi vector in A             =   2.430014
 
 Write flags
   LWAVE        =      F    write WAVECAR
   LDOWNSAMPLE  =      F    k-point downsampling of WAVECAR
   LCHARG       =      F    write CHGCAR
   LVTOT        =      F    write LOCPOT, total local potential
   LVHAR        =      F    write LOCPOT, Hartree potential only
   LELF         =      F    write electronic localiz. function (ELF)
   LORBIT       =      0    0 simple, 1 ext, 2 COOP (PROOUT), +10 PAW based schemes


 Dipole corrections
   LMONO  =      F    monopole corrections only (constant potential shift)
   LDIPOL =      F    correct potential (dipole corrections)
   IDIPOL =      0    1-x, 2-y, 3-z, 4-all directions 
   EPSILON=  1.0000000 bulk dielectric constant

 Exchange correlation treatment:
   GGA     =    --    GGA type
   LEXCH   =     8    internal setting for exchange type
   VOSKOWN=      0    Vosko Wilk Nusair interpolation
   LHFCALC =     F    Hartree Fock is set to
   LHFONE  =     F    Hartree Fock one center treatment
   AEXX    =    0.0000 exact exchange contribution

 Linear response parameters
   LEPSILON=     F    determine dielectric tensor
   LRPA    =     F    only Hartree local field effects (RPA)
   LNABLA  =     F    use nabla operator in PAW spheres
   LVEL    =     F    velocity operator in full k-point grid
   LINTERFAST=   F  fast interpolation
   KINTER  =     0    interpolate to denser k-point grid
   CSHIFT  =0.1000    complex shift for real part using Kramers Kronig
   OMEGAMAX=  -1.0    maximum frequency
   DEG_THRESHOLD= 0.2000000E-02 threshold for treating states as degnerate
   RTIME   =   -0.100 relaxation time in fs
  (WPLASMAI=    0.000 imaginary part of plasma frequency in eV, 0.658/RTIME)
   DFIELD  = 0.0000000 0.0000000 0.0000000 field for delta impulse in time
 
 Orbital magnetization related:
   ORBITALMAG=     F  switch on orbital magnetization
   LCHIMAG   =     F  perturbation theory with respect to B field
   DQ        =  0.001000  dq finite difference perturbation B field
   LLRAUG    =     F  two centre corrections for induced B field



--------------------------------------------------------------------------------------------------------


 quasi-Newton-method for relaxation of ions
 charge density and potential will be updated during run
 non-spin polarized calculation
 Variant of blocked Davidson
 Davidson routine will perform the subspace rotation
 perform sub-space diagonalisation
    after iterative eigenvector-optimisation
 modified Broyden-mixing scheme, WC =      100.0
 initial mixing is a Kerker type mixing with AMIX =  0.4000 and BMIX =      1.0000
 Hartree-type preconditioning will be used
 using additional bands          112
 real space projection scheme for non local part
 use partial core corrections
 calculate Harris-corrections to forces 
   (improved forces if not selfconsistent)
 use gradient corrections 
 use of overlap-Matrix (Vanderbilt PP)
 Gauss-broadening in eV      SIGMA  =   0.20


--------------------------------------------------------------------------------------------------------


  energy-cutoff  :      500.00
  volume of cell :     2179.34
      direct lattice vectors                 reciprocal lattice vectors
    12.965200424  0.000000000  0.000000000     0.077129544  0.000000000  0.000000000
     0.000000000 12.965000153  0.000000000     0.000000000  0.077130736  0.000000000
     0.000000000  0.000000000 12.965000153     0.000000000  0.000000000  0.077130736

  length of vectors
    12.965200424 12.965000153 12.965000153     0.077129544  0.077130736  0.077130736


 
 k-points in units of 2pi/SCALE and weight: K-Points                                
   0.00000000  0.00000000  0.00000000       1.000
 
 k-points in reciprocal lattice and weights: K-Points                                
   0.00000000  0.00000000  0.00000000       1.000
 
 position of ions in fractional coordinates (direct lattice) 
   0.10000000  0.19560000  0.28160000
   0.89999998  0.80439997  0.71840000
   0.40000001  0.80439997  0.78160000
   0.60000002  0.19560000  0.21840000
   0.89999998  0.69560003  0.21840000
   0.10000000  0.30440000  0.78160000
   0.60000002  0.30440000  0.71840000
   0.40000001  0.69560003  0.28160000
   0.28160000  0.10000000  0.19560000
   0.71840000  0.89999998  0.80439997
   0.78160000  0.40000001  0.80439997
   0.21840000  0.60000002  0.19560000
   0.21840000  0.89999998  0.69560003
   0.78160000  0.10000000  0.30440000
   0.71840000  0.60000002  0.30440000
   0.28160000  0.40000001  0.69560003
   0.19560000  0.28160000  0.10000000
   0.80439997  0.71840000  0.89999998
   0.80439997  0.78160000  0.40000001
   0.19560000  0.21840000  0.60000002
   0.69560003  0.21840000  0.89999998
   0.30440000  0.78160000  0.10000000
   0.30440000  0.71840000  0.60000002
   0.69560003  0.28160000  0.40000001
   0.94560003  0.34999999  0.96840000
   0.05440000  0.64999998  0.03160000
   0.55439997  0.64999998  0.46840000
   0.44560000  0.34999999  0.53160000
   0.44560000  0.15000001  0.03160000
   0.55439997  0.85000002  0.96840000
   0.05440000  0.85000002  0.53160000
   0.94560003  0.15000001  0.46840000
   0.85000002  0.53160000  0.05440000
   0.15000001  0.46840000  0.94560003
   0.15000001  0.03160000  0.44560000
   0.85000002  0.96840000  0.55439997
   0.64999998  0.46840000  0.55439997
   0.34999999  0.53160000  0.44560000
   0.34999999  0.96840000  0.94560003
   0.64999998  0.03160000  0.05440000
   0.03160000  0.44560000  0.15000001
   0.96840000  0.55439997  0.85000002
   0.53160000  0.05440000  0.85000002
   0.46840000  0.94560003  0.15000001
   0.96840000  0.94560003  0.34999999
   0.03160000  0.05440000  0.64999998
   0.46840000  0.55439997  0.64999998
   0.53160000  0.44560000  0.34999999
   0.60000002  0.69560003  0.78160000
   0.40000001  0.30440000  0.21840000
   0.89999998  0.30440000  0.28160000
   0.10000000  0.69560003  0.71840000
   0.40000001  0.19560000  0.71840000
   0.60000002  0.80439997  0.28160000
   0.10000000  0.80439997  0.21840000
   0.89999998  0.19560000  0.78160000
   0.78160000  0.60000002  0.69560003
   0.21840000  0.40000001  0.30440000
   0.28160000  0.89999998  0.30440000
   0.71840000  0.10000000  0.69560003
   0.71840000  0.40000001  0.19560000
   0.28160000  0.60000002  0.80439997
   0.21840000  0.10000000  0.80439997
   0.78160000  0.89999998  0.19560000
   0.69560003  0.78160000  0.60000002
   0.30440000  0.21840000  0.40000001
   0.30440000  0.28160000  0.89999998
   0.69560003  0.71840000  0.10000000
   0.19560000  0.71840000  0.40000001
   0.80439997  0.28160000  0.60000002
   0.80439997  0.21840000  0.10000000
   0.19560000  0.78160000  0.89999998
   0.44560000  0.85000002  0.46840000
   0.55439997  0.15000001  0.53160000
   0.05440000  0.15000001  0.96840000
   0.94560003  0.85000002  0.03160000
   0.94560003  0.64999998  0.53160000
   0.05440000  0.34999999  0.46840000
   0.55439997  0.34999999  0.03160000
   0.44560000  0.64999998  0.96840000
   0.34999999  0.03160000  0.55439997
   0.64999998  0.96840000  0.44560000
   0.64999998  0.53160000  0.94560003
   0.34999999  0.46840000  0.05440000
   0.15000001  0.96840000  0.05440000
   0.85000002  0.03160000  0.94560003
   0.85000002  0.46840000  0.44560000
   0.15000001  0.53160000  0.55439997
   0.53160000  0.94560003  0.64999998
   0.46840000  0.05440000  0.34999999
   0.03160000  0.55439997  0.34999999
   0.96840000  0.44560000  0.64999998
   0.46840000  0.44560000  0.85000002
   0.53160000  0.55439997  0.15000001
   0.96840000  0.05440000  0.15000001
   0.03160000  0.94560003  0.85000002
   0.12500000  0.00000000  0.25000000
   0.87500000  0.00000000  0.75000000
   0.37500000  0.00000000  0.75000000
   0.62500000  0.00000000  0.25000000
   0.87500000  0.50000000  0.25000000
   0.12500000  0.50000000  0.75000000
   0.62500000  0.50000000  0.75000000
   0.37500000  0.50000000  0.25000000
   0.25000000  0.12500000  0.00000000
   0.75000000  0.87500000  0.00000000
   0.75000000  0.37500000  0.00000000
   0.25000000  0.62500000  0.00000000
   0.25000000  0.87500000  0.50000000
   0.75000000  0.12500000  0.50000000
   0.75000000  0.62500000  0.50000000
   0.25000000  0.37500000  0.50000000
   0.00000000  0.25000000  0.12500000
   0.00000000  0.75000000  0.87500000
   0.00000000  0.75000000  0.37500000
   0.00000000  0.25000000  0.62500000
   0.50000000  0.25000000  0.87500000
   0.50000000  0.75000000  0.12500000
   0.50000000  0.75000000  0.62500000
   0.50000000  0.25000000  0.37500000
   0.00000000  0.00000000  0.00000000
   0.50000000  0.00000000  0.50000000
   0.00000000  0.50000000  0.50000000
   0.50000000  0.50000000  0.00000000
   0.75000000  0.25000000  0.25000000
   0.25000000  0.75000000  0.75000000
   0.75000000  0.75000000  0.75000000
   0.25000000  0.25000000  0.25000000
   0.25000000  0.25000000  0.75000000
   0.75000000  0.75000000  0.25000000
   0.25000000  0.75000000  0.25000000
   0.75000000  0.25000000  0.75000000
   0.50000000  0.50000000  0.50000000
   0.00000000  0.50000000  0.00000000
   0.50000000  0.00000000  0.00000000
   0.00000000  0.00000000  0.50000000
   0.82400000  0.43770000  0.65090001
   0.15090001  0.32400000  0.93770003
   0.18770000  0.42600000  0.09910000
   0.42600000  0.09910000  0.18770000
   0.18770000  0.57400000  0.40090001
   0.67600000  0.43770000  0.34909999
   0.34909999  0.82400000  0.93770003
   0.59909999  0.68770003  0.92600000
   0.90090001  0.18770000  0.92600000
   0.32400000  0.43770000  0.84909999
   0.42600000  0.59909999  0.81229997
   0.59909999  0.31230000  0.57400000
   0.90090001  0.68770003  0.07400000
   0.68770003  0.92600000  0.59909999
   0.15090001  0.17600000  0.43770000
   0.42600000  0.90090001  0.31230000
   0.31230000  0.07400000  0.40090001
   0.67600000  0.56229997  0.15090001
   0.92600000  0.90090001  0.18770000
   0.40090001  0.18770000  0.57400000
   0.34909999  0.32400000  0.06230000
   0.81229997  0.57400000  0.90090001
   0.81229997  0.92600000  0.40090001
   0.56229997  0.84909999  0.82400000
   0.57400000  0.59909999  0.31230000
   0.92600000  0.09910000  0.31230000
   0.07400000  0.09910000  0.81229997
   0.31230000  0.57400000  0.59909999
   0.32400000  0.93770003  0.15090001
   0.90090001  0.81229997  0.57400000
   0.09910000  0.81229997  0.07400000
   0.06230000  0.65090001  0.17600000
   0.37500000  0.00000000  0.25000000
   0.50000000  0.75000000  0.87500000
   0.62500000  0.00000000  0.75000000
   0.75000000  0.62500000  0.00000000
   0.12500000  0.50000000  0.25000000
   0.75000000  0.37500000  0.50000000
   0.25000000  0.12500000  0.50000000
   0.50000000  0.25000000  0.12500000
   0.75000000  0.12500000  0.00000000
   0.00000000  0.75000000  0.12500000
   0.25000000  0.37500000  0.00000000
   0.50000000  0.25000000  0.62500000
   0.00000000  0.75000000  0.62500000
   0.00000000  0.25000000  0.87500000
   0.37500000  0.50000000  0.75000000
   0.50000000  0.75000000  0.37500000
   0.12500000  0.00000000  0.75000000
   0.25000000  0.87500000  0.00000000
   0.87500000  0.00000000  0.25000000
   0.25000000  0.62500000  0.50000000
 
 position of ions in cartesian coordinates  (Angst):
   1.29652006  2.53595407  3.65094402
  11.66868007 10.42904569  9.31405614
   5.18608025 10.42904569 10.13344409
   7.77912057  2.53595407  2.83155606
  11.66868007  9.01845453  2.83155606
   1.29652006  3.94654601 10.13344409
   7.77912057  3.94654601  9.31405614
   5.18608025  9.01845453  3.65094402
   3.65100041  1.29650003  2.53595407
   9.31420001 11.66849983 10.42904569
  10.13360063  5.18600014 10.42904569
   2.83159980  7.77900040  2.53595407
   2.83159980 11.66849983  9.01845453
  10.13360063  1.29650003  3.94654601
   9.31420001  7.77900040  3.94654601
   3.65100041  5.18600014  9.01845453
   2.53599324  3.65094402  1.29650003
  10.42920679  9.31405614 11.66849983
  10.42920679 10.13344409  5.18600014
   2.53599324  2.83155606  7.77900040
   9.01859384  2.83155606 11.66849983
   3.94660697 10.13344409  1.29650003
   3.94660697  9.31405614  7.77900040
   9.01859384  3.65094402  5.18600014
  12.25989395  4.53774998 12.55530617
   0.70530686  8.42724979  0.40969398
   7.18790669  8.42724979  6.07280610
   5.77729335  4.53774998  6.89219406
   5.77729335  1.94475010  0.40969398
   7.18790669 11.02025044 12.55530617
   0.70530686 11.02025044  6.89219406
  12.25989395  1.94475010  6.07280610
  11.02042067  6.89219406  0.70529597
   1.94478014  6.07280610 12.25970457
   1.94478014  0.40969398  5.77720411
  11.02042067 12.55530617  7.18779566
   8.42737996  6.07280610  7.18779566
   4.53782007  6.89219406  5.77720411
   4.53782007 12.55530617 12.25970457
   8.42737996  0.40969398  0.70529597
   0.40970031  5.77720411  1.94475010
  12.55550012  7.18779566 11.02025044
   6.89230052  0.70529597 11.02025044
   6.07289990 12.25970457  1.94475010
  12.55550012 12.25970457  4.53774998
   0.40970031  0.70529597  8.42724979
   6.07289990  7.18779566  8.42724979
   6.89230052  5.77720411  4.53774998
   7.77912057  9.01845453 10.13344409
   5.18608025  3.94654601  2.83155606
  11.66868007  3.94654601  3.65094402
   1.29652006  9.01845453  9.31405614
   5.18608025  2.53595407  9.31405614
   7.77912057 10.42904569  3.65094402
   1.29652006 10.42904569  2.83155606
  11.66868007  2.53595407 10.13344409
  10.13360063  7.77900040  9.01845453
   2.83159980  5.18600014  3.94654601
   3.65100041 11.66849983  3.94654601
   9.31420001  1.29650003  9.01845453
   9.31420001  5.18600014  2.53595407
   3.65100041  7.77900040 10.42904569
   2.83159980  1.29650003 10.42904569
  10.13360063 11.66849983  2.53595407
   9.01859384 10.13344409  7.77900040
   3.94660697  2.83155606  5.18600014
   3.94660697  3.65094402 11.66849983
   9.01859384  9.31405614  1.29650003
   2.53599324  9.31405614  5.18600014
  10.42920679  3.65094402  7.77900040
  10.42920679  2.83155606  1.29650003
   2.53599324 10.13344409 11.66849983
   5.77729335 11.02025044  6.07280610
   7.18790669  1.94475010  6.89219406
   0.70530686  1.94475010 12.55530617
  12.25989395 11.02025044  0.40969398
  12.25989395  8.42724979  6.89219406
   0.70530686  4.53774998  6.07280610
   7.18790669  4.53774998  0.40969398
   5.77729335  8.42724979 12.55530617
   4.53782007  0.40969398  7.18779566
   8.42737996 12.55530617  5.77720411
   8.42737996  6.89219406 12.25970457
   4.53782007  6.07280610  0.70529597
   1.94478014 12.55530617  0.70529597
  11.02042067  0.40969398 12.25970457
  11.02042067  6.07280610  5.77720411
   1.94478014  6.89219406  7.18779566
   6.89230052 12.25970457  8.42724979
   6.07289990  0.70529597  4.53774998
   0.40970031  7.18779566  4.53774998
  12.55550012  5.77720411  8.42724979
   6.07289990  5.77720411 11.02025044
   6.89230052  7.18779566  1.94475010
  12.55550012  0.70529597  1.94475010
   0.40970031 12.25970457 11.02025044
   1.62065005  0.00000000  3.24125004
  11.34455037  0.00000000  9.72375011
   4.86195016  0.00000000  9.72375011
   8.10325027  0.00000000  3.24125004
  11.34455037  6.48250008  3.24125004
   1.62065005  6.48250008  9.72375011
   8.10325027  6.48250008  9.72375011
   4.86195016  6.48250008  3.24125004
   3.24130011  1.62062502  0.00000000
   9.72390032 11.34437513  0.00000000
   9.72390032  4.86187506  0.00000000
   3.24130011  8.10312510  0.00000000
   3.24130011 11.34437513  6.48250008
   9.72390032  1.62062502  6.48250008
   9.72390032  8.10312510  6.48250008
   3.24130011  4.86187506  6.48250008
   0.00000000  3.24125004  1.62062502
   0.00000000  9.72375011 11.34437513
   0.00000000  9.72375011  4.86187506
   0.00000000  3.24125004  8.10312510
   6.48260021  3.24125004 11.34437513
   6.48260021  9.72375011  1.62062502
   6.48260021  9.72375011  8.10312510
   6.48260021  3.24125004  4.86187506
   0.00000000  0.00000000  0.00000000
   6.48260021  0.00000000  6.48250008
   0.00000000  6.48250008  6.48250008
   6.48260021  6.48250008  0.00000000
   9.72390032  3.24125004  3.24125004
   3.24130011  9.72375011  9.72375011
   9.72390032  9.72375011  9.72375011
   3.24130011  3.24125004  3.24125004
   3.24130011  3.24125004  9.72375011
   9.72390032  9.72375011  3.24125004
   3.24130011  9.72375011  3.24125004
   9.72390032  3.24125004  9.72375011
   6.48260021  6.48250008  6.48250008
   0.00000000  6.48250008  0.00000000
   6.48260021  0.00000000  0.00000000
   0.00000000  0.00000000  6.48250008
  10.68332516  5.67478061  8.43891868
   1.95644882  4.20066006 12.15728107
   2.43356816  5.52309005  1.28483153
   5.52317537  1.28483153  2.43353057
   2.43356816  7.44191010  5.19766864
   8.76447547  5.67478061  4.52608148
   4.52615139 10.68316014 12.15728107
   7.76745150  8.91603103 12.00559013
  11.68034914  2.43353057 12.00559013
   4.20072495  5.67478061 11.00858155
   5.52317537  7.76733151 10.53146920
   7.76745150  4.04896951  7.44191010
  11.68034914  8.91603103  0.95941002
   8.91616876 12.00559013  7.76733151
   1.95644882  2.28184001  5.67478061
   5.52317537 11.68016872  4.04896951
   4.04903205  0.95941002  5.19766864
   8.76447547  7.29021916  1.95641860
  12.00577558 11.68016872  2.43353057
   5.19774893  2.43353057  7.44191010
   4.52615139  4.20066006  0.80771947
  10.53163188  7.44191010 11.68016872
  10.53163188 12.00559013  5.19766864
   7.29033177 11.00858155 10.68316014
   7.44202506  7.76733151  4.04896951
  12.00577558  1.28483153  4.04896951
   0.95942484  1.28483153 10.53146920
   4.04903205  7.44191010  7.76733151
   4.20072495 12.15728107  1.95641860
  11.68034914 10.53146920  7.44191010
   1.28485138 10.53146920  0.95941002
   0.80773195  8.43891868  2.28184001
   4.86195016  0.00000000  3.24125004
   6.48260021  9.72375011 11.34437513
   8.10325027  0.00000000  9.72375011
   9.72390032  8.10312510  0.00000000
   1.62065005  6.48250008  3.24125004
   9.72390032  4.86187506  6.48250008
   3.24130011  1.62062502  6.48250008
   6.48260021  3.24125004  1.62062502
   9.72390032  1.62062502  0.00000000
   0.00000000  9.72375011  1.62062502
   3.24130011  4.86187506  0.00000000
   6.48260021  3.24125004  8.10312510
   0.00000000  9.72375011  8.10312510
   0.00000000  3.24125004 11.34437513
   4.86195016  6.48250008  9.72375011
   6.48260021  9.72375011  4.86187506
   1.62065005  0.00000000  9.72375011
   3.24130011 11.34437513  0.00000000
  11.34455037  0.00000000  3.24125004
   3.24130011  8.10312510  6.48250008
 


--------------------------------------------------------------------------------------------------------


 use parallel FFT for orbitals z direction half grid
 k-point  1 :   0.0000 0.0000 0.0000  plane waves:   27734

 maximum and minimum number of plane-waves per node :      1394     1380

 maximum number of plane-waves:     27734
 maximum index in each direction: 
   IXMAX=   23   IYMAX=   23   IZMAX=   23
   IXMIN=  -23   IYMIN=  -23   IZMIN=    0


 real space projection operators:
  total allocation   :      77300.17 KBytes
  max/ min on nodes  :       4369.83       2964.95


 parallel 3D FFT for wavefunctions:
    minimum data exchange during FFTs selected (reduces bandwidth)
 parallel 3D FFT for charge:
    minimum data exchange during FFTs selected (reduces bandwidth)


 total amount of memory used by VASP MPI-rank0    47917. kBytes
=======================================================================

   base      :      30000. kBytes
   nonlr-proj:       4725. kBytes
   fftplans  :       3250. kBytes
   grid      :       7798. kBytes
   one-center:        245. kBytes
   wavefun   :       1899. kBytes
 
     INWAV:  cpu time    0.0000: real time    0.0000
 Broyden mixing: mesh for mixing (old mesh)
   NGX = 47   NGY = 47   NGZ = 47
  (NGX  =192   NGY  =192   NGZ  =192)
  gives a total of 103823 points

 initial charge density was supplied:
 charge density of overlapping atoms calculated
 number of electron    1088.0000000 magnetization 
 keeping initial charge density in first step


--------------------------------------------------------------------------------------------------------


 Maximum index for non-local projection operator          465
 Maximum index for augmentation-charges          901 (set IRDMAX)


--------------------------------------------------------------------------------------------------------


 First call to EWALD:  gamma=   0.137
 Maximum number of real-space cells 3x 3x 3
 Maximum number of reciprocal cells 3x 3x 3

    FEWALD:  cpu time    0.0056: real time    0.0056


--------------------------------------- Iteration      1(   1)  ---------------------------------------


    POTLOK:  cpu time    0.0607: real time    0.0633
    SETDIJ:  cpu time    0.0168: real time    0.0170
     EDDAV:  cpu time    1.7181: real time    1.7326
       DOS:  cpu time    0.0007: real time    0.0008
    --------------------------------------------
      LOOP:  cpu time    1.7964: real time    1.8138

 eigenvalue-minimisations  :  1592
 total energy-change (2. order) : 0.2526716E+05  (-0.4203097E+05)
 number of electron    1088.0000000 magnetization 
 augmentation part     1088.0000000 magnetization 

 Free energy of the ion-electron system (eV)
  ---------------------------------------------------
  alpha Z        PSCENC =      3513.07897605
  Ewald energy   TEWEN  =    -65645.77103230
  -Hartree energ DENC   =    -19477.99810572
  -exchange      EXHF   =         0.00000000
  -V(xc)+E(xc)   XCENC  =      3965.10501615
  PAW double counting   =     65303.12721459   -64814.42018710
  entropy T*S    EENTRO =        -0.17537888
  eigenvalues    EBANDS =     19215.03284804
  atomic energy  EATOM  =     83209.17646865
  Solvation  Ediel_sol  =         0.00000000
  ---------------------------------------------------
  free energy    TOTEN  =     25267.15581947 eV

  energy without entropy =    25267.33119834  energy(sigma->0) =    25267.24350891


--------------------------------------------------------------------------------------------------------




--------------------------------------- Iteration      1(   2)  ---------------------------------------


     EDDAV:  cpu time    1.5760: real time    1.5883
       DOS:  cpu time    0.0006: real time    0.0006
    --------------------------------------------
      LOOP:  cpu time    1.5766: real time    1.5890

 eigenvalue-minimisations  :  1432
 total energy-change (2. order) :-0.1583631E+05  (-0.1465544E+05)
 number of electron    1088.0000000 magnetization 
 augmentation part     1088.0000000 magnetization 

 Free energy of the ion-electron system (eV)
  ---------------------------------------------------
  alpha Z        PSCENC =      3513.07897605
  Ewald energy   TEWEN  =    -65645.77103230
  -Hartree energ DENC   =    -19477.99810572
  -exchange      EXHF   =         0.00000000
  -V(xc)+E(xc)   XCENC  =      3965.10501615
  PAW double counting   =     65303.12721459   -64814.42018710
  entropy T*S    EENTRO =        -0.54983639
  eigenvalues    EBANDS =      3379.10003317
  atomic energy  EATOM  =     83209.17646865
  Solvation  Ediel_sol  =         0.00000000
  ---------------------------------------------------
  free energy    TOTEN  =      9430.84854708 eV

  energy without entropy =     9431.39838348  energy(sigma->0) =     9431.12346528


--------------------------------------------------------------------------------------------------------




--------------------------------------- Iteration      1(   3)  ---------------------------------------


     EDDAV:  cpu time    1.7858: real time    1.7987
       DOS:  cpu time    0.0008: real time    0.0008
    --------------------------------------------
      LOOP:  cpu time    1.7865: real time    1.7995

 eigenvalue-minimisations  :  1536
 total energy-change (2. order) :-0.6778809E+04  (-0.6184113E+04)
 number of electron    1088.0000000 magnetization 
 augmentation part     1088.0000000 magnetization 

 Free energy of the ion-electron system (eV)
  ---------------------------------------------------
  alpha Z        PSCENC =      3513.07897605
  Ewald energy   TEWEN  =    -65645.77103230
  -Hartree energ DENC   =    -19477.99810572
  -exchange      EXHF   =         0.00000000
  -V(xc)+E(xc)   XCENC  =      3965.10501615
  PAW double counting   =     65303.12721459   -64814.42018710
  entropy T*S    EENTRO =        -1.89784252
  eigenvalues    EBANDS =     -3398.36061735
  atomic energy  EATOM  =     83209.17646865
  Solvation  Ediel_sol  =         0.00000000
  ---------------------------------------------------
  free energy    TOTEN  =      2652.03989044 eV

  energy without entropy =     2653.93773296  energy(sigma->0) =     2652.98881170


--------------------------------------------------------------------------------------------------------




--------------------------------------- Iteration      1(   4)  ---------------------------------------


     EDDAV:  cpu time    2.0197: real time    2.0350
       DOS:  cpu time    0.0007: real time    0.0007
    --------------------------------------------
      LOOP:  cpu time    2.0203: real time    2.0356

 eigenvalue-minimisations  :  2056
 total energy-change (2. order) :-0.3020173E+04  (-0.2823815E+04)
 number of electron    1088.0000000 magnetization 
 augmentation part     1088.0000000 magnetization 

[...]
   -.246E+01 0.367E+01 0.127E+01   0.251E+01 -.379E+01 -.955E+00   0.762E-02 -.496E-02 -.329E+00   0.246E-04 -.296E-04 -.109E-04
   0.183E+01 -.397E+01 -.727E+00   -.157E+01 0.353E+01 0.891E+00   -.241E+00 0.478E+00 -.152E+00   -.272E-04 0.695E-04 0.563E-04
   0.212E+01 -.663E+01 0.195E+01   -.183E+01 0.588E+01 -.158E+01   -.561E+00 0.115E+01 -.564E+00   -.324E-05 -.455E-04 -.623E-05
   -.384E+01 0.910E+01 -.426E+01   0.278E+01 -.845E+01 0.399E+01   0.106E+01 -.854E+00 0.112E+00   -.400E-04 -.517E-04 -.169E-04
   -.248E+01 -.297E+01 0.940E+00   0.256E+01 0.255E+01 -.378E+00   -.329E-01 0.449E+00 -.532E+00   0.623E-04 0.471E-04 0.368E-04
   -.302E+00 0.346E+00 -.204E+00   0.171E+00 -.452E+00 -.641E-01   0.104E+00 0.128E+00 0.259E+00   -.410E-04 0.311E-04 0.291E-04
   0.170E+01 -.286E+01 0.108E+02   -.133E+01 0.199E+01 -.993E+01   -.655E+00 0.105E+01 -.125E+01   0.398E-04 0.397E-04 0.832E-05
   0.847E+01 -.893E+01 0.327E+01   -.796E+01 0.846E+01 -.236E+01   -.276E+00 0.383E+00 -.917E+00   -.374E-05 -.318E-03 -.184E-03
   -.145E+01 -.119E+02 -.131E+01   0.127E+01 0.109E+02 0.140E+01   0.204E+00 0.865E+00 -.319E-01   0.156E-03 -.109E-03 0.277E-03
 -----------------------------------------------------------------------------------------------
   0.462E+01 -.935E+01 0.125E+00   0.349E-12 -.949E-12 -.893E-12   -.462E+01 0.935E+01 -.109E+00   -.568E-02 -.819E-02 -.197E-02
 
 
 POSITION                                       TOTAL-FORCE (eV/Angst)
 -----------------------------------------------------------------------------------
      1.28012      2.51707      3.62708         0.002118      0.088536      0.010949
     11.66944     10.44451      9.31805         0.011210      0.017291      0.007664
      5.16070     10.49312     10.15678         0.011029      0.001938     -0.041861
      7.79066      2.38674      2.96082         0.029154      0.000011      0.016414
     11.66450      9.14462      2.73883         0.006397      0.033322      0.013483
      1.24940      3.86697     10.18197        -0.064751     -0.032558      0.004188
      7.78505      4.02742      9.33752         0.018291     -0.013510     -0.010044
      5.27443      9.14735      3.61968         0.042181      0.034505      0.040206
      3.65355      1.30691      2.52099         0.011994      0.024670      0.006538
      9.32188     11.64551     10.45999         0.021598      0.017657     -0.004149
     10.15810      5.19959     10.48822         0.095860     -0.025208      0.030924
      2.91271      7.78320      2.57095         0.004660     -0.046554     -0.023342
      2.96331     11.62600      8.89637        -0.027411      0.001701      0.020316
     10.29972      1.37983      3.97802        -0.116102      0.098772      0.057522
      9.26145      7.73805      3.85942        -0.028850      0.019299     -0.003918
      3.59484      5.27771      9.08467         0.007943     -0.070507     -0.053332
      2.56832      3.71799      1.27397        -0.000529      0.004876      0.017988
     10.41608      9.19887     11.70963        -0.031018     -0.021680     -0.030724
     10.51441     10.00733      5.17055        -0.000034     -0.020280      0.014338
      2.49779      2.95909      7.76750        -0.014274     -0.025092     -0.014794
      9.02842      2.84635     11.66835        -0.012563     -0.002908      0.000423
      3.88874     10.13817      1.26608         0.049481     -0.013484      0.012427
      3.94040      9.13636      7.79558        -0.025352      0.024115     -0.016284
      8.96996      3.75990      5.13410         0.028236      0.030498     -0.028335
     12.31418      4.52692     12.64750         0.037305     -0.000953     -0.057825
      0.80675      8.37865      0.51102         0.065342     -0.047933      0.040015
      7.25410      8.37986      6.07680         0.028533      0.011611     -0.004691
      5.77975      4.57311      7.03529         0.029639     -0.021379     -0.008308
      5.74773      1.99994      0.41723         0.022012      0.014023     -0.012869
      7.10673     10.99003     12.47343         0.010431      0.011409      0.011431
      0.71489     11.01924      6.75016         0.027003      0.001067     -0.021317
     12.31665      1.95699      6.17038        -0.008459      0.033341     -0.001442
     11.03582      6.90673      0.74562         0.005097      0.002168      0.003885
      1.97033      6.00737     12.30357        -0.022743      0.016942     -0.094504
      1.94227      0.44029      5.74900        -0.005966      0.043256      0.021293
     11.00165     12.49139      7.16957        -0.042055      0.015686      0.017890
      8.42206      6.07961      7.18607         0.027863      0.013021     -0.000948
      4.45947      6.98558      5.83958        -0.027520     -0.018878      0.032274
      4.46511     12.54615     12.38546        -0.023978      0.058241     -0.095151
      8.36273      0.21135      0.82132         0.007556      0.005404      0.009314
      0.47973      5.83286      2.00588        -0.087069     -0.139565     -0.065392
     12.66590      7.27868     11.11248        -0.010806      0.006390      0.002777
      6.78719      0.65081     11.02367         0.008956     -0.020330     -0.017549
      5.95240     12.27609      1.96471        -0.026882     -0.001732     -0.048996
     12.40144     12.33713      4.48631        -0.003300      0.040251     -0.010464
      0.38147      0.73220      8.46170         0.019487      0.001865      0.000362
      6.06564      7.20412      8.50495         0.019380      0.004289      0.009646
      6.78463      5.85832      4.59198         0.003324      0.007157     -0.001344
      7.74714      9.08239     10.16652         0.011077      0.004307     -0.011797
      5.23866      3.77129      2.77470         0.035526      0.033085     -0.006960
     11.63003      4.02960      3.48104        -0.032437      0.059456      0.020867
      1.33310      8.98831      9.43275        -0.028884      0.003802      0.037463
      5.12969      2.53523      9.28056        -0.007688      0.026871     -0.016993
      7.77610     10.48506      3.57771         0.008024      0.046681      0.001187
      1.32985     10.43772      2.85457         0.083260      0.049631     -0.017436
     11.66220      2.48310     10.18719         0.018629      0.029530     -0.001638
     10.08065      7.69845      9.08861         0.008113     -0.013350      0.009607
      2.92588      5.24107      3.86707        -0.075382      0.019046     -0.083158
      3.65443     11.68535      3.99099         0.008180     -0.042174      0.041645
      9.44379      1.33583      8.87204         0.021767      0.010293     -0.005235
      9.26009      5.19785      2.50484         0.001246     -0.017023     -0.005465
      3.63616      7.76764     10.46428         0.011857     -0.038009     -0.063183
      2.81484      1.30117     10.47592        -0.038091     -0.017962     -0.007076
     10.26912     11.78706      2.71223        -0.020089     -0.002001      0.054025
      9.12007     10.06856      7.81270         0.027444      0.005919     -0.020001
      3.94266      2.86989      5.21299         0.048356      0.070785     -0.010573
      3.92475      3.71602     11.65411         0.007858      0.017722     -0.012750
      9.08621      9.33918      1.26852         0.044173      0.040570     -0.000686
      2.63879      9.17071      5.21688        -0.025300     -0.000482     -0.090121
     10.35722      3.77123      7.80963        -0.025324      0.032483     -0.000139
     10.43339      2.86830      1.22310        -0.013296      0.016065     -0.002708
      2.56906     10.12905     11.71160         0.079883      0.050373      0.012274
      5.75295     11.05054      6.12483         0.012111     -0.020992      0.030042
      7.07455      2.03506      6.84096         0.038365     -0.022812     -0.047812
      0.66682      1.92699     12.60922        -0.026189     -0.011917      0.053219
     12.30722     10.93631      0.46183        -0.073020     -0.035123     -0.021583
     12.25435      8.44589      6.82450         0.022838      0.021335      0.025347
      0.87344      4.61362      5.99517        -0.021467      0.010173     -0.141739
      7.10343      4.54457      0.26870         0.018856     -0.005007      0.034163
      5.73880      8.42645     12.46003        -0.001367     -0.028544     -0.021342
      4.52970      0.47717      7.13898        -0.029020     -0.000275      0.009251
      8.49364     12.70987      5.80915         0.001635      0.013585     -0.001625
      8.38421      6.91973     12.25687         0.011970     -0.014415      0.002276
      4.53217      6.01712      0.78287         0.027483     -0.003343     -0.001093
      1.95204     12.56862      0.79488         0.024051      0.014192     -0.081981
     11.02126      0.38190     12.29883        -0.003542     -0.004490     -0.021278
     11.08164      6.20895      5.65366        -0.008169      0.033865     -0.017383
      2.04551      7.02527      7.11853        -0.000138      0.020361     -0.026946
      7.00566     12.19569      8.43158         0.018724      0.032256     -0.003932
      5.98196      0.60516      4.55218        -0.011623     -0.047776     -0.001722
      0.46697      7.21780      4.42990        -0.025964     -0.005734      0.010084
     12.69461      5.71693      8.31040         0.003824     -0.035399     -0.009200
      6.00087      5.85473     10.97492         0.046541     -0.025462      0.039285
      6.80829      7.31343      1.91103         0.003344      0.024460      0.014068
     12.49114      0.61676      2.04723        -0.039799     -0.022074      0.068351
      0.44060     12.31306     11.08290         0.114145     -0.044208      0.020864
      1.64357      0.02852      3.29994        -0.004551     -0.010481     -0.013315
     11.30827     -0.01421      9.73561         0.022465      0.012117      0.007168
      4.82659      0.04300      9.69065         0.001884     -0.006715      0.003659
      8.02878      0.00635      3.24476        -0.023656      0.000017     -0.004810
     11.33673      6.43995      3.23734         0.064537      0.006699     -0.011372
      1.44289      6.57070      9.69408         0.016763     -0.011884      0.033607
      8.13810      6.47099      9.74715        -0.034398     -0.017233      0.007053
      4.95474      6.47029      3.19238         0.024152     -0.021575     -0.006121
      3.21504      1.67781     -0.01325        -0.010012      0.003567      0.023552
      9.68524     11.42081     -0.07773         0.002810     -0.005667     -0.005820
      9.69981      4.82354     -0.04392         0.031697      0.020381      0.002270
      3.22708      8.08292     -0.02426         0.025799     -0.070345      0.017299
      3.20477     11.36154      6.53103        -0.004598     -0.000144      0.001814
      9.76826      1.74447      6.50353         0.010641      0.019268     -0.007784
      9.75050      8.09098      6.52741        -0.003524     -0.009279      0.003350
      3.22768      4.85889      6.49519         0.006411      0.015831      0.013073
     -0.03619      3.25080      1.62408         0.024294     -0.007351      0.006184
      0.00396      9.73400     11.26827         0.007039     -0.012748      0.031075
     -0.03154      9.68733      4.89861         0.032689      0.008354     -0.022238
     -0.02242      3.31377      8.02800         0.026043      0.000620     -0.003942
      6.54490      3.16583     11.31653        -0.022964      0.003421      0.000715
      6.52984      9.72690      1.60989        -0.013316      0.019803     -0.032084
      6.55847      9.74598      8.04540        -0.022092     -0.002088      0.042422
      6.53044      3.30117      4.85612         0.001859      0.015840      0.017579
     -0.02365     -0.03875     -0.00030         0.062404     -0.005935      0.114635
      6.56963      0.02053      6.52624        -0.055231      0.013556     -0.002340
     -0.00786      6.51796      6.41453         0.062736      0.028970      0.029553
      6.46013      6.47121     -0.01224        -0.010655      0.015339     -0.021097
      9.70690      3.28667      3.12263         0.034315      0.019943      0.000658
      3.19847      9.75604      9.76705         0.039444     -0.015585      0.009673
      9.77587      9.67516      9.73297        -0.022187     -0.009433      0.019835
      3.23717      3.25347      3.26208        -0.021281      0.010530     -0.019088
      3.20112      3.24855      9.71231        -0.020918      0.016511      0.039041
      9.67047      9.69360      3.30995         0.035970      0.005305      0.010363
      3.34957      9.73270      3.22469        -0.027189     -0.017644      0.004464
      9.73545      3.21952      9.75356         0.010169     -0.006221     -0.006975
      6.49318      6.50594      6.56626        -0.042874     -0.006766      0.040956
     -0.00149      6.47907      0.01397         0.042349     -0.007907      0.037147
      6.48198      0.03788      0.01046        -0.095470     -0.013458     -0.033896
     -0.00317      0.00364      6.60284         0.008525     -0.041550     -0.098230
     10.93743      5.87712      8.83456         0.020213      0.021827      0.022511
      1.50797      4.10395     12.03888        -0.221603     -0.005369      0.011211
      2.33948      5.64335      1.77326         0.009022     -0.113310      0.357606
      5.51502      1.84000      2.26955        -0.007979      0.057525     -0.017166
      2.31411      7.30457      4.31881        -0.017906     -0.287007      0.009582
      8.60907      5.59079      4.34511        -0.026204     -0.002560     -0.031277
      4.67146     10.68810     12.15949        -0.216315      0.036658     -0.002259
      8.10913      8.81461     12.00046         0.043278     -0.000055     -0.031825
     11.36711      2.22856     12.08293         0.084500      0.012357     -0.003008
      4.10496      5.71233     10.90728         0.057020     -0.034902      0.000730
      5.50366      7.69692     10.57325         0.040390     -0.010666     -0.019725
      8.24432      4.27045      7.45626         0.112987      0.025701      0.031535
     11.24778      8.87673      0.90184        -0.038286      0.058992      0.025464
      8.95475     11.91852      7.65237        -0.033562      0.026109      0.008775
      1.44264      2.52382      5.51566         0.074080     -0.091522      0.015036
      5.52230     11.34488      4.26985        -0.016566     -0.014396      0.035392
      4.16470      1.01244      5.22815        -0.067133      0.052279      0.070804
      8.60667      7.00780      2.14681        -0.028985     -0.054582      0.046621
     11.99667     11.07625      2.30134        -0.045214     -0.029365     -0.001570
      4.90104      2.34332      7.30623        -0.144203      0.046478     -0.019883
      5.06495      4.08114      0.92860         0.088539      0.030346     -0.013182
     10.85688      7.22422     10.85417         0.037642     -0.031023     -0.133990
     10.20402     11.79422      5.53190        -0.087463     -0.040213      0.043720
      7.44988     11.44756     10.57849        -0.007804      0.085979      0.005657
      7.41631      7.73819      4.15500        -0.004509      0.026817      0.049679
     12.34360      2.68776      4.50524         0.132000      0.271322      0.128777
      0.86897      1.68967     10.67136        -0.036833      0.203495      0.055661
      4.20255      7.23303      8.71343        -0.015355     -0.100276      0.012680
      4.09796     12.00726      1.29088        -0.073283      0.009262     -0.180078
     11.19558     10.61146      7.43203        -0.098270     -0.011863      0.018827
      1.89546     10.70708      0.98631         0.262552      0.031258     -0.118808
      1.03925      7.64964      2.42601         0.026326     -0.103272      0.024789
      4.77614      0.03474      3.23299        -0.025782     -0.026241     -0.036229
      6.35908      9.69507     11.25489        -0.020856      0.033779      0.021075
      8.10018      0.38352      9.66837        -0.007335      0.047179     -0.022005
      9.69147      7.94690      0.04090         0.024056     -0.031674     -0.018141
      1.02228      5.32761      3.92225        -0.062076     -0.364389      0.336089
     10.05662      4.86293      6.30654         0.087843     -0.012739     -0.061669
      2.79073      1.28372      7.17527        -0.202840     -0.169253      0.295436
      7.00938      3.35575      1.63362         0.091379      0.015166      0.002692
      9.45100      1.57376      0.15081        -0.019061      0.012178      0.003193
      0.17107      9.58847      1.65140         0.110393      0.004847      0.024057
      3.31948      4.89882     -0.04750        -0.069423     -0.002056      0.044970
      6.56577      3.15013      8.27166         0.064966     -0.127376     -0.011771
      0.22001      9.58881      8.08545         0.017907      0.036568      0.010998
     -0.45984      3.93866     10.93202        -0.268713      0.388121     -0.191524
      5.50678      5.29687      9.01087         0.001713     -0.201525     -0.161863
      6.60542      9.71525      5.00413         0.051146      0.025491      0.029490
      1.60217     -0.24772      9.56561        -0.026879      0.022039     -0.008871
      2.66354     11.92475     -0.86699        -0.286867      0.182609     -0.396759
     11.32016      0.15698      3.29602         0.233997     -0.088854     -0.007381
      3.28120      8.14494      6.49825         0.020364     -0.134995      0.052748
 -----------------------------------------------------------------------------------
    total drift:                               -0.005775     -0.011664      0.014306


--------------------------------------------------------------------------------------------------------



  FREE ENERGIE OF THE ION-ELECTRON SYSTEM (eV)
  ---------------------------------------------------
  free  energy   TOTEN  =     -1365.81487741 eV

  energy  without entropy=    -1365.81487741  energy(sigma->0) =    -1365.81487741
 
 d Force = 0.3761627E+00[ 0.336E+00, 0.416E+00]  d Energy = 0.3779781E+00-0.182E-02
 d Force = 0.2830759E+01[ 0.220E+01, 0.346E+01]  d Ewald  = 0.2840836E+01-0.101E-01


--------------------------------------------------------------------------------------------------------


    POTLOK:  cpu time    0.0741: real time    0.0747


--------------------------------------------------------------------------------------------------------


 Quasi-Newton relaxation of ions (Broydens 2nd method)
  g(Force)  = 0.116E+00   g(Stress)= 0.000E+00

 retain information from N=  2 steps
 eigenvalues of (default step * inverse Hessian matrix)
  average eigenvalue of G=   3.5257
 eigenvalue spectrum of G is  3.5257  3.5257


--------------------------------------------------------------------------------------------------------


     LOOP+:  cpu time   31.7521: real time   32.0087
    4ORBIT:  cpu time    0.0000: real time    0.0000

 total amount of memory used by VASP MPI-rank0    47917. kBytes
=======================================================================

   base      :      30000. kBytes
   nonlr-proj:       4725. kBytes
   fftplans  :       3250. kBytes
   grid      :       7798. kBytes
   one-center:        245. kBytes
   wavefun   :       1899. kBytes
 
  
  
 General timing and accounting informations for this job:
 ========================================================
  
                  Total CPU time used (sec):      752.226
                            User time (sec):      750.152
                          System time (sec):        2.074
                         Elapsed time (sec):      759.403
  
                   Maximum memory used (kb):      345236.
                   Average memory used (kb):           0.
  
                          Minor page faults:       189968
                          Major page faults:            0
                 Voluntary context switches:         9129
