<?xml version="1.0" encoding="ISO-8859-1"?>
<modeling>
 <generator>
  <i name="program" type="string">vasp </i>
  <i name="version" type="string">5.4.4.18Apr17-6-g9f103f2a35  </i>
  <i name="subversion" type="string">(build May 01 2020 14:22:42) gamma-only         parallel </i>
  <i name="platform" type="string">LinuxIFC </i>
  <i name="date" type="string">2022 02 09 </i>
  <i name="time" type="string">13:21:21 </i>
 </generator>
 <incar>
  <i type="string" name="PREC">accurate</i>
  <i type="int" name="IBRION">     1</i>
  <i name="EDIFF">      0.00000100</i>
  <i name="EDIFFG">     -0.01000000</i>
  <i type="int" name="NSW">    20</i>
  <i type="int" name="ISIF">     2</i>
  <i type="int" name="ISYM">     0</i>
  <i name="ENCUT">    500.00000000</i>
  <i type="string" name="LREAL"> Auto</i>
  <i type="int" name="ISMEAR">     0</i>
  <i name="SIGMA">      0.20000000</i>
  <i type="logical" name="LWAVE"> F  </i>
  <i type="logical" name="LCHARG"> F  </i>
  <v type="int" name="KPOINT_BSE">    -1     0     0     0</v>
 </incar>
 <structure name="primitive_cell" >
  <crystal>
   <varray name="basis" >
    <v>      12.96520042       0.00000000       0.00000000 </v>
    <v>       0.00000000      12.96500015       0.00000000 </v>
    <v>       0.00000000       0.00000000      12.96500015 </v>
   </varray>
   <i name="volume">   2179.33647298 </i>
   <varray name="rec_basis" >
    <v>       0.07712954       0.00000000       0.00000000 </v>
    <v>       0.00000000       0.07713074       0.00000000 </v>
    <v>       0.00000000       0.00000000       0.07713074 </v>
   </varray>
  </crystal>
  <varray name="positions" >
   <v>       0.10000000       0.19560000       0.28160000 </v>
   <v>       0.25000000       0.25000000       0.25000000 </v>
   <v>       0.15090001       0.17600000       0.43770000 </v>
   <v>       0.00000000       0.25000000       0.12500000 </v>
   <v>       0.12500000       0.00000000       0.25000000 </v>
   <v>      -0.07400000       0.09910000       0.31230000 </v>
   <v>       0.19560000       0.28160000       0.10000000 </v>
   <v>       0.28160000       0.10000000       0.19560000 </v>
   <v>      -0.10000002       0.30440000       0.28160000 </v>
   <v>      -0.03160000       0.05440000       0.15000001 </v>
   <v>       0.15000001       0.03160000       0.44560000 </v>
   <v>       0.21840000       0.40000001       0.30440000 </v>
   <v>       0.30440000       0.21840000       0.40000001 </v>
   <v>       0.05440000       0.34999999       0.46840000 </v>
   <v>      -0.05439997       0.15000001       0.46840000 </v>
   <v>       0.31230000       0.07400000       0.40090001 </v>
   <v>       0.25000000       0.12500000      -0.50000000 </v>
   <v>       0.03160000       0.44560000       0.15000001 </v>
   <v>      -0.03160000      -0.05439997       0.34999999 </v>
   <v>      -0.12500000       0.00000000       0.25000000 </v>
   <v>       0.18770000       0.42600000       0.09910000 </v>
   <v>       0.12500000      -0.50000000       0.25000000 </v>
   <v>       0.00000000       0.00000000      -0.50000000 </v>
   <v>       0.05440000       0.15000001      -0.03160000 </v>
   <v>       0.25000000       0.37500000      -0.50000000 </v>
   <v>       0.15000001      -0.03160000       0.05440000 </v>
   <v>       0.40000001       0.30440000       0.21840000 </v>
   <v>       0.25000000       0.12500000       0.00000000 </v>
   <v>       0.19560000       0.21840000      -0.39999998 </v>
   <v>      -0.21840000       0.10000000       0.30440000 </v>
   <v>       0.37500000       0.00000000       0.25000000 </v>
   <v>       0.28160000      -0.10000002       0.30440000 </v>
   <v>      -0.19560003       0.21840000       0.10000000 </v>
   <v>       0.42600000       0.09910000       0.18770000 </v>
   <v>      -0.07400000      -0.09909999       0.18770000 </v>
   <v>      -0.25000000       0.25000000       0.25000000 </v>
   <v>       0.34909999       0.32400000       0.06230000 </v>
   <v>       0.00000000       0.00000000       0.00000000 </v>
   <v>       0.00000000       0.25000000      -0.37500000 </v>
   <v>       0.32400000      -0.06229997       0.15090001 </v>
   <v>       0.25000000       0.37500000       0.00000000 </v>
   <v>       0.15090001       0.32400000      -0.06229997 </v>
   <v>       0.03160000      -0.44560003       0.34999999 </v>
   <v>      -0.12500000      -0.50000000       0.25000000 </v>
   <v>      -0.05439997       0.34999999      -0.03160000 </v>
   <v>       0.00000000      -0.50000000      -0.50000000 </v>
   <v>       0.10000000      -0.19560003       0.21840000 </v>
   <v>       0.03160000       0.05440000      -0.35000002 </v>
   <v>       0.46840000       0.05440000       0.34999999 </v>
   <v>       0.34999999       0.03160000      -0.44560003 </v>
   <v>      -0.14999998       0.46840000       0.44560000 </v>
   <v>       0.18770000      -0.42600000       0.40090001 </v>
   <v>      -0.09909999       0.18770000      -0.07400000 </v>
   <v>       0.37500000      -0.50000000       0.25000000 </v>
   <v>      -0.18770003      -0.07400000       0.40090001 </v>
   <v>      -0.50000000       0.25000000       0.37500000 </v>
   <v>       0.25000000      -0.12500000      -0.50000000 </v>
   <v>      -0.25000000       0.12500000      -0.50000000 </v>
   <v>       0.40090001       0.18770000      -0.42600000 </v>
   <v>       0.00000000       0.25000000      -0.12500000 </v>
   <v>       0.00000000      -0.50000000       0.00000000 </v>
   <v>       0.05440000      -0.14999998      -0.46840000 </v>
   <v>       0.44560000       0.15000001       0.03160000 </v>
   <v>       0.21840000      -0.39999998       0.19560000 </v>
   <v>      -0.30439997       0.28160000       0.40000001 </v>
   <v>      -0.50000000       0.25000000       0.12500000 </v>
   <v>      -0.14999998      -0.03160000      -0.44560003 </v>
   <v>       0.34999999       0.46840000       0.05440000 </v>
   <v>       0.15000001       0.46840000      -0.05439997 </v>
   <v>       0.15000001      -0.46840000      -0.44560003 </v>
   <v>       0.09910000      -0.18770003       0.07400000 </v>
   <v>       0.42600000      -0.09909999       0.31230000 </v>
   <v>       0.30440000       0.28160000      -0.10000002 </v>
   <v>      -0.28160000       0.40000001       0.19560000 </v>
   <v>      -0.19560003       0.28160000      -0.39999998 </v>
   <v>      -0.21840000      -0.10000002       0.19560000 </v>
   <v>      -0.14999998       0.03160000      -0.05439997 </v>
   <v>       0.34999999      -0.46840000       0.44560000 </v>
   <v>      -0.25000000       0.37500000      -0.50000000 </v>
   <v>       0.25000000      -0.12500000       0.00000000 </v>
   <v>      -0.05439997      -0.14999998       0.03160000 </v>
   <v>       0.44560000       0.34999999      -0.46840000 </v>
   <v>      -0.25000000       0.12500000       0.00000000 </v>
   <v>      -0.03160000       0.44560000      -0.35000002 </v>
   <v>       0.46840000      -0.05439997       0.15000001 </v>
   <v>       0.00000000      -0.25000000       0.37500000 </v>
   <v>       0.06230000      -0.34909999       0.17600000 </v>
   <v>       0.25000000      -0.25000000       0.25000000 </v>
   <v>       0.34999999      -0.03160000      -0.05439997 </v>
   <v>      -0.14999998      -0.46840000       0.05440000 </v>
   <v>       0.07400000       0.09910000      -0.18770003 </v>
   <v>       0.00000000      -0.25000000       0.12500000 </v>
   <v>      -0.25000000       0.37500000       0.00000000 </v>
   <v>      -0.32400000       0.43770000       0.34909999 </v>
   <v>       0.25000000       0.25000000      -0.25000000 </v>
   <v>      -0.50000000       0.00000000      -0.50000000 </v>
   <v>       0.28160000       0.40000001      -0.30439997 </v>
   <v>       0.30440000      -0.21840000       0.10000000 </v>
   <v>       0.19560000      -0.28160000       0.40000001 </v>
   <v>       0.21840000       0.10000000      -0.19560003 </v>
   <v>       0.03160000      -0.05439997      -0.14999998 </v>
   <v>      -0.46840000       0.44560000       0.34999999 </v>
   <v>      -0.39999998       0.19560000       0.21840000 </v>
   <v>       0.25000000      -0.37500000      -0.50000000 </v>
   <v>       0.12500000       0.00000000      -0.25000000 </v>
   <v>       0.10000000       0.30440000      -0.21840000 </v>
   <v>      -0.37500000       0.00000000       0.25000000 </v>
   <v>       0.05440000      -0.35000002       0.03160000 </v>
   <v>      -0.44560003       0.15000001      -0.46840000 </v>
   <v>      -0.17600000       0.43770000      -0.34909999 </v>
   <v>      -0.09909999      -0.18770003      -0.42600000 </v>
   <v>       0.21840000      -0.10000002      -0.30439997 </v>
   <v>      -0.19560003      -0.21840000       0.40000001 </v>
   <v>       0.44560000      -0.14999998       0.46840000 </v>
   <v>      -0.50000000       0.00000000       0.00000000 </v>
   <v>       0.40000001       0.19560000      -0.28160000 </v>
   <v>      -0.50000000       0.25000000      -0.37500000 </v>
   <v>      -0.35000002       0.03160000       0.05440000 </v>
   <v>      -0.35000002      -0.03160000       0.44560000 </v>
   <v>       0.25000000      -0.37500000       0.00000000 </v>
   <v>       0.31230000      -0.42600000      -0.40090001 </v>
   <v>      -0.10000002       0.19560000      -0.21840000 </v>
   <v>      -0.05439997      -0.35000002      -0.46840000 </v>
   <v>      -0.44560003       0.34999999       0.03160000 </v>
   <v>      -0.10000002      -0.30439997       0.21840000 </v>
   <v>       0.32400000       0.43770000      -0.15090001 </v>
   <v>      -0.50000000      -0.50000000      -0.50000000 </v>
   <v>      -0.25000000      -0.12500000       0.00000000 </v>
   <v>      -0.12500000       0.00000000      -0.25000000 </v>
   <v>      -0.28160000      -0.39999998       0.30440000 </v>
   <v>      -0.30439997       0.21840000      -0.10000002 </v>
   <v>       0.12500000      -0.50000000      -0.25000000 </v>
   <v>       0.34909999      -0.17600000      -0.06229997 </v>
   <v>      -0.25000000      -0.25000000       0.25000000 </v>
   <v>      -0.09909999      -0.31229997       0.07400000 </v>
   <v>       0.19560000      -0.21840000      -0.10000002 </v>
   <v>      -0.28160000       0.10000000      -0.30439997 </v>
   <v>       0.00000000      -0.25000000      -0.37500000 </v>
   <v>      -0.50000000       0.25000000      -0.12500000 </v>
   <v>      -0.32400000      -0.43770003       0.15090001 </v>
   <v>      -0.50000000      -0.50000000       0.00000000 </v>
   <v>      -0.03160000      -0.44560003      -0.14999998 </v>
   <v>      -0.46840000      -0.44560003       0.15000001 </v>
   <v>       0.37500000       0.00000000      -0.25000000 </v>
   <v>       0.40000001      -0.30439997       0.28160000 </v>
   <v>      -0.31229997      -0.07400000      -0.40090001 </v>
   <v>      -0.25000000       0.25000000      -0.25000000 </v>
   <v>      -0.40090001       0.31230000      -0.42600000 </v>
   <v>      -0.35000002       0.46840000      -0.44560003 </v>
   <v>      -0.25000000      -0.37500000      -0.50000000 </v>
   <v>      -0.50000000      -0.25000000       0.37500000 </v>
   <v>       0.30440000      -0.28160000      -0.39999998 </v>
   <v>      -0.21840000       0.40000001      -0.19560003 </v>
   <v>      -0.18770003      -0.42600000      -0.09909999 </v>
   <v>       0.00000000      -0.25000000      -0.12500000 </v>
   <v>      -0.50000000      -0.25000000       0.12500000 </v>
   <v>      -0.10000002      -0.19560003      -0.28160000 </v>
   <v>       0.46840000       0.44560000      -0.14999998 </v>
   <v>      -0.46840000      -0.05439997      -0.35000002 </v>
   <v>      -0.25000000      -0.37500000       0.00000000 </v>
   <v>       0.37500000      -0.50000000      -0.25000000 </v>
   <v>      -0.42600000      -0.40090001       0.31230000 </v>
   <v>      -0.46840000       0.05440000      -0.14999998 </v>
   <v>       0.46840000      -0.44560003      -0.35000002 </v>
   <v>      -0.39999998      -0.19560003       0.28160000 </v>
   <v>       0.44560000      -0.35000002      -0.03160000 </v>
   <v>      -0.44560003      -0.14999998      -0.03160000 </v>
   <v>       0.28160000      -0.39999998      -0.19560003 </v>
   <v>      -0.30439997      -0.28160000       0.10000000 </v>
   <v>      -0.35000002      -0.46840000      -0.05439997 </v>
   <v>      -0.21840000      -0.39999998      -0.30439997 </v>
   <v>      -0.30439997      -0.21840000      -0.39999998 </v>
   <v>       0.25000000      -0.25000000      -0.25000000 </v>
   <v>       0.10000000      -0.30439997      -0.28160000 </v>
   <v>      -0.44560003      -0.35000002       0.46840000 </v>
   <v>      -0.39999998       0.30440000      -0.28160000 </v>
   <v>      -0.19560003      -0.28160000      -0.10000002 </v>
   <v>      -0.28160000      -0.10000002      -0.19560003 </v>
   <v>      -0.50000000      -0.25000000      -0.37500000 </v>
   <v>      -0.37500000       0.00000000      -0.25000000 </v>
   <v>       0.42600000      -0.40090001      -0.18770003 </v>
   <v>       0.40000001      -0.19560003      -0.21840000 </v>
   <v>      -0.50000000      -0.25000000      -0.12500000 </v>
   <v>      -0.37500000      -0.50000000      -0.25000000 </v>
   <v>      -0.25000000      -0.25000000      -0.25000000 </v>
   <v>      -0.43770003      -0.15090001      -0.17600000 </v>
   <v>      -0.40090001      -0.31229997      -0.07400000 </v>
   <v>      -0.39999998      -0.30439997      -0.21840000 </v>
  </varray>
 </structure>
 <varray name="primitive_index" >
  <v type="int" >        1 </v>
  <v type="int" >      128 </v>
  <v type="int" >      151 </v>
  <v type="int" >      113 </v>
  <v type="int" >       97 </v>
  <v type="int" >      162 </v>
  <v type="int" >       17 </v>
  <v type="int" >        9 </v>
  <v type="int" >       51 </v>
  <v type="int" >       95 </v>
  <v type="int" >       35 </v>
  <v type="int" >       58 </v>
  <v type="int" >       66 </v>
  <v type="int" >       78 </v>
  <v type="int" >       32 </v>
  <v type="int" >      153 </v>
  <v type="int" >      175 </v>
  <v type="int" >       41 </v>
  <v type="int" >       45 </v>
  <v type="int" >      187 </v>
  <v type="int" >      139 </v>
  <v type="int" >      173 </v>
  <v type="int" >      136 </v>
  <v type="int" >       75 </v>
  <v type="int" >      112 </v>
  <v type="int" >       85 </v>
  <v type="int" >       50 </v>
  <v type="int" >      105 </v>
  <v type="int" >       20 </v>
  <v type="int" >       14 </v>
  <v type="int" >      169 </v>
  <v type="int" >       59 </v>
  <v type="int" >       71 </v>
  <v type="int" >      140 </v>
  <v type="int" >      155 </v>
  <v type="int" >      125 </v>
  <v type="int" >      157 </v>
  <v type="int" >      121 </v>
  <v type="int" >      116 </v>
  <v type="int" >      165 </v>
  <v type="int" >      179 </v>
  <v type="int" >      138 </v>
  <v type="int" >       91 </v>
  <v type="int" >      101 </v>
  <v type="int" >       25 </v>
  <v type="int" >      123 </v>
  <v type="int" >       55 </v>
  <v type="int" >       46 </v>
  <v type="int" >       90 </v>
  <v type="int" >       81 </v>
  <v type="int" >       87 </v>
  <v type="int" >      141 </v>
  <v type="int" >      145 </v>
  <v type="int" >      104 </v>
  <v type="int" >      159 </v>
  <v type="int" >      120 </v>
  <v type="int" >      109 </v>
  <v type="int" >      110 </v>
  <v type="int" >      156 </v>
  <v type="int" >      182 </v>
  <v type="int" >      134 </v>
  <v type="int" >       31 </v>
  <v type="int" >       29 </v>
  <v type="int" >       12 </v>
  <v type="int" >       24 </v>
  <v type="int" >      176 </v>
  <v type="int" >       36 </v>
  <v type="int" >       84 </v>
  <v type="int" >       34 </v>
  <v type="int" >       88 </v>
  <v type="int" >      167 </v>
  <v type="int" >      152 </v>
  <v type="int" >       67 </v>
  <v type="int" >       61 </v>
  <v type="int" >       70 </v>
  <v type="int" >       64 </v>
  <v type="int" >       86 </v>
  <v type="int" >       38 </v>
  <v type="int" >      174 </v>
  <v type="int" >      186 </v>
  <v type="int" >       76 </v>
  <v type="int" >       28 </v>
  <v type="int" >      177 </v>
  <v type="int" >       92 </v>
  <v type="int" >       44 </v>
  <v type="int" >      115 </v>
  <v type="int" >      168 </v>
  <v type="int" >      131 </v>
  <v type="int" >       39 </v>
  <v type="int" >       33 </v>
  <v type="int" >      163 </v>
  <v type="int" >      178 </v>
  <v type="int" >      107 </v>
  <v type="int" >      142 </v>
  <v type="int" >      129 </v>
  <v type="int" >      122 </v>
  <v type="int" >       16 </v>
  <v type="int" >       22 </v>
  <v type="int" >       69 </v>
  <v type="int" >       63 </v>
  <v type="int" >       96 </v>
  <v type="int" >       48 </v>
  <v type="int" >        4 </v>
  <v type="int" >      188 </v>
  <v type="int" >      185 </v>
  <v type="int" >        6 </v>
  <v type="int" >      100 </v>
  <v type="int" >       26 </v>
  <v type="int" >       74 </v>
  <v type="int" >      137 </v>
  <v type="int" >      166 </v>
  <v type="int" >       13 </v>
  <v type="int" >       19 </v>
  <v type="int" >       73 </v>
  <v type="int" >      135 </v>
  <v type="int" >       53 </v>
  <v type="int" >      180 </v>
  <v type="int" >       40 </v>
  <v type="int" >       82 </v>
  <v type="int" >      108 </v>
  <v type="int" >      164 </v>
  <v type="int" >       56 </v>
  <v type="int" >       77 </v>
  <v type="int" >       79 </v>
  <v type="int" >        5 </v>
  <v type="int" >      146 </v>
  <v type="int" >      133 </v>
  <v type="int" >      106 </v>
  <v type="int" >       98 </v>
  <v type="int" >       15 </v>
  <v type="int" >       21 </v>
  <v type="int" >      102 </v>
  <v type="int" >      143 </v>
  <v type="int" >      130 </v>
  <v type="int" >      149 </v>
  <v type="int" >       72 </v>
  <v type="int" >       60 </v>
  <v type="int" >      181 </v>
  <v type="int" >      117 </v>
  <v type="int" >      154 </v>
  <v type="int" >      124 </v>
  <v type="int" >       42 </v>
  <v type="int" >       94 </v>
  <v type="int" >       99 </v>
  <v type="int" >        8 </v>
  <v type="int" >      150 </v>
  <v type="int" >      132 </v>
  <v type="int" >      148 </v>
  <v type="int" >       37 </v>
  <v type="int" >      111 </v>
  <v type="int" >      184 </v>
  <v type="int" >       23 </v>
  <v type="int" >       11 </v>
  <v type="int" >      158 </v>
  <v type="int" >      114 </v>
  <v type="int" >      118 </v>
  <v type="int" >        2 </v>
  <v type="int" >       93 </v>
  <v type="int" >       89 </v>
  <v type="int" >      172 </v>
  <v type="int" >      183 </v>
  <v type="int" >      161 </v>
  <v type="int" >       43 </v>
  <v type="int" >       47 </v>
  <v type="int" >       54 </v>
  <v type="int" >       80 </v>
  <v type="int" >       30 </v>
  <v type="int" >       62 </v>
  <v type="int" >       68 </v>
  <v type="int" >       83 </v>
  <v type="int" >       57 </v>
  <v type="int" >       65 </v>
  <v type="int" >      126 </v>
  <v type="int" >       52 </v>
  <v type="int" >       27 </v>
  <v type="int" >        7 </v>
  <v type="int" >       18 </v>
  <v type="int" >       10 </v>
  <v type="int" >      119 </v>
  <v type="int" >      171 </v>
  <v type="int" >      147 </v>
  <v type="int" >        3 </v>
  <v type="int" >      170 </v>
  <v type="int" >      103 </v>
  <v type="int" >      127 </v>
  <v type="int" >      160 </v>
  <v type="int" >      144 </v>
  <v type="int" >       49 </v>
 </varray>
 <kpoints>
  <generation param="Gamma">
   <v type="int" name="divisions">       1        1        1 </v>
   <v name="usershift">      0.00000000       0.00000000       0.00000000 </v>
   <v name="genvec1">      1.00000000       0.00000000       0.00000000 </v>
   <v name="genvec2">      0.00000000       1.00000000       0.00000000 </v>
   <v name="genvec3">      0.00000000       0.00000000       1.00000000 </v>
   <v name="shift">      0.00000000       0.00000000       0.00000000 </v>
  </generation>
  <varray name="kpointlist" >
   <v>       0.00000000       0.00000000       0.00000000 </v>
  </varray>
  <varray name="weights" >
   <v>       1.00000000 </v>
  </varray>
 </kpoints>
 <parameters>
  <separator name="general" >
   <i type="string" name="SYSTEM">unknown system</i>
   <i type="logical" name="LCOMPAT"> F  </i>
  </separator>
  <separator name="electronic" >
   <i type="string" name="PREC">accura</i>
   <i name="ENMAX">    500.00000000</i>
   <i name="ENAUG">    605.39200000</i>
   <i name="EDIFF">      0.00000100</i>
   <i type="int" name="IALGO">    38</i>
   <i type="int" name="IWAVPR">    11</i>
   <i type="int" name="NBANDS">   656</i>
   <i name="NELECT">   1088.00000000</i>
   <i type="int" name="TURBO">     0</i>
   <i type="int" name="IRESTART">     0</i>
   <i type="int" name="NREBOOT">     0</i>
   <i type="int" name="NMIN">     0</i>
   <i name="EREF">      0.00000000</i>
   <separator name="electronic smearing" >
    <i type="int" name="ISMEAR">     0</i>
    <i name="SIGMA">      0.20000000</i>
    <i name="KSPACING">      0.50000000</i>
    <i type="logical" name="KGAMMA"> T  </i>
   </separator>
   <separator name="electronic projectors" >
    <i type="logical" name="LREAL"> T  </i>
    <v name="ROPT">     -0.00025000     -0.00025000     -0.00025000     -0.00025000     -0.00025000</v>
    <i type="int" name="LMAXPAW">  -100</i>
    <i type="int" name="LMAXMIX">     2</i>
    <i type="logical" name="NLSPLINE"> F  </i>
   </separator>
   <separator name="electronic startup" >
    <i type="int" name="ISTART">     0</i>
    <i type="int" name="ICHARG">     2</i>
    <i type="int" name="INIWAV">     1</i>
   </separator>
   <separator name="electronic spin" >
    <i type="int" name="ISPIN">     1</i>
    <i type="logical" name="LNONCOLLINEAR"> F  </i>
    <v name="MAGMOM">      1.00000000      1.00000000      1.00000000      1.00000000      1.00000000      1.00000000      1.00000000      1.00000000      1.00000000      1.00000000      1.00000000      1.00000000      1.00000000      1.00000000      1.00000000      1.00000000      1.00000000      1.00000000      1.00000000      1.00000000
      1.00000000      1.00000000      1.00000000      1.00000000      1.00000000      1.00000000      1.00000000      1.00000000      1.00000000      1.00000000      1.00000000      1.00000000      1.00000000      1.00000000      1.00000000      1.00000000      1.00000000      1.00000000      1.00000000      1.00000000
      1.00000000      1.00000000      1.00000000      1.00000000      1.00000000      1.00000000      1.00000000      1.00000000      1.00000000      1.00000000      1.00000000      1.00000000      1.00000000      1.00000000      1.00000000      1.00000000      1.00000000      1.00000000      1.00000000      1.00000000
      1.00000000      1.00000000      1.00000000      1.00000000      1.00000000      1.00000000      1.00000000      1.00000000      1.00000000      1.00000000      1.00000000      1.00000000      1.00000000      1.00000000      1.00000000      1.00000000      1.00000000      1.00000000      1.00000000      1.00000000
      1.00000000      1.00000000      1.00000000      1.00000000      1.00000000      1.00000000      1.00000000      1.00000000      1.00000000      1.00000000      1.00000000      1.00000000      1.00000000      1.00000000      1.00000000      1.00000000      1.00000000      1.00000000      1.00000000      1.00000000
      1.00000000      1.00000000      1.00000000      1.00000000      1.00000000      1.00000000      1.00000000      1.00000000      1.00000000      1.00000000      1.00000000      1.00000000      1.00000000      1.00000000      1.00000000      1.00000000      1.00000000      1.00000000      1.00000000      1.00000000
      1.00000000      1.00000000      1.00000000      1.00000000      1.00000000      1.00000000      1.00000000      1.00000000      1.00000000      1.00000000      1.00000000      1.00000000      1.00000000      1.00000000      1.00000000      1.00000000      1.00000000      1.00000000      1.00000000      1.00000000
      1.00000000      1.00000000      1.00000000      1.00000000      1.00000000      1.00000000      1.00000000      1.00000000      1.00000000      1.00000000      1.00000000      1.00000000      1.00000000      1.00000000      1.00000000      1.00000000      1.00000000      1.00000000      1.00000000      1.00000000
      1.00000000      1.00000000      1.00000000      1.00000000      1.00000000      1.00000000      1.00000000      1.00000000      1.00000000      1.00000000      1.00000000      1.00000000      1.00000000      1.00000000      1.00000000      1.00000000      1.00000000      1.00000000      1.00000000      1.00000000
      1.00000000      1.00000000      1.00000000      1.00000000      1.00000000      1.00000000      1.00000000      1.00000000</v>
    <i name="NUPDOWN">     -1.00000000</i>
    <i type="logical" name="LSORBIT"> F  </i>
    <v name="SAXIS">      0.00000000      0.00000000      1.00000000</v>
    <i type="logical" name="LSPIRAL"> F  </i>
    <v name="QSPIRAL">      0.00000000      0.00000000      0.00000000</v>
    <i type="logical" name="LZEROZ"> F  </i>
   </separator>
   <separator name="electronic exchange-correlation" >
    <i type="logical" name="LASPH"> F  </i>
    <i type="logical" name="LMETAGGA"> F  </i>
   </separator>
   <separator name="electronic convergence" >
    <i type="int" name="NELM">    60</i>
    <i type="int" name="NELMDL">     0</i>
    <i type="int" name="NELMIN">     2</i>
    <i name="ENINI">    500.00000000</i>
    <separator name="electronic convergence detail" >
     <i type="logical" name="LDIAG"> T  </i>
     <i type="logical" name="LSUBROT"> F  </i>
     <i name="WEIMIN">      0.00100000</i>
     <i name="EBREAK">      0.00000000</i>
     <i name="DEPER">      0.30000000</i>
     <i type="int" name="NRMM">     4</i>
     <i name="TIME">      0.40000000</i>
    </separator>
   </separator>
   <separator name="electronic mixer" >
    <i name="AMIX">      0.40000000</i>
    <i name="BMIX">      1.00000000</i>
    <i name="AMIN">      0.10000000</i>
    <i name="AMIX_MAG">      1.60000000</i>
    <i name="BMIX_MAG">      1.00000000</i>
    <separator name="electronic mixer details" >
     <i type="int" name="IMIX">     4</i>
     <i type="logical" name="MIXFIRST"> F  </i>
     <i type="int" name="MAXMIX">   -45</i>
     <i name="WC">    100.00000000</i>
     <i type="int" name="INIMIX">     1</i>
     <i type="int" name="MIXPRE">     1</i>
     <i type="int" name="MREMOVE">     5</i>
    </separator>
   </separator>
   <separator name="electronic dipolcorrection" >
    <i type="logical" name="LDIPOL"> F  </i>
    <i type="logical" name="LMONO"> F  </i>
    <i type="int" name="IDIPOL">     0</i>
    <i name="EPSILON">      1.00000000</i>
    <v name="DIPOL">   -100.00000000   -100.00000000   -100.00000000</v>
    <i name="EFIELD">      0.00000000</i>
   </separator>
  </separator>
  <separator name="grids" >
   <i type="int" name="NGX">    96</i>
   <i type="int" name="NGY">    96</i>
   <i type="int" name="NGZ">    96</i>
   <i type="int" name="NGXF">   192</i>
   <i type="int" name="NGYF">   192</i>
   <i type="int" name="NGZF">   192</i>
   <i type="logical" name="ADDGRID"> F  </i>
  </separator>
  <separator name="ionic" >
   <i type="int" name="NSW">    20</i>
   <i type="int" name="IBRION">     1</i>
   <i type="int" name="MDALGO">     0</i>
   <i type="int" name="ISIF">     2</i>
   <i name="PSTRESS">      0.00000000</i>
   <i name="EDIFFG">     -0.01000000</i>
   <i type="int" name="NFREE">     0</i>
   <i name="POTIM">      0.50000000</i>
   <i name="SMASS">     -3.00000000</i>
   <i name="SCALEE">      1.00000000</i>
  </separator>
  <separator name="ionic md" >
   <i name="TEBEG">      0.00010000</i>
   <i name="TEEND">      0.00010000</i>
   <i type="int" name="NBLOCK">     1</i>
   <i type="int" name="KBLOCK">    20</i>
   <i type="int" name="NPACO">   256</i>
   <i name="APACO">     16.00000000</i>
  </separator>
  <separator name="symmetry" >
   <i type="int" name="ISYM">     0</i>
   <i name="SYMPREC">      0.00001000</i>
  </separator>
  <separator name="dos" >
   <i type="int" name="LORBIT">     0</i>
   <v name="RWIGS">     -1.00000000     -1.00000000     -1.00000000     -1.00000000     -1.00000000</v>
   <i type="int" name="NEDOS">   301</i>
   <i name="EMIN">     10.00000000</i>
   <i name="EMAX">    -10.00000000</i>
   <i name="EFERMI">      0.00000000</i>
  </separator>
  <separator name="writing" >
   <i type="int" name="NWRITE">     2</i>
   <i type="logical" name="LWAVE"> F  </i>
   <i type="logical" name="LDOWNSAMPLE"> F  </i>
   <i type="logical" name="LCHARG"> F  </i>
   <i type="logical" name="LPARD"> F  </i>
   <i type="logical" name="LVTOT"> F  </i>
   <i type="logical" name="LVHAR"> F  </i>
   <i type="logical" name="LELF"> F  </i>
   <i type="logical" name="LOPTICS"> F  </i>
   <v name="STM">      0.00000000      0.00000000      0.00000000      0.00000000      0.00000000      0.00000000      0.00000000</v>
  </separator>
  <separator name="performance" >
   <i type="int" name="NPAR">     8</i>
   <i type="int" name="NSIM">     4</i>
   <i type="int" name="NBLK">    -1</i>
   <i type="logical" name="LPLANE"> T  </i>
   <i type="logical" name="LSCALAPACK"> T  </i>
   <i type="logical" name="LSCAAWARE"> T  </i>
   <i type="logical" name="LSCALU"> F  </i>
   <i type="logical" name="LASYNC"> F  </i>
   <i type="logical" name="LORBITALREAL"> F  </i>
  </separator>
  <separator name="miscellaneous" >
   <i type="int" name="IDIOT">     3</i>
   <i type="int" name="ISPECIAL">     0</i>
   <i type="logical" name="LMUSIC"> F  </i>
   <v name="POMASS">     16.00000000    138.90000000     91.22400000      7.01000000     26.98100000</v>
   <v name="DARWINR">      0.00000000      0.00000000      0.00000000      0.00000000      0.00000000</v>
   <v name="DARWINV">      1.00000000      1.00000000      1.00000000      1.00000000      1.00000000</v>
   <i type="logical" name="LCORR"> T  </i>
  </separator>
  <i type="logical" name="GGA_COMPAT"> T  </i>
  <i type="logical" name="LBERRY"> F  </i>
  <i type="int" name="ICORELEVEL">     0</i>
  <i type="logical" name="LDAU"> F  </i>
  <i type="int" name="I_CONSTRAINED_M">     0</i>
  <separator name="electronic exchange-correlation" >
   <i type="string" name="GGA">--</i>
   <i type="int" name="VOSKOWN">     0</i>
   <i type="logical" name="LHFCALC"> F  </i>
   <i type="string" name="PRECFOCK"></i>
   <i type="logical" name="LSYMGRAD"> F  </i>
   <i type="logical" name="LHFONE"> F  </i>
   <i type="logical" name="LRHFCALC"> F  </i>
   <i type="logical" name="LTHOMAS"> F  </i>
   <i type="logical" name="LMODELHF"> F  </i>
   <i name="ENCUT4O">     -1.00000000</i>
   <i type="int" name="EXXOEP">     0</i>
   <i type="int" name="FOURORBIT">     0</i>
   <i name="AEXX">      0.00000000</i>
   <i name="HFALPHA">      0.00000000</i>
   <i name="MCALPHA">      0.00000000</i>
   <i name="ALDAX">      1.00000000</i>
   <i name="AGGAX">      1.00000000</i>
   <i name="ALDAC">      1.00000000</i>
   <i name="AGGAC">      1.00000000</i>
   <i type="int" name="NKREDX">     1</i>
   <i type="int" name="NKREDY">     1</i>
   <i type="int" name="NKREDZ">     1</i>
   <i type="logical" name="SHIFTRED"> F  </i>
   <i type="logical" name="ODDONLY"> F  </i>
   <i type="logical" name="EVENONLY"> F  </i>
   <i type="int" name="LMAXFOCK">     0</i>
   <i type="int" name="NMAXFOCKAE">     0</i>
   <i type="logical" name="LFOCKAEDFT"> F  </i>
   <i name="HFSCREEN">      0.00000000</i>
   <i name="HFSCREENC">      0.00000000</i>
   <i type="int" name="NBANDSGWLOW">     0</i>
  </separator>
  <separator name="vdW DFT" >
   <i type="logical" name="LUSE_VDW"> F  </i>
   <i name="Zab_VDW">     -0.84910000</i>
   <i name="PARAM1">      0.12340000</i>
   <i name="PARAM2">      1.00000000</i>
   <i name="PARAM3">      0.00000000</i>
  </separator>
  <separator name="model GW" >
   <i type="int" name="MODEL_GW">     0</i>
   <i name="MODEL_EPS0">      6.95532917</i>
   <i name="MODEL_ALPHA">      1.00000000</i>
  </separator>
  <separator name="linear response parameters" >
   <i type="logical" name="LEPSILON"> F  </i>
   <i type="logical" name="LRPA"> F  </i>
   <i type="logical" name="LNABLA"> F  </i>
   <i type="logical" name="LVEL"> F  </i>
   <i type="int" name="KINTER">     0</i>
   <i name="CSHIFT">      0.10000000</i>
   <i name="OMEGAMAX">     -1.00000000</i>
   <i name="DEG_THRESHOLD">      0.00200000</i>
   <i name="RTIME">     -0.10000000</i>
   <i name="WPLASMAI">      0.00000000</i>
   <v name="DFIELD">      0.00000000      0.00000000      0.00000000</v>
   <v name="WPLASMA">      0.00000000      0.00000000      0.00000000      0.00000000      0.00000000      0.00000000      0.00000000      0.00000000      0.00000000</v>
  </separator>
  <separator name="orbital magnetization" >
   <i type="logical" name="NUCIND"> F  </i>
   <v name="MAGPOS">      0.00000000      0.00000000      0.00000000</v>
   <i type="logical" name="LNICSALL"> T  </i>
   <i type="logical" name="ORBITALMAG"> F  </i>
   <i type="logical" name="LMAGBLOCH"> F  </i>
   <i type="logical" name="LCHIMAG"> F  </i>
   <i type="logical" name="LGAUGE"> T  </i>
   <i type="int" name="MAGATOM">     0</i>
   <v name="MAGDIPOL">      0.00000000      0.00000000      0.00000000</v>
   <v name="AVECCONST">      0.00000000      0.00000000      0.00000000</v>
  </separator>
  <separator name="response functions" >
   <i type="logical" name="LADDER"> F  </i>
   <i type="logical" name="LRPAFORCE"> F  </i>
   <i type="logical" name="LFXC"> F  </i>
   <i type="logical" name="LHARTREE"> T  </i>
   <i type="int" name="IBSE">     0</i>
   <v type="int" name="KPOINT">    -1     0     0     0</v>
   <i type="logical" name="LTCTE"> F  </i>
   <i type="logical" name="LTETE"> F  </i>
   <i type="logical" name="LTRIPLET"> F  </i>
   <i type="logical" name="LFXCEPS"> F  </i>
   <i type="logical" name="LFXHEG"> F  </i>
   <i type="int" name="NATURALO">     2</i>
   <i type="logical" name="L2ORDER"> F  </i>
   <i type="logical" name="LMP2LT"> F  </i>
   <i type="logical" name="LUSEW"> F  </i>
   <i name="ENCUTGW">     -2.00000000</i>
   <i name="ENCUTGWSOFT">     -2.00000000</i>
   <i name="ENCUTLF">     -1.00000000</i>
   <i type="int" name="LMAXMP2">    -1</i>
   <i name="SCISSOR">      0.00000000</i>
   <i type="int" name="NOMEGA">     0</i>
   <i type="int" name="NOMEGAR">     0</i>
   <i type="int" name="NBANDSGW">    -1</i>
   <i type="int" name="NBANDSO">    -1</i>
   <i type="int" name="NBANDSV">    -1</i>
   <i type="int" name="NELM">     1</i>
   <i type="int" name="NELMHF">     1</i>
   <i type="int" name="DIM">     3</i>
   <i type="int" name="ANTIRES">     0</i>
   <i name="OMEGAMAX">    -30.00000000</i>
   <i name="OMEGAMIN">    -30.00000000</i>
   <i name="OMEGATL">   -200.00000000</i>
   <i type="int" name="OMEGAGRID">   140</i>
   <i name="CSHIFT">     -0.10000000</i>
   <i type="logical" name="SELFENERGY"> F  </i>
   <i type="logical" name="LSPECTRAL"> F  </i>
   <i type="logical" name="LSPECTRALGW"> F  </i>
   <i type="logical" name="LSINGLES"> F  </i>
   <i type="logical" name="LFERMIGW"> F  </i>
   <i type="logical" name="ODDONLYGW"> F  </i>
   <i type="logical" name="EVENONLYGW"> F  </i>
   <i type="int" name="NKREDLFX">     1</i>
   <i type="int" name="NKREDLFY">     1</i>
   <i type="int" name="NKREDLFZ">     1</i>
   <i type="int" name="MAXMEM">  2800</i>
   <i type="int" name="TELESCOPE">     0</i>
   <i type="int" name="TAUPAR">     1</i>
   <i type="int" name="OMEGAPAR">    -1</i>
   <i name="LAMBDA">      1.00000000</i>
  </separator>
  <separator name="External order field" >
   <i name="OFIELD_KAPPA">      0.00000000</i>
   <v name="OFIELD_K">      0.00000000      0.00000000      0.00000000</v>
   <i name="OFIELD_Q6_NEAR">      0.00000000</i>
   <i name="OFIELD_Q6_FAR">      0.00000000</i>
   <i name="OFIELD_A">      0.00000000</i>
  </separator>
 </parameters>
 <atominfo>
  <atoms>     188 </atoms>
  <types>       5 </types>
  <array name="atoms" >
   <dimension dim="1">ion</dimension>
   <field type="string">element</field>
   <field type="int">atomtype</field>
   <set>
    <rc><c>O </c><c>   1</c></rc>
    <rc><c>O </c><c>   1</c></rc>
    <rc><c>O </c><c>   1</c></rc>
    <rc><c>O </c><c>   1</c></rc>
    <rc><c>O </c><c>   1</c></rc>
    <rc><c>O </c><c>   1</c></rc>
    <rc><c>O </c><c>   1</c></rc>
    <rc><c>O </c><c>   1</c></rc>
    <rc><c>O </c><c>   1</c></rc>
    <rc><c>O </c><c>   1</c></rc>
    <rc><c>O </c><c>   1</c></rc>
    <rc><c>O </c><c>   1</c></rc>
    <rc><c>O </c><c>   1</c></rc>
    <rc><c>O </c><c>   1</c></rc>
    <rc><c>O </c><c>   1</c></rc>
    <rc><c>O </c><c>   1</c></rc>
    <rc><c>O </c><c>   1</c></rc>
    <rc><c>O </c><c>   1</c></rc>
    <rc><c>O </c><c>   1</c></rc>
    <rc><c>O </c><c>   1</c></rc>
    <rc><c>O </c><c>   1</c></rc>
    <rc><c>O </c><c>   1</c></rc>
    <rc><c>O </c><c>   1</c></rc>
    <rc><c>O </c><c>   1</c></rc>
    <rc><c>O </c><c>   1</c></rc>
    <rc><c>O </c><c>   1</c></rc>
    <rc><c>O </c><c>   1</c></rc>
    <rc><c>O </c><c>   1</c></rc>
    <rc><c>O </c><c>   1</c></rc>
    <rc><c>O </c><c>   1</c></rc>
    <rc><c>O </c><c>   1</c></rc>
    <rc><c>O </c><c>   1</c></rc>
    <rc><c>O </c><c>   1</c></rc>
    <rc><c>O </c><c>   1</c></rc>
    <rc><c>O </c><c>   1</c></rc>
    <rc><c>O </c><c>   1</c></rc>
    <rc><c>O </c><c>   1</c></rc>
    <rc><c>O </c><c>   1</c></rc>
    <rc><c>O </c><c>   1</c></rc>
    <rc><c>O </c><c>   1</c></rc>
    <rc><c>O </c><c>   1</c></rc>
    <rc><c>O </c><c>   1</c></rc>
    <rc><c>O </c><c>   1</c></rc>
    <rc><c>O </c><c>   1</c></rc>
    <rc><c>O </c><c>   1</c></rc>
    <rc><c>O </c><c>   1</c></rc>
    <rc><c>O </c><c>   1</c></rc>
    <rc><c>O </c><c>   1</c></rc>
    <rc><c>O </c><c>   1</c></rc>
    <rc><c>O </c><c>   1</c></rc>
    <rc><c>O </c><c>   1</c></rc>
    <rc><c>O </c><c>   1</c></rc>
    <rc><c>O </c><c>   1</c></rc>
    <rc><c>O </c><c>   1</c></rc>
    <rc><c>O </c><c>   1</c></rc>
    <rc><c>O </c><c>   1</c></rc>
    <rc><c>O </c><c>   1</c></rc>
    <rc><c>O </c><c>   1</c></rc>
    <rc><c>O </c><c>   1</c></rc>
    <rc><c>O </c><c>   1</c></rc>
    <rc><c>O </c><c>   1</c></rc>
    <rc><c>O </c><c>   1</c></rc>
    <rc><c>O </c><c>   1</c></rc>
    <rc><c>O </c><c>   1</c></rc>
    <rc><c>O </c><c>   1</c></rc>
    <rc><c>O </c><c>   1</c></rc>
    <rc><c>O </c><c>   1</c></rc>
    <rc><c>O </c><c>   1</c></rc>
    <rc><c>O </c><c>   1</c></rc>
    <rc><c>O </c><c>   1</c></rc>
    <rc><c>O </c><c>   1</c></rc>
    <rc><c>O </c><c>   1</c></rc>
    <rc><c>O </c><c>   1</c></rc>
    <rc><c>O </c><c>   1</c></rc>
    <rc><c>O </c><c>   1</c></rc>
    <rc><c>O </c><c>   1</c></rc>
    <rc><c>O </c><c>   1</c></rc>
    <rc><c>O </c><c>   1</c></rc>
    <rc><c>O </c><c>   1</c></rc>
    <rc><c>O </c><c>   1</c></rc>
    <rc><c>O </c><c>   1</c></rc>
    <rc><c>O </c><c>   1</c></rc>
    <rc><c>O </c><c>   1</c></rc>
    <rc><c>O </c><c>   1</c></rc>
    <rc><c>O </c><c>   1</c></rc>
    <rc><c>O </c><c>   1</c></rc>
    <rc><c>O </c><c>   1</c></rc>
    <rc><c>O </c><c>   1</c></rc>
    <rc><c>O </c><c>   1</c></rc>
    <rc><c>O </c><c>   1</c></rc>
    <rc><c>O </c><c>   1</c></rc>
    <rc><c>O </c><c>   1</c></rc>
    <rc><c>O </c><c>   1</c></rc>
    <rc><c>O </c><c>   1</c></rc>
    <rc><c>O </c><c>   1</c></rc>
    <rc><c>O </c><c>   1</c></rc>
    <rc><c>La</c><c>   2</c></rc>
    <rc><c>La</c><c>   2</c></rc>
    <rc><c>La</c><c>   2</c></rc>
    <rc><c>La</c><c>   2</c></rc>
    <rc><c>La</c><c>   2</c></rc>
    <rc><c>La</c><c>   2</c></rc>
    <rc><c>La</c><c>   2</c></rc>
    <rc><c>La</c><c>   2</c></rc>
    <rc><c>La</c><c>   2</c></rc>
    <rc><c>La</c><c>   2</c></rc>
    <rc><c>La</c><c>   2</c></rc>
    <rc><c>La</c><c>   2</c></rc>
    <rc><c>La</c><c>   2</c></rc>
    <rc><c>La</c><c>   2</c></rc>
    <rc><c>La</c><c>   2</c></rc>
    <rc><c>La</c><c>   2</c></rc>
    <rc><c>La</c><c>   2</c></rc>
    <rc><c>La</c><c>   2</c></rc>
    <rc><c>La</c><c>   2</c></rc>
    <rc><c>La</c><c>   2</c></rc>
    <rc><c>La</c><c>   2</c></rc>
    <rc><c>La</c><c>   2</c></rc>
    <rc><c>La</c><c>   2</c></rc>
    <rc><c>La</c><c>   2</c></rc>
    <rc><c>Zr</c><c>   3</c></rc>
    <rc><c>Zr</c><c>   3</c></rc>
    <rc><c>Zr</c><c>   3</c></rc>
    <rc><c>Zr</c><c>   3</c></rc>
    <rc><c>Zr</c><c>   3</c></rc>
    <rc><c>Zr</c><c>   3</c></rc>
    <rc><c>Zr</c><c>   3</c></rc>
    <rc><c>Zr</c><c>   3</c></rc>
    <rc><c>Zr</c><c>   3</c></rc>
    <rc><c>Zr</c><c>   3</c></rc>
    <rc><c>Zr</c><c>   3</c></rc>
    <rc><c>Zr</c><c>   3</c></rc>
    <rc><c>Zr</c><c>   3</c></rc>
    <rc><c>Zr</c><c>   3</c></rc>
    <rc><c>Zr</c><c>   3</c></rc>
    <rc><c>Zr</c><c>   3</c></rc>
    <rc><c>Li</c><c>   4</c></rc>
    <rc><c>Li</c><c>   4</c></rc>
    <rc><c>Li</c><c>   4</c></rc>
    <rc><c>Li</c><c>   4</c></rc>
    <rc><c>Li</c><c>   4</c></rc>
    <rc><c>Li</c><c>   4</c></rc>
    <rc><c>Li</c><c>   4</c></rc>
    <rc><c>Li</c><c>   4</c></rc>
    <rc><c>Li</c><c>   4</c></rc>
    <rc><c>Li</c><c>   4</c></rc>
    <rc><c>Li</c><c>   4</c></rc>
    <rc><c>Li</c><c>   4</c></rc>
    <rc><c>Li</c><c>   4</c></rc>
    <rc><c>Li</c><c>   4</c></rc>
    <rc><c>Li</c><c>   4</c></rc>
    <rc><c>Li</c><c>   4</c></rc>
    <rc><c>Li</c><c>   4</c></rc>
    <rc><c>Li</c><c>   4</c></rc>
    <rc><c>Li</c><c>   4</c></rc>
    <rc><c>Li</c><c>   4</c></rc>
    <rc><c>Li</c><c>   4</c></rc>
    <rc><c>Li</c><c>   4</c></rc>
    <rc><c>Li</c><c>   4</c></rc>
    <rc><c>Li</c><c>   4</c></rc>
    <rc><c>Li</c><c>   4</c></rc>
    <rc><c>Li</c><c>   4</c></rc>
    <rc><c>Li</c><c>   4</c></rc>
    <rc><c>Li</c><c>   4</c></rc>
    <rc><c>Li</c><c>   4</c></rc>
    <rc><c>Li</c><c>   4</c></rc>
    <rc><c>Li</c><c>   4</c></rc>
    <rc><c>Li</c><c>   4</c></rc>
    <rc><c>Li</c><c>   4</c></rc>
    <rc><c>Li</c><c>   4</c></rc>
    <rc><c>Li</c><c>   4</c></rc>
    <rc><c>Li</c><c>   4</c></rc>
    <rc><c>Li</c><c>   4</c></rc>
    <rc><c>Li</c><c>   4</c></rc>
    <rc><c>Li</c><c>   4</c></rc>
    <rc><c>Li</c><c>   4</c></rc>
    <rc><c>Li</c><c>   4</c></rc>
    <rc><c>Li</c><c>   4</c></rc>
    <rc><c>Li</c><c>   4</c></rc>
    <rc><c>Li</c><c>   4</c></rc>
    <rc><c>Li</c><c>   4</c></rc>
    <rc><c>Li</c><c>   4</c></rc>
    <rc><c>Li</c><c>   4</c></rc>
    <rc><c>Li</c><c>   4</c></rc>
    <rc><c>Li</c><c>   4</c></rc>
    <rc><c>Li</c><c>   4</c></rc>
    <rc><c>Al</c><c>   5</c></rc>
    <rc><c>Al</c><c>   5</c></rc>
   </set>
  </array>
  <array name="atomtypes" >
   <dimension dim="1">type</dimension>
   <field type="int">atomspertype</field>
   <field type="string">element</field>
   <field>mass</field>
   <field>valence</field>
   <field type="string">pseudopotential</field>
   <set>
    <rc><c>  96</c><c>O </c><c>     16.00000000</c><c>      6.00000000</c><c>  PAW_PBE O 08Apr2002                   </c></rc>
    <rc><c>  24</c><c>La</c><c>    138.90000000</c><c>     11.00000000</c><c>  PAW_PBE La 06Sep2000                  </c></rc>
    <rc><c>  16</c><c>Zr</c><c>     91.22400000</c><c>     12.00000000</c><c>  PAW_PBE Zr_sv 04Jan2005               </c></rc>
    <rc><c>  50</c><c>Li</c><c>      7.01000000</c><c>      1.00000000</c><c>  PAW_PBE Li 17Jan2003                  </c></rc>
    <rc><c>   2</c><c>Al</c><c>     26.98100000</c><c>      3.00000000</c><c>  PAW_PBE Al 04Jan2001                  </c></rc>
   </set>
  </array>
 </atominfo>
 <structure name="initialpos" >
  <crystal>
   <varray name="basis" >
    <v>      12.96520042       0.00000000       0.00000000 </v>
    <v>       0.00000000      12.96500015       0.00000000 </v>
    <v>       0.00000000       0.00000000      12.96500015 </v>
   </varray>
   <i name="volume">   2179.33647298 </i>
   <varray name="rec_basis" >
    <v>       0.07712954       0.00000000       0.00000000 </v>
    <v>       0.00000000       0.07713074       0.00000000 </v>
    <v>       0.00000000       0.00000000       0.07713074 </v>
   </varray>
  </crystal>
  <varray name="positions" >
   <v>       0.10000000       0.19560000       0.28160000 </v>
   <v>       0.89999998       0.80439997       0.71840000 </v>
   <v>       0.40000001       0.80439997       0.78160000 </v>
   <v>       0.60000002       0.19560000       0.21840000 </v>
   <v>       0.89999998       0.69560003       0.21840000 </v>
   <v>       0.10000000       0.30440000       0.78160000 </v>
   <v>       0.60000002       0.30440000       0.71840000 </v>
   <v>       0.40000001       0.69560003       0.28160000 </v>
   <v>       0.28160000       0.10000000       0.19560000 </v>
   <v>       0.71840000       0.89999998       0.80439997 </v>
   <v>       0.78160000       0.40000001       0.80439997 </v>
   <v>       0.21840000       0.60000002       0.19560000 </v>
   <v>       0.21840000       0.89999998       0.69560003 </v>
   <v>       0.78160000       0.10000000       0.30440000 </v>
   <v>       0.71840000       0.60000002       0.30440000 </v>
   <v>       0.28160000       0.40000001       0.69560003 </v>
   <v>       0.19560000       0.28160000       0.10000000 </v>
   <v>       0.80439997       0.71840000       0.89999998 </v>
   <v>       0.80439997       0.78160000       0.40000001 </v>
   <v>       0.19560000       0.21840000       0.60000002 </v>
   <v>       0.69560003       0.21840000       0.89999998 </v>
   <v>       0.30440000       0.78160000       0.10000000 </v>
   <v>       0.30440000       0.71840000       0.60000002 </v>
   <v>       0.69560003       0.28160000       0.40000001 </v>
   <v>       0.94560003       0.34999999       0.96840000 </v>
   <v>       0.05440000       0.64999998       0.03160000 </v>
   <v>       0.55439997       0.64999998       0.46840000 </v>
   <v>       0.44560000       0.34999999       0.53160000 </v>
   <v>       0.44560000       0.15000001       0.03160000 </v>
   <v>       0.55439997       0.85000002       0.96840000 </v>
   <v>       0.05440000       0.85000002       0.53160000 </v>
   <v>       0.94560003       0.15000001       0.46840000 </v>
   <v>       0.85000002       0.53160000       0.05440000 </v>
   <v>       0.15000001       0.46840000       0.94560003 </v>
   <v>       0.15000001       0.03160000       0.44560000 </v>
   <v>       0.85000002       0.96840000       0.55439997 </v>
   <v>       0.64999998       0.46840000       0.55439997 </v>
   <v>       0.34999999       0.53160000       0.44560000 </v>
   <v>       0.34999999       0.96840000       0.94560003 </v>
   <v>       0.64999998       0.03160000       0.05440000 </v>
   <v>       0.03160000       0.44560000       0.15000001 </v>
   <v>       0.96840000       0.55439997       0.85000002 </v>
   <v>       0.53160000       0.05440000       0.85000002 </v>
   <v>       0.46840000       0.94560003       0.15000001 </v>
   <v>       0.96840000       0.94560003       0.34999999 </v>
   <v>       0.03160000       0.05440000       0.64999998 </v>
   <v>       0.46840000       0.55439997       0.64999998 </v>
   <v>       0.53160000       0.44560000       0.34999999 </v>
   <v>       0.60000002       0.69560003       0.78160000 </v>
   <v>       0.40000001       0.30440000       0.21840000 </v>
   <v>       0.89999998       0.30440000       0.28160000 </v>
   <v>       0.10000000       0.69560003       0.71840000 </v>
   <v>       0.40000001       0.19560000       0.71840000 </v>
   <v>       0.60000002       0.80439997       0.28160000 </v>
   <v>       0.10000000       0.80439997       0.21840000 </v>
   <v>       0.89999998       0.19560000       0.78160000 </v>
   <v>       0.78160000       0.60000002       0.69560003 </v>
   <v>       0.21840000       0.40000001       0.30440000 </v>
   <v>       0.28160000       0.89999998       0.30440000 </v>
   <v>       0.71840000       0.10000000       0.69560003 </v>
   <v>       0.71840000       0.40000001       0.19560000 </v>
   <v>       0.28160000       0.60000002       0.80439997 </v>
   <v>       0.21840000       0.10000000       0.80439997 </v>
   <v>       0.78160000       0.89999998       0.19560000 </v>
   <v>       0.69560003       0.78160000       0.60000002 </v>
   <v>       0.30440000       0.21840000       0.40000001 </v>
   <v>       0.30440000       0.28160000       0.89999998 </v>
   <v>       0.69560003       0.71840000       0.10000000 </v>
   <v>       0.19560000       0.71840000       0.40000001 </v>
   <v>       0.80439997       0.28160000       0.60000002 </v>
   <v>       0.80439997       0.21840000       0.10000000 </v>
   <v>       0.19560000       0.78160000       0.89999998 </v>
   <v>       0.44560000       0.85000002       0.46840000 </v>
   <v>       0.55439997       0.15000001       0.53160000 </v>
   <v>       0.05440000       0.15000001       0.96840000 </v>
   <v>       0.94560003       0.85000002       0.03160000 </v>
   <v>       0.94560003       0.64999998       0.53160000 </v>
   <v>       0.05440000       0.34999999       0.46840000 </v>
   <v>       0.55439997       0.34999999       0.03160000 </v>
   <v>       0.44560000       0.64999998       0.96840000 </v>
   <v>       0.34999999       0.03160000       0.55439997 </v>
   <v>       0.64999998       0.96840000       0.44560000 </v>
   <v>       0.64999998       0.53160000       0.94560003 </v>
   <v>       0.34999999       0.46840000       0.05440000 </v>
   <v>       0.15000001       0.96840000       0.05440000 </v>
   <v>       0.85000002       0.03160000       0.94560003 </v>
   <v>       0.85000002       0.46840000       0.44560000 </v>
   <v>       0.15000001       0.53160000       0.55439997 </v>
   <v>       0.53160000       0.94560003       0.64999998 </v>
   <v>       0.46840000       0.05440000       0.34999999 </v>
   <v>       0.03160000       0.55439997       0.34999999 </v>
   <v>       0.96840000       0.44560000       0.64999998 </v>
   <v>       0.46840000       0.44560000       0.85000002 </v>
   <v>       0.53160000       0.55439997       0.15000001 </v>
   <v>       0.96840000       0.05440000       0.15000001 </v>
   <v>       0.03160000       0.94560003       0.85000002 </v>
   <v>       0.12500000       0.00000000       0.25000000 </v>
   <v>       0.87500000       0.00000000       0.75000000 </v>
   <v>       0.37500000       0.00000000       0.75000000 </v>
   <v>       0.62500000       0.00000000       0.25000000 </v>
   <v>       0.87500000       0.50000000       0.25000000 </v>
   <v>       0.12500000       0.50000000       0.75000000 </v>
   <v>       0.62500000       0.50000000       0.75000000 </v>
   <v>       0.37500000       0.50000000       0.25000000 </v>
   <v>       0.25000000       0.12500000       0.00000000 </v>
   <v>       0.75000000       0.87500000       0.00000000 </v>
   <v>       0.75000000       0.37500000       0.00000000 </v>
   <v>       0.25000000       0.62500000       0.00000000 </v>
   <v>       0.25000000       0.87500000       0.50000000 </v>
   <v>       0.75000000       0.12500000       0.50000000 </v>
   <v>       0.75000000       0.62500000       0.50000000 </v>
   <v>       0.25000000       0.37500000       0.50000000 </v>
   <v>       0.00000000       0.25000000       0.12500000 </v>
   <v>       0.00000000       0.75000000       0.87500000 </v>
   <v>       0.00000000       0.75000000       0.37500000 </v>
   <v>       0.00000000       0.25000000       0.62500000 </v>
   <v>       0.50000000       0.25000000       0.87500000 </v>
   <v>       0.50000000       0.75000000       0.12500000 </v>
   <v>       0.50000000       0.75000000       0.62500000 </v>
   <v>       0.50000000       0.25000000       0.37500000 </v>
   <v>       0.00000000       0.00000000       0.00000000 </v>
   <v>       0.50000000       0.00000000       0.50000000 </v>
   <v>       0.00000000       0.50000000       0.50000000 </v>
   <v>       0.50000000       0.50000000       0.00000000 </v>
   <v>       0.75000000       0.25000000       0.25000000 </v>
   <v>       0.25000000       0.75000000       0.75000000 </v>
   <v>       0.75000000       0.75000000       0.75000000 </v>
   <v>       0.25000000       0.25000000       0.25000000 </v>
   <v>       0.25000000       0.25000000       0.75000000 </v>
   <v>       0.75000000       0.75000000       0.25000000 </v>
   <v>       0.25000000       0.75000000       0.25000000 </v>
   <v>       0.75000000       0.25000000       0.75000000 </v>
   <v>       0.50000000       0.50000000       0.50000000 </v>
   <v>       0.00000000       0.50000000       0.00000000 </v>
   <v>       0.50000000       0.00000000       0.00000000 </v>
   <v>       0.00000000       0.00000000       0.50000000 </v>
   <v>       0.82400000       0.43770000       0.65090001 </v>
   <v>       0.15090001       0.32400000       0.93770003 </v>
   <v>       0.18770000       0.42600000       0.09910000 </v>
   <v>       0.42600000       0.09910000       0.18770000 </v>
   <v>       0.18770000       0.57400000       0.40090001 </v>
   <v>       0.67600000       0.43770000       0.34909999 </v>
   <v>       0.34909999       0.82400000       0.93770003 </v>
   <v>       0.59909999       0.68770003       0.92600000 </v>
   <v>       0.90090001       0.18770000       0.92600000 </v>
   <v>       0.32400000       0.43770000       0.84909999 </v>
   <v>       0.42600000       0.59909999       0.81229997 </v>
   <v>       0.59909999       0.31230000       0.57400000 </v>
   <v>       0.90090001       0.68770003       0.07400000 </v>
   <v>       0.68770003       0.92600000       0.59909999 </v>
   <v>       0.15090001       0.17600000       0.43770000 </v>
   <v>       0.42600000       0.90090001       0.31230000 </v>
   <v>       0.31230000       0.07400000       0.40090001 </v>
   <v>       0.67600000       0.56229997       0.15090001 </v>
   <v>       0.92600000       0.90090001       0.18770000 </v>
   <v>       0.40090001       0.18770000       0.57400000 </v>
   <v>       0.34909999       0.32400000       0.06230000 </v>
   <v>       0.81229997       0.57400000       0.90090001 </v>
   <v>       0.81229997       0.92600000       0.40090001 </v>
   <v>       0.56229997       0.84909999       0.82400000 </v>
   <v>       0.57400000       0.59909999       0.31230000 </v>
   <v>       0.92600000       0.09910000       0.31230000 </v>
   <v>       0.07400000       0.09910000       0.81229997 </v>
   <v>       0.31230000       0.57400000       0.59909999 </v>
   <v>       0.32400000       0.93770003       0.15090001 </v>
   <v>       0.90090001       0.81229997       0.57400000 </v>
   <v>       0.09910000       0.81229997       0.07400000 </v>
   <v>       0.06230000       0.65090001       0.17600000 </v>
   <v>       0.37500000       0.00000000       0.25000000 </v>
   <v>       0.50000000       0.75000000       0.87500000 </v>
   <v>       0.62500000       0.00000000       0.75000000 </v>
   <v>       0.75000000       0.62500000       0.00000000 </v>
   <v>       0.12500000       0.50000000       0.25000000 </v>
   <v>       0.75000000       0.37500000       0.50000000 </v>
   <v>       0.25000000       0.12500000       0.50000000 </v>
   <v>       0.50000000       0.25000000       0.12500000 </v>
   <v>       0.75000000       0.12500000       0.00000000 </v>
   <v>       0.00000000       0.75000000       0.12500000 </v>
   <v>       0.25000000       0.37500000       0.00000000 </v>
   <v>       0.50000000       0.25000000       0.62500000 </v>
   <v>       0.00000000       0.75000000       0.62500000 </v>
   <v>       0.00000000       0.25000000       0.87500000 </v>
   <v>       0.37500000       0.50000000       0.75000000 </v>
   <v>       0.50000000       0.75000000       0.37500000 </v>
   <v>       0.12500000       0.00000000       0.75000000 </v>
   <v>       0.25000000       0.87500000       0.00000000 </v>
   <v>       0.87500000       0.00000000       0.25000000 </v>
   <v>       0.25000000       0.62500000       0.50000000 </v>
  </varray>
 </structure>
 <calculation>
  <scstep>
   <time name="dav">    1.72    1.73</time>
   <time name="total">    1.80    1.81</time>
   <energy>
    <i name="alphaZ">   3513.07897605 </i>
    <i name="ewald"> -65645.77103230 </i>
    <i name="hartreedc"> -19477.99810572 </i>
    <i name="XCdc">   3965.10501615 </i>
    <i name="pawpsdc">  65303.12721459 </i>
    <i name="pawaedc"> -64814.42018710 </i>
    <i name="eentropy">     -0.17537888 </i>
    <i name="bandstr">  19215.03284804 </i>
    <i name="atom">  83209.17646865 </i>
    <i name="e_fr_energy">  25267.15581947 </i>
    <i name="e_wo_entrp">  25267.33119834 </i>
    <i name="e_0_energy">  25267.24350891 </i>
   </energy>
  </scstep>
  <scstep>
   <time name="dav">    1.58    1.59</time>
   <time name="total">    1.58    1.59</time>
   <energy>
    <i name="e_fr_energy">   9430.84854708 </i>
    <i name="e_wo_entrp">   9431.39838348 </i>
    <i name="e_0_energy">   9431.12346528 </i>
   </energy>
  </scstep>
  <scstep>
   <time name="dav">    1.79    1.80</time>
   <time name="total">    1.79    1.80</time>
   <energy>
    <i name="e_fr_energy">   2652.03989044 </i>
    <i name="e_wo_entrp">   2653.93773296 </i>
    <i name="e_0_energy">   2652.98881170 </i>
   </energy>
  </scstep>
  <scstep>
   <time name="dav">    2.02    2.03</time>
   <time name="total">    2.02    2.04</time>
   <energy>
    <i name="e_fr_energy">   -368.13337029 </i>
    <i name="e_wo_entrp">   -366.50932474 </i>
    <i name="e_0_energy">   -367.32134751 </i>
   </energy>
  </scstep>
  <scstep>
   <time name="dav">    2.48    2.52</time>
   <time name="total">    2.53    2.57</time>
   <energy>
    <i name="e_fr_energy">  -1399.82024694 </i>
    <i name="e_wo_entrp">  -1399.82024694 </i>
    <i name="e_0_energy">  -1399.82024694 </i>
   </energy>
  </scstep>
  <scstep>
   <time name="dav">    2.29    2.31</time>
   <time name="total">    2.42    2.44</time>
   <energy>
    <i name="e_fr_energy">  -1294.38919553 </i>
    <i name="e_wo_entrp">  -1294.38919553 </i>
    <i name="e_0_energy">  -1294.38919553 </i>
   </energy>
  </scstep>
  <scstep>
   <time name="dav">    2.66    2.68</time>
   <time name="total">    2.79    2.81</time>
   <energy>
    <i name="e_fr_energy">  -1317.20080840 </i>
    <i name="e_wo_entrp">  -1317.20074253 </i>
    <i name="e_0_energy">  -1317.20077546 </i>
   </energy>
  </scstep>
  <scstep>
   <time name="dav">    2.36    2.37</time>
   <time name="total">    2.48    2.50</time>
   <energy>
    <i name="e_fr_energy">  -1324.21358741 </i>
    <i name="e_wo_entrp">  -1324.21358741 </i>
    <i name="e_0_energy">  -1324.21358741 </i>
   </energy>
  </scstep>
  <scstep>
   <time name="dav">    2.40    2.42</time>
   <time name="total">    2.53    2.55</time>
   <energy>
    <i name="e_fr_energy">  -1318.50858783 </i>
    <i name="e_wo_entrp">  -1318.50858783 </i>
    <i name="e_0_energy">  -1318.50858783 </i>
   </energy>
  </scstep>
  <scstep>
   <time name="dav">    2.57    2.59</time>
   <time name="total">    2.69    2.71</time>
   <energy>
    <i name="e_fr_energy">  -1319.27010062 </i>
    <i name="e_wo_entrp">  -1319.27010039 </i>
    <i name="e_0_energy">  -1319.27010050 </i>
   </energy>
  </scstep>
  <scstep>
   <time name="dav">    2.42    2.44</time>
   <time name="total">    2.54    2.56</time>
   <energy>
    <i name="e_fr_energy">  -1319.60633568 </i>
    <i name="e_wo_entrp">  -1319.60632925 </i>
    <i name="e_0_energy">  -1319.60633246 </i>
   </energy>
  </scstep>
  <scstep>
   <time name="dav">    2.41    2.43</time>
   <time name="total">    2.54    2.55</time>
   <energy>
    <i name="e_fr_energy">  -1319.47552812 </i>
    <i name="e_wo_entrp">  -1319.47552797 </i>
    <i name="e_0_energy">  -1319.47552804 </i>
   </energy>
  </scstep>
  <scstep>
   <time name="dav">    2.38    2.40</time>
   <time name="total">    2.51    2.53</time>
   <energy>
    <i name="e_fr_energy">  -1319.52129363 </i>
    <i name="e_wo_entrp">  -1319.52129357 </i>
    <i name="e_0_energy">  -1319.52129360 </i>
   </energy>
  </scstep>
  <scstep>
   <time name="dav">    2.39    2.41</time>
   <time name="total">    2.52    2.53</time>
   <energy>
    <i name="e_fr_energy">  -1319.51057118 </i>
    <i name="e_wo_entrp">  -1319.51057108 </i>
    <i name="e_0_energy">  -1319.51057113 </i>
   </energy>
  </scstep>
  <scstep>
   <time name="dav">    2.87    2.89</time>
   <time name="total">    2.99    3.01</time>
   <energy>
    <i name="e_fr_energy">  -1319.51716272 </i>
    <i name="e_wo_entrp">  -1319.51716260 </i>
    <i name="e_0_energy">  -1319.51716266 </i>
   </energy>
  </scstep>
  <scstep>
   <time name="dav">    2.43    2.45</time>
   <time name="total">    2.56    2.58</time>
   <energy>
    <i name="e_fr_energy">  -1319.51767792 </i>
    <i name="e_wo_entrp">  -1319.51767778 </i>
    <i name="e_0_energy">  -1319.51767785 </i>
   </energy>
  </scstep>
  <scstep>
   <time name="dav">    2.40    2.42</time>
   <time name="total">    2.53    2.55</time>
   <energy>
    <i name="e_fr_energy">  -1319.51759636 </i>
    <i name="e_wo_entrp">  -1319.51759625 </i>
    <i name="e_0_energy">  -1319.51759630 </i>
   </energy>
  </scstep>
  <scstep>
   <time name="dav">    2.25    2.26</time>
   <time name="total">    2.43    2.45</time>
   <energy>
    <i name="e_fr_energy">  -1319.51777762 </i>
    <i name="e_wo_entrp">  -1319.51777751 </i>
    <i name="e_0_energy">  -1319.51777757 </i>
   </energy>
  </scstep>
  <scstep>
   <time name="dav">    2.40    2.42</time>
   <time name="total">    2.54    2.58</time>
   <energy>
    <i name="e_fr_energy">  -1319.51774271 </i>
    <i name="e_wo_entrp">  -1319.51774260 </i>
    <i name="e_0_energy">  -1319.51774265 </i>
   </energy>
  </scstep>
  <scstep>
   <time name="dav">    2.32    2.34</time>
   <time name="total">    2.45    2.47</time>
   <energy>
    <i name="e_fr_energy">  -1319.51779744 </i>
    <i name="e_wo_entrp">  -1319.51779734 </i>
    <i name="e_0_energy">  -1319.51779739 </i>
   </energy>
  </scstep>
  <scstep>
   <time name="dav">    2.40    2.41</time>
   <time name="total">    2.52    2.54</time>
   <energy>
    <i name="e_fr_energy">  -1319.51782765 </i>
    <i name="e_wo_entrp">  -1319.51782754 </i>
    <i name="e_0_energy">  -1319.51782760 </i>
   </energy>
  </scstep>
  <scstep>
   <time name="dav">    2.26    2.27</time>
   <time name="total">    2.38    2.40</time>
   <energy>
    <i name="e_fr_energy">  -1319.51783782 </i>
    <i name="e_wo_entrp">  -1319.51783771 </i>
    <i name="e_0_energy">  -1319.51783777 </i>
   </energy>
  </scstep>
  <scstep>
   <time name="dav">    2.04    2.06</time>
   <time name="total">    2.17    2.18</time>
   <energy>
    <i name="e_fr_energy">  -1319.51783678 </i>
    <i name="e_wo_entrp">  -1319.51783667 </i>
    <i name="e_0_energy">  -1319.51783672 </i>
   </energy>
  </scstep>
  <scstep>
   <time name="dav">    1.35    1.36</time>
   <time name="total">    1.47    1.48</time>
   <energy>
    <i name="e_fr_energy">  -1319.51784036 </i>
    <i name="e_wo_entrp">  -1319.51784025 </i>
    <i name="e_0_energy">  -1319.51784031 </i>
   </energy>
  </scstep>
  <scstep>
   <time name="dav">    1.17    1.17</time>
   <time name="total">    1.24    1.25</time>
   <energy>
    <i name="alphaZ">   3513.07897605 </i>
    <i name="ewald"> -65645.77103230 </i>
    <i name="hartreedc"> -20644.76871863 </i>
    <i name="XCdc">   4064.80123066 </i>
    <i name="pawpsdc"> 103083.11894245 </i>
    <i name="pawaedc">-102670.55780984 </i>
    <i name="eentropy">     -0.00000011 </i>
    <i name="bandstr">  -6228.59589780 </i>
    <i name="atom">  83209.17646865 </i>
    <i name="e_fr_energy">  -1319.51784086 </i>
    <i name="e_wo_entrp">  -1319.51784075 </i>
    <i name="e_0_energy">  -1319.51784080 </i>
   </energy>
  </scstep>
  <structure>
   <crystal>
    <varray name="basis" >
     <v>      12.96520042       0.00000000       0.00000000 </v>
     <v>       0.00000000      12.96500015       0.00000000 </v>
     <v>       0.00000000       0.00000000      12.96500015 </v>
    </varray>
    <i name="volume">   2179.33647298 </i>
    <varray name="rec_basis" >
     <v>       0.07712954       0.00000000       0.00000000 </v>
     <v>       0.00000000       0.07713074       0.00000000 </v>
     <v>       0.00000000       0.00000000       0.07713074 </v>
    </varray>
   </crystal>
   <varray name="positions" >
    <v>       0.10000000       0.19560000       0.28160000 </v>
    <v>       0.89999998       0.80439997       0.71840000 </v>
    <v>       0.40000001       0.80439997       0.78160000 </v>
    <v>       0.60000002       0.19560000       0.21840000 </v>
    <v>       0.89999998       0.69560003       0.21840000 </v>
    <v>       0.10000000       0.30440000       0.78160000 </v>
    <v>       0.60000002       0.30440000       0.71840000 </v>
    <v>       0.40000001       0.69560003       0.28160000 </v>
    <v>       0.28160000       0.10000000       0.19560000 </v>
    <v>       0.71840000       0.89999998       0.80439997 </v>
    <v>       0.78160000       0.40000001       0.80439997 </v>
    <v>       0.21840000       0.60000002       0.19560000 </v>
    <v>       0.21840000       0.89999998       0.69560003 </v>
    <v>       0.78160000       0.10000000       0.30440000 </v>
    <v>       0.71840000       0.60000002       0.30440000 </v>
    <v>       0.28160000       0.40000001       0.69560003 </v>
    <v>       0.19560000       0.28160000       0.10000000 </v>
    <v>       0.80439997       0.71840000       0.89999998 </v>
    <v>       0.80439997       0.78160000       0.40000001 </v>
    <v>       0.19560000       0.21840000       0.60000002 </v>
    <v>       0.69560003       0.21840000       0.89999998 </v>
    <v>       0.30440000       0.78160000       0.10000000 </v>
    <v>       0.30440000       0.71840000       0.60000002 </v>
    <v>       0.69560003       0.28160000       0.40000001 </v>
    <v>       0.94560003       0.34999999       0.96840000 </v>
    <v>       0.05440000       0.64999998       0.03160000 </v>
    <v>       0.55439997       0.64999998       0.46840000 </v>
    <v>       0.44560000       0.34999999       0.53160000 </v>
    <v>       0.44560000       0.15000001       0.03160000 </v>
    <v>       0.55439997       0.85000002       0.96840000 </v>
    <v>       0.05440000       0.85000002       0.53160000 </v>
    <v>       0.94560003       0.15000001       0.46840000 </v>
    <v>       0.85000002       0.53160000       0.05440000 </v>
    <v>       0.15000001       0.46840000       0.94560003 </v>
    <v>       0.15000001       0.03160000       0.44560000 </v>
    <v>       0.85000002       0.96840000       0.55439997 </v>
    <v>       0.64999998       0.46840000       0.55439997 </v>
    <v>       0.34999999       0.53160000       0.44560000 </v>
    <v>       0.34999999       0.96840000       0.94560003 </v>
    <v>       0.64999998       0.03160000       0.05440000 </v>
    <v>       0.03160000       0.44560000       0.15000001 </v>
    <v>       0.96840000       0.55439997       0.85000002 </v>
    <v>       0.53160000       0.05440000       0.85000002 </v>
    <v>       0.46840000       0.94560003       0.15000001 </v>
    <v>       0.96840000       0.94560003       0.34999999 </v>
    <v>       0.03160000       0.05440000       0.64999998 </v>
    <v>       0.46840000       0.55439997       0.64999998 </v>
    <v>       0.53160000       0.44560000       0.34999999 </v>
    <v>       0.60000002       0.69560003       0.78160000 </v>
    <v>       0.40000001       0.30440000       0.21840000 </v>
    <v>       0.89999998       0.30440000       0.28160000 </v>
    <v>       0.10000000       0.69560003       0.71840000 </v>
    <v>       0.40000001       0.19560000       0.71840000 </v>
    <v>       0.60000002       0.80439997       0.28160000 </v>
    <v>       0.10000000       0.80439997       0.21840000 </v>
    <v>       0.89999998       0.19560000       0.78160000 </v>
    <v>       0.78160000       0.60000002       0.69560003 </v>
    <v>       0.21840000       0.40000001       0.30440000 </v>
    <v>       0.28160000       0.89999998       0.30440000 </v>
    <v>       0.71840000       0.10000000       0.69560003 </v>
    <v>       0.71840000       0.40000001       0.19560000 </v>
    <v>       0.28160000       0.60000002       0.80439997 </v>
    <v>       0.21840000       0.10000000       0.80439997 </v>
    <v>       0.78160000       0.89999998       0.19560000 </v>
    <v>       0.69560003       0.78160000       0.60000002 </v>
    <v>       0.30440000       0.21840000       0.40000001 </v>
    <v>       0.30440000       0.28160000       0.89999998 </v>
    <v>       0.69560003       0.71840000       0.10000000 </v>
    <v>       0.19560000       0.71840000       0.40000001 </v>
    <v>       0.80439997       0.28160000       0.60000002 </v>
    <v>       0.80439997       0.21840000       0.10000000 </v>
    <v>       0.19560000       0.78160000       0.89999998 </v>
    <v>       0.44560000       0.85000002       0.46840000 </v>
    <v>       0.55439997       0.15000001       0.53160000 </v>
    <v>       0.05440000       0.15000001       0.96840000 </v>
    <v>       0.94560003       0.85000002       0.03160000 </v>
    <v>       0.94560003       0.64999998       0.53160000 </v>
    <v>       0.05440000       0.34999999       0.46840000 </v>
    <v>       0.55439997       0.34999999       0.03160000 </v>
    <v>       0.44560000       0.64999998       0.96840000 </v>
    <v>       0.34999999       0.03160000       0.55439997 </v>
    <v>       0.64999998       0.96840000       0.44560000 </v>
    <v>       0.64999998       0.53160000       0.94560003 </v>
    <v>       0.34999999       0.46840000       0.05440000 </v>
    <v>       0.15000001       0.96840000       0.05440000 </v>
    <v>       0.85000002       0.03160000       0.94560003 </v>
    <v>       0.85000002       0.46840000       0.44560000 </v>
    <v>       0.15000001       0.53160000       0.55439997 </v>
    <v>       0.53160000       0.94560003       0.64999998 </v>
    <v>       0.46840000       0.05440000       0.34999999 </v>
    <v>       0.03160000       0.55439997       0.34999999 </v>
    <v>       0.96840000       0.44560000       0.64999998 </v>
    <v>       0.46840000       0.44560000       0.85000002 </v>
    <v>       0.53160000       0.55439997       0.15000001 </v>
    <v>       0.96840000       0.05440000       0.15000001 </v>
    <v>       0.03160000       0.94560003       0.85000002 </v>
    <v>       0.12500000       0.00000000       0.25000000 </v>
    <v>       0.87500000       0.00000000       0.75000000 </v>
    <v>       0.37500000       0.00000000       0.75000000 </v>
    <v>       0.62500000       0.00000000       0.25000000 </v>
    <v>       0.87500000       0.50000000       0.25000000 </v>
    <v>       0.12500000       0.50000000       0.75000000 </v>
    <v>       0.62500000       0.50000000       0.75000000 </v>
    <v>       0.37500000       0.50000000       0.25000000 </v>
    <v>       0.25000000       0.12500000       0.00000000 </v>
    <v>       0.75000000       0.87500000       0.00000000 </v>
    <v>       0.75000000       0.37500000       0.00000000 </v>
    <v>       0.25000000       0.62500000       0.00000000 </v>
    <v>       0.25000000       0.87500000       0.50000000 </v>
    <v>       0.75000000       0.12500000       0.50000000 </v>
    <v>       0.75000000       0.62500000       0.50000000 </v>
    <v>       0.25000000       0.37500000       0.50000000 </v>
    <v>       0.00000000       0.25000000       0.12500000 </v>
    <v>       0.00000000       0.75000000       0.87500000 </v>
    <v>       0.00000000       0.75000000       0.37500000 </v>
    <v>       0.00000000       0.25000000       0.62500000 </v>
    <v>       0.50000000       0.25000000       0.87500000 </v>
    <v>       0.50000000       0.75000000       0.12500000 </v>
    <v>       0.50000000       0.75000000       0.62500000 </v>
    <v>       0.50000000       0.25000000       0.37500000 </v>
    <v>       0.00000000       0.00000000       0.00000000 </v>
    <v>       0.50000000       0.00000000       0.50000000 </v>
    <v>       0.00000000       0.50000000       0.50000000 </v>
    <v>       0.50000000       0.50000000       0.00000000 </v>
    <v>       0.75000000       0.25000000       0.25000000 </v>
    <v>       0.25000000       0.75000000       0.75000000 </v>
    <v>       0.75000000       0.75000000       0.75000000 </v>
    <v>       0.25000000       0.25000000       0.25000000 </v>
    <v>       0.25000000       0.25000000       0.75000000 </v>
    <v>       0.75000000       0.75000000       0.25000000 </v>
    <v>       0.25000000       0.75000000       0.25000000 </v>
    <v>       0.75000000       0.25000000       0.75000000 </v>
    <v>       0.50000000       0.50000000       0.50000000 </v>
    <v>       0.00000000       0.50000000       0.00000000 </v>
    <v>       0.50000000       0.00000000       0.00000000 </v>
    <v>       0.00000000       0.00000000       0.50000000 </v>
    <v>       0.82400000       0.43770000       0.65090001 </v>
    <v>       0.15090001       0.32400000       0.93770003 </v>
    <v>       0.18770000       0.42600000       0.09910000 </v>
    <v>       0.42600000       0.09910000       0.18770000 </v>
    <v>       0.18770000       0.57400000       0.40090001 </v>
    <v>       0.67600000       0.43770000       0.34909999 </v>
    <v>       0.34909999       0.82400000       0.93770003 </v>
    <v>       0.59909999       0.68770003       0.92600000 </v>
    <v>       0.90090001       0.18770000       0.92600000 </v>
    <v>       0.32400000       0.43770000       0.84909999 </v>
    <v>       0.42600000       0.59909999       0.81229997 </v>
    <v>       0.59909999       0.31230000       0.57400000 </v>
    <v>       0.90090001       0.68770003       0.07400000 </v>
    <v>       0.68770003       0.92600000       0.59909999 </v>
    <v>       0.15090001       0.17600000       0.43770000 </v>
    <v>       0.42600000       0.90090001       0.31230000 </v>
    <v>       0.31230000       0.07400000       0.40090001 </v>
    <v>       0.67600000       0.56229997       0.15090001 </v>
    <v>       0.92600000       0.90090001       0.18770000 </v>
    <v>       0.40090001       0.18770000       0.57400000 </v>
    <v>       0.34909999       0.32400000       0.06230000 </v>
    <v>       0.81229997       0.57400000       0.90090001 </v>
    <v>       0.81229997       0.92600000       0.40090001 </v>
    <v>       0.56229997       0.84909999       0.82400000 </v>
    <v>       0.57400000       0.59909999       0.31230000 </v>
    <v>       0.92600000       0.09910000       0.31230000 </v>
    <v>       0.07400000       0.09910000       0.81229997 </v>
    <v>       0.31230000       0.57400000       0.59909999 </v>
    <v>       0.32400000       0.93770003       0.15090001 </v>
    <v>       0.90090001       0.81229997       0.57400000 </v>
    <v>       0.09910000       0.81229997       0.07400000 </v>
    <v>       0.06230000       0.65090001       0.17600000 </v>
    <v>       0.37500000       0.00000000       0.25000000 </v>
    <v>       0.50000000       0.75000000       0.87500000 </v>
    <v>       0.62500000       0.00000000       0.75000000 </v>
    <v>       0.75000000       0.62500000       0.00000000 </v>
    <v>       0.12500000       0.50000000       0.25000000 </v>
    <v>       0.75000000       0.37500000       0.50000000 </v>
    <v>       0.25000000       0.12500000       0.50000000 </v>
    <v>       0.50000000       0.25000000       0.12500000 </v>
    <v>       0.75000000       0.12500000       0.00000000 </v>
    <v>       0.00000000       0.75000000       0.12500000 </v>
    <v>       0.25000000       0.37500000       0.00000000 </v>
    <v>       0.50000000       0.25000000       0.62500000 </v>
    <v>       0.00000000       0.75000000       0.62500000 </v>
    <v>       0.00000000       0.25000000       0.87500000 </v>
    <v>       0.37500000       0.50000000       0.75000000 </v>
    <v>       0.50000000       0.75000000       0.37500000 </v>
    <v>       0.12500000       0.00000000       0.75000000 </v>
    <v>       0.25000000       0.87500000       0.00000000 </v>
    <v>       0.87500000       0.00000000       0.25000000 </v>
    <v>       0.25000000       0.62500000       0.50000000 </v>
   </varray>
  </structure>
  <varray name="forces" >
   <v>       1.19747095      -1.91762108      -0.72361526 </v>
   <v>      -0.08299206       0.26118214       0.40450223 </v>
   <v>       0.88812619      -0.43973305       0.96205882 </v>
   <v>      -0.82908360      -1.48681742       1.24367611 </v>
   <v>       1.65607515       0.82373888      -1.29186049 </v>
   <v>       1.08125662      -0.15204507       1.05754444 </v>
   <v>      -0.69409611       0.59157958      -0.40254287 </v>
   <v>      -0.99679694       0.41484273      -0.56641054 </v>
   <v>       0.65498224      -1.93571838       0.11380275 </v>
   <v>      -0.59407346      -0.74129822       0.64908311 </v>
   <v>      -1.33808143       0.32253864       0.08439144 </v>
   <v>      -0.59499755       0.76518407      -0.04643217 </v>
   <v>       1.42517163      -1.25957675      -0.52642443 </v>
   <v>       3.01461318      -4.35299556      -0.63683680 </v>
   <v>       0.04014280       0.61530933      -0.84843920 </v>
   <v>       0.00617354       1.29361382       0.41666593 </v>
   <v>       0.91123767       1.00217479      -1.67333638 </v>
   <v>       0.06254791      -0.16082480       1.74361092 </v>
   <v>       1.36305761       0.22917258      -1.57570040 </v>
   <v>       0.81809206       0.45891543      -0.89992209 </v>
   <v>       0.08537386       0.88960992      -0.00788081 </v>
   <v>      -0.27990652       0.76053534      -0.01108843 </v>
   <v>      -0.66980364      -2.90005290      -2.86264197 </v>
   <v>      -1.15847369      -0.08004282       0.16497775 </v>
   <v>       0.85552296      -0.41937340       0.82918761 </v>
   <v>       0.03750352       2.12443840       1.81248497 </v>
   <v>      -0.58205006      -0.93227905      -0.19964073 </v>
   <v>       0.00984416      -0.75150050      -0.29948013 </v>
   <v>      -1.48942596      -0.40853447       0.80887886 </v>
   <v>      -0.21457643      -1.85119752      -0.33438825 </v>
   <v>      -0.29247733      -0.27711574      -1.65606774 </v>
   <v>       0.05496783      -2.34972922      -0.63444937 </v>
   <v>       0.01677776       1.61801524      -0.27341735 </v>
   <v>       1.88096124      -0.61924230       1.00256931 </v>
   <v>       1.55649263      -0.10077100      -1.58930193 </v>
   <v>       0.53077141      -0.55418651      -1.01423320 </v>
   <v>      -1.09198051      -0.35723937      -0.24055038 </v>
   <v>      -3.99263841       2.68260556       1.31251758 </v>
   <v>      -0.54202503      -0.65052334       0.89507247 </v>
   <v>      -0.63206634      -1.90408420       0.85717468 </v>
   <v>       1.06023269       0.54936903      -0.64068973 </v>
   <v>       0.99345270       0.79129997       2.15682667 </v>
   <v>      -1.36201394      -0.92541968       1.02464861 </v>
   <v>      -1.67348175       0.09314572       2.14801127 </v>
   <v>      -2.88609797       0.92639902      -4.51881206 </v>
   <v>      -0.35571956      -0.02440679      -0.16583644 </v>
   <v>      -1.64047725       0.84574940       0.45957897 </v>
   <v>      -1.14648869       0.80454138       0.73106577 </v>
   <v>      -1.88917155       0.56797750       1.40141408 </v>
   <v>      -1.10611108      -0.23746145      -0.43091460 </v>
   <v>      -0.71440968      -0.49261816      -1.73609049 </v>
   <v>       1.53129358      -0.21912913       0.87854232 </v>
   <v>      -0.46845987      -0.09122451      -0.19312692 </v>
   <v>      -0.07617127       0.16628618      -1.33292437 </v>
[...]
       <r>    3.6825    1.0000 </r>
       <r>    3.7012    1.0000 </r>
       <r>    3.7056    1.0000 </r>
       <r>    3.7176    1.0000 </r>
       <r>    3.7257    1.0000 </r>
       <r>    3.7423    1.0000 </r>
       <r>    3.7432    1.0000 </r>
       <r>    3.7536    1.0000 </r>
       <r>    3.7634    1.0000 </r>
       <r>    3.7726    1.0000 </r>
       <r>    3.7760    1.0000 </r>
       <r>    3.7840    1.0000 </r>
       <r>    3.8037    1.0000 </r>
       <r>    3.8055    1.0000 </r>
       <r>    3.8228    1.0000 </r>
       <r>    3.8371    1.0000 </r>
       <r>    3.8447    1.0000 </r>
       <r>    3.8535    1.0000 </r>
       <r>    3.8583    1.0000 </r>
       <r>    3.8634    1.0000 </r>
       <r>    3.8801    1.0000 </r>
       <r>    3.8857    1.0000 </r>
       <r>    3.8891    1.0000 </r>
       <r>    3.8940    1.0000 </r>
       <r>    3.9014    1.0000 </r>
       <r>    3.9169    1.0000 </r>
       <r>    3.9269    1.0000 </r>
       <r>    3.9347    1.0000 </r>
       <r>    3.9373    1.0000 </r>
       <r>    3.9464    1.0000 </r>
       <r>    3.9611    1.0000 </r>
       <r>    3.9793    1.0000 </r>
       <r>    3.9830    1.0000 </r>
       <r>    3.9941    1.0000 </r>
       <r>    3.9948    1.0000 </r>
       <r>    4.0075    1.0000 </r>
       <r>    4.0168    1.0000 </r>
       <r>    4.0248    1.0000 </r>
       <r>    4.0275    1.0000 </r>
       <r>    4.0373    1.0000 </r>
       <r>    4.0426    1.0000 </r>
       <r>    4.0525    1.0000 </r>
       <r>    4.0572    1.0000 </r>
       <r>    4.0656    1.0000 </r>
       <r>    4.0885    1.0000 </r>
       <r>    4.1045    1.0000 </r>
       <r>    4.1113    1.0000 </r>
       <r>    4.1168    1.0000 </r>
       <r>    4.1296    1.0000 </r>
       <r>    4.1458    1.0000 </r>
       <r>    4.1494    1.0000 </r>
       <r>    4.1547    1.0000 </r>
       <r>    4.1672    1.0000 </r>
       <r>    4.1681    1.0000 </r>
       <r>    4.1865    1.0000 </r>
       <r>    4.1981    1.0000 </r>
       <r>    4.2138    1.0000 </r>
       <r>    4.2258    1.0000 </r>
       <r>    4.2356    1.0000 </r>
       <r>    4.2427    1.0000 </r>
       <r>    4.2523    1.0000 </r>
       <r>    4.2590    1.0000 </r>
       <r>    4.2736    1.0000 </r>
       <r>    4.2765    1.0000 </r>
       <r>    4.2814    1.0000 </r>
       <r>    4.2859    1.0000 </r>
       <r>    4.2907    1.0000 </r>
       <r>    4.3037    1.0000 </r>
       <r>    4.3161    1.0000 </r>
       <r>    4.3185    1.0000 </r>
       <r>    4.3296    1.0000 </r>
       <r>    4.3355    1.0000 </r>
       <r>    4.3396    1.0000 </r>
       <r>    4.3559    1.0000 </r>
       <r>    4.3657    1.0000 </r>
       <r>    4.3727    1.0000 </r>
       <r>    4.3814    1.0000 </r>
       <r>    4.3904    1.0000 </r>
       <r>    4.4043    1.0000 </r>
       <r>    4.4072    1.0000 </r>
       <r>    4.4198    1.0000 </r>
       <r>    4.4380    1.0000 </r>
       <r>    4.4418    1.0000 </r>
       <r>    4.4520    1.0000 </r>
       <r>    4.4697    1.0000 </r>
       <r>    4.4822    1.0000 </r>
       <r>    4.4879    1.0000 </r>
       <r>    4.5249    1.0000 </r>
       <r>    4.5357    1.0000 </r>
       <r>    4.5545    1.0000 </r>
       <r>    8.9454    0.0000 </r>
       <r>    9.0618    0.0000 </r>
       <r>    9.1026    0.0000 </r>
       <r>    9.1306    0.0000 </r>
       <r>    9.1342    0.0000 </r>
       <r>    9.1526    0.0000 </r>
       <r>    9.1621    0.0000 </r>
       <r>    9.1834    0.0000 </r>
       <r>    9.2007    0.0000 </r>
       <r>    9.2178    0.0000 </r>
       <r>    9.2292    0.0000 </r>
       <r>    9.2504    0.0000 </r>
       <r>    9.2588    0.0000 </r>
       <r>    9.2793    0.0000 </r>
       <r>    9.2901    0.0000 </r>
       <r>    9.2967    0.0000 </r>
       <r>    9.3189    0.0000 </r>
       <r>    9.3248    0.0000 </r>
       <r>    9.3344    0.0000 </r>
       <r>    9.3566    0.0000 </r>
       <r>    9.3576    0.0000 </r>
       <r>    9.3794    0.0000 </r>
       <r>    9.3904    0.0000 </r>
       <r>    9.3960    0.0000 </r>
       <r>    9.4020    0.0000 </r>
       <r>    9.4117    0.0000 </r>
       <r>    9.4206    0.0000 </r>
       <r>    9.4332    0.0000 </r>
       <r>    9.4430    0.0000 </r>
       <r>    9.4450    0.0000 </r>
       <r>    9.4639    0.0000 </r>
       <r>    9.4744    0.0000 </r>
       <r>    9.4841    0.0000 </r>
       <r>    9.4916    0.0000 </r>
       <r>    9.4940    0.0000 </r>
       <r>    9.5055    0.0000 </r>
       <r>    9.5239    0.0000 </r>
       <r>    9.5401    0.0000 </r>
       <r>    9.5475    0.0000 </r>
       <r>    9.5598    0.0000 </r>
       <r>    9.5619    0.0000 </r>
       <r>    9.5764    0.0000 </r>
       <r>    9.5919    0.0000 </r>
       <r>    9.6191    0.0000 </r>
       <r>    9.6269    0.0000 </r>
       <r>    9.6403    0.0000 </r>
       <r>    9.6830    0.0000 </r>
       <r>    9.7040    0.0000 </r>
       <r>    9.7222    0.0000 </r>
       <r>    9.7298    0.0000 </r>
       <r>    9.7489    0.0000 </r>
       <r>    9.7681    0.0000 </r>
       <r>    9.7758    0.0000 </r>
       <r>    9.7819    0.0000 </r>
       <r>    9.7865    0.0000 </r>
       <r>    9.7992    0.0000 </r>
       <r>    9.8094    0.0000 </r>
       <r>    9.8104    0.0000 </r>
       <r>    9.8160    0.0000 </r>
       <r>    9.8227    0.0000 </r>
       <r>    9.8256    0.0000 </r>
       <r>    9.8319    0.0000 </r>
       <r>    9.8338    0.0000 </r>
       <r>    9.8425    0.0000 </r>
       <r>    9.8495    0.0000 </r>
       <r>    9.8524    0.0000 </r>
       <r>    9.8589    0.0000 </r>
       <r>    9.8609    0.0000 </r>
       <r>    9.8663    0.0000 </r>
       <r>    9.8711    0.0000 </r>
       <r>    9.8728    0.0000 </r>
       <r>    9.8766    0.0000 </r>
       <r>    9.8832    0.0000 </r>
       <r>    9.8846    0.0000 </r>
       <r>    9.8865    0.0000 </r>
       <r>    9.8882    0.0000 </r>
       <r>    9.8909    0.0000 </r>
       <r>    9.8953    0.0000 </r>
       <r>    9.8980    0.0000 </r>
       <r>    9.8998    0.0000 </r>
       <r>    9.9028    0.0000 </r>
       <r>    9.9071    0.0000 </r>
       <r>    9.9100    0.0000 </r>
       <r>    9.9118    0.0000 </r>
       <r>    9.9177    0.0000 </r>
       <r>    9.9199    0.0000 </r>
       <r>    9.9254    0.0000 </r>
       <r>    9.9273    0.0000 </r>
       <r>    9.9300    0.0000 </r>
       <r>    9.9316    0.0000 </r>
       <r>    9.9353    0.0000 </r>
       <r>    9.9438    0.0000 </r>
       <r>    9.9510    0.0000 </r>
       <r>    9.9535    0.0000 </r>
       <r>    9.9544    0.0000 </r>
       <r>    9.9631    0.0000 </r>
       <r>    9.9653    0.0000 </r>
       <r>    9.9665    0.0000 </r>
       <r>    9.9703    0.0000 </r>
       <r>    9.9735    0.0000 </r>
       <r>    9.9801    0.0000 </r>
       <r>    9.9841    0.0000 </r>
       <r>    9.9848    0.0000 </r>
       <r>    9.9887    0.0000 </r>
       <r>    9.9911    0.0000 </r>
       <r>    9.9952    0.0000 </r>
       <r>    9.9980    0.0000 </r>
       <r>   10.0030    0.0000 </r>
       <r>   10.0109    0.0000 </r>
       <r>   10.0135    0.0000 </r>
       <r>   10.0164    0.0000 </r>
       <r>   10.0247    0.0000 </r>
      </set>
     </set>
    </set>
   </array>
  </eigenvalues>
  <separator name="orbital magnetization" >
   <v name="MAGDIPOLOUT">      0.00000000      0.00000000      0.00000000</v>
  </separator>
 </calculation>
 <structure name="finalpos" >
  <crystal>
   <varray name="basis" >
    <v>      12.96520042       0.00000000       0.00000000 </v>
    <v>       0.00000000      12.96500015       0.00000000 </v>
    <v>       0.00000000       0.00000000      12.96500015 </v>
   </varray>
   <i name="volume">   2179.33647298 </i>
   <varray name="rec_basis" >
    <v>       0.07712954       0.00000000       0.00000000 </v>
    <v>       0.00000000       0.07713074       0.00000000 </v>
    <v>       0.00000000       0.00000000       0.07713074 </v>
   </varray>
  </crystal>
  <varray name="positions" >
   <v>       0.09873477       0.19414371       0.27975972 </v>
   <v>       0.90005855       0.80559275       0.71870844 </v>
   <v>       0.39804270       0.80934212       0.78339983 </v>
   <v>       0.60088976       0.18409139       0.22837038 </v>
   <v>       0.89967785       0.70533110       0.21124823 </v>
   <v>       0.09636556       0.29826208       0.78534272 </v>
   <v>       0.60045774       0.31063768       0.72020948 </v>
   <v>       0.40681445       0.70554214       0.27918823 </v>
   <v>       0.28179639       0.10080255       0.19444579 </v>
   <v>       0.71899224       0.89822646       0.80678704 </v>
   <v>       0.78348950       0.40104838       0.80896424 </v>
   <v>       0.22465613       0.60032356       0.19829924 </v>
   <v>       0.22855865       0.89672201       0.68618346 </v>
   <v>       0.79441247       0.10642768       0.30682737 </v>
   <v>       0.71433122       0.59684115       0.29768001 </v>
   <v>       0.27726834       0.40707341       0.70070718 </v>
   <v>       0.19809297       0.28677104       0.09826187 </v>
   <v>       0.80338774       0.70951574       0.90317222 </v>
   <v>       0.81097186       0.77187239       0.39880869 </v>
   <v>       0.19265345       0.22823684       0.59911322 </v>
   <v>       0.69635789       0.21954076       0.89998834 </v>
   <v>       0.29993656       0.78196417       0.09765392 </v>
   <v>       0.30392101       0.70469408       0.60127845 </v>
   <v>       0.69184872       0.29000416       0.39599670 </v>
   <v>       0.94978709       0.34916480       0.97551088 </v>
   <v>       0.06222448       0.64625113       0.03941514 </v>
   <v>       0.55950508       0.64634493       0.46870780 </v>
   <v>       0.44578962       0.35272733       0.54263738 </v>
   <v>       0.44331978       0.15425699       0.03218094 </v>
   <v>       0.54813849       0.84766942       0.96208517 </v>
   <v>       0.05513907       0.84992232       0.52064478 </v>
   <v>       0.94997780       0.15094379       0.47592629 </v>
   <v>       0.85118803       0.53272105       0.05751054 </v>
   <v>       0.15197037       0.46335284       0.94898309 </v>
   <v>       0.14980647       0.03395991       0.44342494 </v>
   <v>       0.84855230       0.96347040       0.55299441 </v>
   <v>       0.64958974       0.46892493       0.55426673 </v>
   <v>       0.34395661       0.53880320       0.45041099 </v>
   <v>       0.34439156       0.96769344       0.95530001 </v>
   <v>       0.64501384       0.01630169       0.06334900 </v>
   <v>       0.03700122       0.44989264       0.15471485 </v>
   <v>       0.97691520       0.56140957       0.85711413 </v>
   <v>       0.52349314       0.05019721       0.85026343 </v>
   <v>       0.45910552       0.94686353       0.15153934 </v>
   <v>       0.95651706       0.95157170       0.34603232 </v>
   <v>       0.02942265       0.05647531       0.65265696 </v>
   <v>       0.46783982       0.55565941       0.65599287 </v>
   <v>       0.52329567       0.45185672       0.35418261 </v>
   <v>       0.59753313       0.70053146       0.78415125 </v>
   <v>       0.40405543       0.29088257       0.21401448 </v>
   <v>       0.89701910       0.31080603       0.26849555 </v>
   <v>       0.10282141       0.69327506       0.72755521 </v>
   <v>       0.39565036       0.19554399       0.71581649 </v>
   <v>       0.59976697       0.80872056       0.27595135 </v>
   <v>       0.10257045       0.80506892       0.22017527 </v>
   <v>       0.89950054       0.19152311       0.78574531 </v>
   <v>       0.77751556       0.59378700       0.70101081 </v>
   <v>       0.22567155       0.40424768       0.29827004 </v>
   <v>       0.28186479       0.90129953       0.30782789 </v>
   <v>       0.72839488       0.10303344       0.68430671 </v>
   <v>       0.71422680       0.40091420       0.19320050 </v>
   <v>       0.28045551       0.59912408       0.80711777 </v>
   <v>       0.21710728       0.10035992       0.80801544 </v>
   <v>       0.79205220       0.90914484       0.20919618 </v>
   <v>       0.70342683       0.77659510       0.60259906 </v>
   <v>       0.30409578       0.22135690       0.40208151 </v>
   <v>       0.30271383       0.28661905       0.89889023 </v>
   <v>       0.70081558       0.72033750       0.09784157 </v>
   <v>       0.20352845       0.70734343       0.40238192 </v>
   <v>       0.79884776       0.29087765       0.60236286 </v>
   <v>       0.80472267       0.22123429       0.09433859 </v>
   <v>       0.19815056       0.78126146       0.90332434 </v>
   <v>       0.44372244       0.85233594       0.47241253 </v>
   <v>       0.54565656       0.15696563       0.52764819 </v>
   <v>       0.05143164       0.14862997       0.97255853 </v>
   <v>       0.94925032       0.84352595       0.03562135 </v>
   <v>       0.94517279       0.65143801       0.52637853 </v>
   <v>       0.06736780       0.35585221       0.46241156 </v>
   <v>       0.54788434       0.35052572       0.02072528 </v>
   <v>       0.44263126       0.64993836       0.96105131 </v>
   <v>       0.34937368       0.03680485       0.55063479 </v>
   <v>       0.65511033       0.98032177       0.44806427 </v>
   <v>       0.64667040       0.53372395       0.94538118 </v>
   <v>       0.34956400       0.46410469       0.06038296 </v>
   <v>       0.15055959       0.96942715       0.06130996 </v>
   <v>       0.85006458       0.02945601       0.94861780 </v>
   <v>       0.85472170       0.47890084       0.43607128 </v>
   <v>       0.15776956       0.54186387       0.54905749 </v>
   <v>       0.54034350       0.94066262       0.65033397 </v>
   <v>       0.46138554       0.04667667       0.35111287 </v>
   <v>       0.03601705       0.55671452       0.34168121 </v>
   <v>       0.97912917       0.44095082       0.64098750 </v>
   <v>       0.46284433       0.45157952       0.84650360 </v>
   <v>       0.52512015       0.56409060       0.14739901 </v>
   <v>       0.96343583       0.04757104       0.15790451 </v>
   <v>       0.03398359       0.94971502       0.85483242 </v>
   <v>       0.12676793       0.00219975       0.25452696 </v>
   <v>       0.87220169      -0.00109639       0.75091473 </v>
   <v>       0.37227257       0.00331639       0.74744703 </v>
   <v>       0.61925595       0.00049016       0.25027081 </v>
   <v>       0.87439667       0.49671779       0.24969873 </v>
   <v>       0.11128913       0.50680273       0.74771174 </v>
   <v>       0.62768778       0.49911256       0.75180461 </v>
   <v>       0.38215716       0.49905860       0.24623072 </v>
   <v>       0.24797433       0.12941078      -0.00102185 </v>
   <v>       0.74701805       0.88089510      -0.00599517 </v>
   <v>       0.74814191       0.37204282      -0.00338779 </v>
   <v>       0.24890336       0.62344163      -0.00187103 </v>
   <v>       0.24718248       0.87632374       0.50374316 </v>
   <v>       0.75342161       0.13455194       0.50162218 </v>
   <v>       0.75205136       0.62406339       0.50346405 </v>
   <v>       0.24894911       0.37476999       0.50097869 </v>
   <v>      -0.00279138       0.25073623       0.12526679 </v>
   <v>       0.00030520       0.75079022       0.86913032 </v>
   <v>      -0.00243260       0.74719112       0.37783331 </v>
   <v>      -0.00172936       0.25559386       0.61920582 </v>
   <v>       0.50480492       0.24418308       0.87285249 </v>
   <v>       0.50364382       0.75024313       0.12417198 </v>
   <v>       0.50585159       0.75171484       0.62054786 </v>
   <v>       0.50368968       0.25462145       0.37455597 </v>
   <v>      -0.00182430      -0.00298855      -0.00002288 </v>
   <v>       0.50671220       0.00158327       0.50337397 </v>
   <v>      -0.00060586       0.50273502       0.49475731 </v>
   <v>       0.49826657       0.49912915      -0.00094444 </v>
   <v>       0.74868858       0.25350366       0.24085098 </v>
   <v>       0.24669669       0.75249069       0.75333965 </v>
   <v>       0.75400858       0.74625245       0.75071137 </v>
   <v>       0.24968138       0.25094273       0.25160650 </v>
   <v>       0.24690115       0.25056307       0.74911774 </v>
   <v>       0.74587905       0.74767437       0.25529897 </v>
   <v>       0.25835110       0.75069031       0.24872292 </v>
   <v>       0.75089052       0.24832386       0.75229957 </v>
   <v>       0.50081564       0.50180761       0.50646027 </v>
   <v>      -0.00011480       0.49973578       0.00107743 </v>
   <v>       0.49995230       0.00292185       0.00080714 </v>
   <v>      -0.00024482       0.00028058       0.50928167 </v>
   <v>       0.84359888       0.45330683       0.68141605 </v>
   <v>       0.11630876       0.31654039       0.92856795 </v>
   <v>       0.18044292       0.43527581       0.13677273 </v>
   <v>       0.42537083       0.14192085       0.17505239 </v>
   <v>       0.17848590       0.56340701       0.33311276 </v>
   <v>       0.66401369       0.43122200       0.33514175 </v>
   <v>       0.36030769       0.82438068       0.93787053 </v>
   <v>       0.62545344       0.67987764       0.92560425 </v>
   <v>       0.87674021       0.17189050       0.93196491 </v>
   <v>       0.31661393       0.44059631       0.84128621 </v>
   <v>       0.42449472       0.59366909       0.81552257 </v>
   <v>       0.63588058       0.32938282       0.57510692 </v>
   <v>       0.86753642       0.68466881       0.06955959 </v>
   <v>       0.69067581       0.91928448       0.59023255 </v>
   <v>       0.11127050       0.19466422       0.42542681 </v>
   <v>       0.42593284       0.87503883       0.32933681 </v>
   <v>       0.32122146       0.07809042       0.40325113 </v>
   <v>       0.66382830       0.54051668       0.16558509 </v>
   <v>       0.92529735       0.85431912       0.17750411 </v>
   <v>       0.37801494       0.18074213       0.56353493 </v>
   <v>       0.39065753       0.31478100       0.07162352 </v>
   <v>       0.83738652       0.55720946       0.83719035 </v>
   <v>       0.78703122       0.90969681       0.42667949 </v>
   <v>       0.57460571       0.88295855       0.81592667 </v>
   <v>       0.57201652       0.59685265       0.32047793 </v>
   <v>       0.95205610       0.20730886       0.34749213 </v>
   <v>       0.06702365       0.13032574       0.82308949 </v>
   <v>       0.32414081       0.55788871       0.67207361 </v>
   <v>       0.31607359       0.92612862       0.09956634 </v>
   <v>       0.86350991       0.81846986       0.57323769 </v>
   <v>       0.14619589       0.82584515       0.07607508 </v>
   <v>       0.08015702       0.59002228       0.18711976 </v>
   <v>       0.36838172       0.00267990       0.24936324 </v>
   <v>       0.49047284       0.74778799       0.86809771 </v>
   <v>       0.62476306       0.02958120       0.74572879 </v>
   <v>       0.74749889       0.61294987       0.00315441 </v>
   <v>       0.07884762       0.41092255       0.30252568 </v>
   <v>       0.77566283       0.37508163       0.48642833 </v>
   <v>       0.21524784       0.09901426       0.55343411 </v>
   <v>       0.54063039       0.25883151       0.12600203 </v>
   <v>       0.72895167       0.12138565       0.01163210 </v>
   <v>       0.01319475       0.73956541       0.12737405 </v>
   <v>       0.25603010       0.37784925      -0.00366352 </v>
   <v>       0.50641493       0.24297164       0.63799959 </v>
   <v>       0.01696951       0.73959163       0.62363664 </v>
   <v>      -0.03546761       0.30379177       0.84319491 </v>
   <v>       0.42473536       0.40855155       0.69501518 </v>
   <v>       0.50947285       0.74934452       0.38597236 </v>
   <v>       0.12357448      -0.01910648       0.73780271 </v>
   <v>       0.20543730       0.91976495      -0.06687151 </v>
   <v>       0.87311852       0.01210809       0.25422443 </v>
   <v>       0.25307762       0.62822495       0.50121470 </v>
  </varray>
 </structure>
</modeling>
