unknown system                          
           1
    12.965200    0.000000    0.000000
     0.000000   12.965000    0.000000
     0.000000    0.000000   12.965000
   O    La   Zr   Li   Al
  96  24  16  50   2
Direct configuration=     1
   0.10000000  0.19560000  0.28160000
   0.89999998  0.80439997  0.71840000
   0.40000001  0.80439997  0.78160000
   0.60000002  0.19560000  0.21840000
   0.89999998  0.69560003  0.21840000
   0.10000000  0.30440000  0.78160000
   0.60000002  0.30440000  0.71840000
   0.40000001  0.69560003  0.28160000
   0.28160000  0.10000000  0.19560000
   0.71840000  0.89999998  0.80439997
   0.78160000  0.40000001  0.80439997
   0.21840000  0.60000002  0.19560000
   0.21840000  0.89999998  0.69560003
   0.78160000  0.10000000  0.30440000
   0.71840000  0.60000002  0.30440000
   0.28160000  0.40000001  0.69560003
   0.19560000  0.28160000  0.10000000
   0.80439997  0.71840000  0.89999998
   0.80439997  0.78160000  0.40000001
   0.19560000  0.21840000  0.60000002
   0.69560003  0.21840000  0.89999998
   0.30440000  0.78160000  0.10000000
   0.30440000  0.71840000  0.60000002
   0.69560003  0.28160000  0.40000001
   0.94560003  0.34999999  0.96840000
   0.05440000  0.64999998  0.03160000
   0.55439997  0.64999998  0.46840000
   0.44560000  0.34999999  0.53160000
   0.44560000  0.15000001  0.03160000
   0.55439997  0.85000002  0.96840000
   0.05440000  0.85000002  0.53160000
   0.94560003  0.15000001  0.46840000
   0.85000002  0.53160000  0.05440000
   0.15000001  0.46840000  0.94560003
   0.15000001  0.03160000  0.44560000
   0.85000002  0.96840000  0.55439997
   0.64999998  0.46840000  0.55439997
   0.34999999  0.53160000  0.44560000
   0.34999999  0.96840000  0.94560003
   0.64999998  0.03160000  0.05440000
   0.03160000  0.44560000  0.15000001
   0.96840000  0.55439997  0.85000002
   0.53160000  0.05440000  0.85000002
   0.46840000  0.94560003  0.15000001
   0.96840000  0.94560003  0.34999999
   0.03160000  0.05440000  0.64999998
   0.46840000  0.55439997  0.64999998
   0.53160000  0.44560000  0.34999999
   0.60000002  0.69560003  0.78160000
   0.40000001  0.30440000  0.21840000
   0.89999998  0.30440000  0.28160000
   0.10000000  0.69560003  0.71840000
   0.40000001  0.19560000  0.71840000
   0.60000002  0.80439997  0.28160000
   0.10000000  0.80439997  0.21840000
   0.89999998  0.19560000  0.78160000
   0.78160000  0.60000002  0.69560003
   0.21840000  0.40000001  0.30440000
   0.28160000  0.89999998  0.30440000
   0.71840000  0.10000000  0.69560003
   0.71840000  0.40000001  0.19560000
   0.28160000  0.60000002  0.80439997
   0.21840000  0.10000000  0.80439997
   0.78160000  0.89999998  0.19560000
   0.69560003  0.78160000  0.60000002
   0.30440000  0.21840000  0.40000001
   0.30440000  0.28160000  0.89999998
   0.69560003  0.71840000  0.10000000
   0.19560000  0.71840000  0.40000001
   0.80439997  0.28160000  0.60000002
   0.80439997  0.21840000  0.10000000
   0.19560000  0.78160000  0.89999998
   0.44560000  0.85000002  0.46840000
   0.55439997  0.15000001  0.53160000
   0.05440000  0.15000001  0.96840000
   0.94560003  0.85000002  0.03160000
   0.94560003  0.64999998  0.53160000
   0.05440000  0.34999999  0.46840000
   0.55439997  0.34999999  0.03160000
   0.44560000  0.64999998  0.96840000
   0.34999999  0.03160000  0.55439997
   0.64999998  0.96840000  0.44560000
   0.64999998  0.53160000  0.94560003
   0.34999999  0.46840000  0.05440000
   0.15000001  0.96840000  0.05440000
   0.85000002  0.03160000  0.94560003
   0.85000002  0.46840000  0.44560000
   0.15000001  0.53160000  0.55439997
   0.53160000  0.94560003  0.64999998
   0.46840000  0.05440000  0.34999999
   0.03160000  0.55439997  0.34999999
   0.96840000  0.44560000  0.64999998
   0.46840000  0.44560000  0.85000002
   0.53160000  0.55439997  0.15000001
   0.96840000  0.05440000  0.15000001
   0.03160000  0.94560003  0.85000002
   0.12500000  0.00000000  0.25000000
   0.87500000  0.00000000  0.75000000
   0.37500000  0.00000000  0.75000000
   0.62500000  0.00000000  0.25000000
   0.87500000  0.50000000  0.25000000
   0.12500000  0.50000000  0.75000000
   0.62500000  0.50000000  0.75000000
   0.37500000  0.50000000  0.25000000
   0.25000000  0.12500000  0.00000000
   0.75000000  0.87500000  0.00000000
   0.75000000  0.37500000  0.00000000
   0.25000000  0.62500000  0.00000000
   0.25000000  0.87500000  0.50000000
   0.75000000  0.12500000  0.50000000
   0.75000000  0.62500000  0.50000000
   0.25000000  0.37500000  0.50000000
   0.00000000  0.25000000  0.12500000
   0.00000000  0.75000000  0.87500000
   0.00000000  0.75000000  0.37500000
   0.00000000  0.25000000  0.62500000
   0.50000000  0.25000000  0.87500000
   0.50000000  0.75000000  0.12500000
   0.50000000  0.75000000  0.62500000
   0.50000000  0.25000000  0.37500000
   0.00000000  0.00000000  0.00000000
   0.50000000  0.00000000  0.50000000
   0.00000000  0.50000000  0.50000000
   0.50000000  0.50000000  0.00000000
   0.75000000  0.25000000  0.25000000
   0.25000000  0.75000000  0.75000000
   0.75000000  0.75000000  0.75000000
   0.25000000  0.25000000  0.25000000
   0.25000000  0.25000000  0.75000000
   0.75000000  0.75000000  0.25000000
   0.25000000  0.75000000  0.25000000
   0.75000000  0.25000000  0.75000000
   0.50000000  0.50000000  0.50000000
   0.00000000  0.50000000  0.00000000
   0.50000000  0.00000000  0.00000000
   0.00000000  0.00000000  0.50000000
   0.82400000  0.43770000  0.65090001
   0.15090001  0.32400000  0.93770003
   0.18770000  0.42600000  0.09910000
   0.42600000  0.09910000  0.18770000
   0.18770000  0.57400000  0.40090001
   0.67600000  0.43770000  0.34909999
   0.34909999  0.82400000  0.93770003
   0.59909999  0.68770003  0.92600000
   0.90090001  0.18770000  0.92600000
   0.32400000  0.43770000  0.84909999
   0.42600000  0.59909999  0.81229997
   0.59909999  0.31230000  0.57400000
   0.90090001  0.68770003  0.07400000
   0.68770003  0.92600000  0.59909999
   0.15090001  0.17600000  0.43770000
   0.42600000  0.90090001  0.31230000
   0.31230000  0.07400000  0.40090001
   0.67600000  0.56229997  0.15090001
   0.92600000  0.90090001  0.18770000
   0.40090001  0.18770000  0.57400000
   0.34909999  0.32400000  0.06230000
   0.81229997  0.57400000  0.90090001
   0.81229997  0.92600000  0.40090001
   0.56229997  0.84909999  0.82400000
   0.57400000  0.59909999  0.31230000
   0.92600000  0.09910000  0.31230000
   0.07400000  0.09910000  0.81229997
   0.31230000  0.57400000  0.59909999
   0.32400000  0.93770003  0.15090001
   0.90090001  0.81229997  0.57400000
   0.09910000  0.81229997  0.07400000
   0.06230000  0.65090001  0.17600000
   0.37500000  0.00000000  0.25000000
   0.50000000  0.75000000  0.87500000
   0.62500000  0.00000000  0.75000000
   0.75000000  0.62500000  0.00000000
   0.12500000  0.50000000  0.25000000
   0.75000000  0.37500000  0.50000000
   0.25000000  0.12500000  0.50000000
   0.50000000  0.25000000  0.12500000
   0.75000000  0.12500000  0.00000000
   0.00000000  0.75000000  0.12500000
   0.25000000  0.37500000  0.00000000
   0.50000000  0.25000000  0.62500000
   0.00000000  0.75000000  0.62500000
   0.00000000  0.25000000  0.87500000
   0.37500000  0.50000000  0.75000000
   0.50000000  0.75000000  0.37500000
   0.12500000  0.00000000  0.75000000
   0.25000000  0.87500000  0.00000000
   0.87500000  0.00000000  0.25000000
   0.25000000  0.62500000  0.50000000
Direct configuration=     2
   0.10445571  0.18846455  0.27890743
   0.89969117  0.80537182  0.71990515
   0.40330466  0.80276372  0.78517981
   0.59691506  0.19006757  0.22302771
   0.90616212  0.69866516  0.21359300
   0.10402329  0.30383424  0.78553511
   0.59741734  0.30660126  0.71690214
   0.39629099  0.69714366  0.27949239
   0.28403714  0.09279721  0.19602346
   0.71618949  0.89724161  0.80681520
   0.77662109  0.40120017  0.80471399
   0.21618606  0.60284727  0.19542723
   0.22370297  0.89531310  0.69364121
   0.79281717  0.08380254  0.30203033
   0.71854937  0.60228958  0.30124296
   0.28162297  0.40481353  0.69715044
   0.19899066  0.28532908  0.09377353
   0.80463270  0.71780157  0.90648794
   0.80947181  0.78245275  0.39413684
   0.19864407  0.22010762  0.59665142
   0.69591770  0.22171023  0.89997065
   0.30335848  0.78442994  0.09995874
   0.30190770  0.70760893  0.58934816
   0.69128943  0.28130216  0.40061389
   0.94878338  0.34843951  0.97148540
   0.05453955  0.65790499  0.03834424
   0.55223420  0.64653097  0.46765714
   0.44563663  0.34720367  0.53048563
   0.44005795  0.14847985  0.03460983
   0.55360154  0.84311173  0.96715575
   0.05331171  0.84896888  0.52543778
   0.94580456  0.14125668  0.46603922
   0.85006245  0.53762062  0.05338261
   0.15699894  0.46609581  0.94933058
   0.15579161  0.03122503  0.43968622
   0.85197499  0.96633788  0.55062601
   0.64593679  0.46707072  0.55350488
   0.33514365  0.54158195  0.45048387
   0.34798315  0.96597941  0.94893059
   0.64764810  0.02451492  0.05758954
   0.03554505  0.44764420  0.14761601
   0.97209657  0.55734439  0.85802556
   0.52653203  0.05095652  0.85381273
   0.46217309  0.94594663  0.15799274
   0.95766102  0.94904716  0.33318553
   0.03027639  0.05430918  0.64938290
   0.46229589  0.55754699  0.65171007
   0.52733399  0.44859369  0.35272028
   0.59297054  0.69771347  0.78681465
   0.39588424  0.30351640  0.21679657
   0.89734170  0.30256697  0.27514002
   0.10569784  0.69478466  0.72166905
   0.39825690  0.19526056  0.71768138
   0.59971660  0.80501872  0.27664020
   0.09673839  0.80337518  0.21538259
   0.90434707  0.19225701  0.78418596
   0.77559704  0.60122480  0.69548999
   0.22276927  0.40164786  0.30367923
   0.28294682  0.90297071  0.30077865
   0.72146561  0.09755482  0.69180534
   0.72124118  0.40194067  0.19702762
   0.28601822  0.59526794  0.80603735
   0.21833401  0.10169881  0.80771631
   0.79393747  0.90990611  0.19955460
   0.69379082  0.77990714  0.60361654
   0.30252633  0.21455973  0.40203160
   0.30148351  0.28678347  0.90644562
   0.69575269  0.71772456  0.09912632
   0.19908622  0.70953790  0.40669032
   0.80308282  0.28191765  0.60005839
   0.80873480  0.21831045  0.09987862
   0.19929038  0.77911344  0.90467235
   0.44133839  0.85164007  0.46639968
   0.55005031  0.15351773  0.52991594
   0.05383139  0.14930113  0.96775588
   0.94792965  0.84632808  0.04024473
   0.94593205  0.65553709  0.52675734
   0.06170501  0.35356188  0.47299870
   0.54990293  0.35474995  0.02791777
   0.44501362  0.65400040  0.96472125
   0.34872563  0.03410413  0.54906862
   0.64979342  0.97187547  0.44344112
   0.64951798  0.53694133  0.94603128
   0.34277119  0.46677142  0.05435967
   0.15034336  0.96612246  0.06008257
   0.85580809  0.03009803  0.94834491
   0.84944460  0.47272208  0.44457464
   0.16808131  0.54244034  0.54836558
   0.53074962  0.94272150  0.64874929
   0.46167009  0.05191505  0.34391722
   0.03699769  0.56139775  0.34715173
   0.97478882  0.44576715  0.64630003
   0.46344470  0.45091455  0.84957331
   0.52850264  0.55927610  0.14998286
   0.96058863  0.04619157  0.16530028
   0.03044900  0.94917021  0.85574684
   0.13175626  0.00720231  0.25092652
   0.87129611  0.00121549  0.74810080
   0.37460593  0.00327199  0.74945281
   0.62395395  0.00396350  0.24923406
   0.87597583  0.48910657  0.25484926
   0.10988844  0.49984369  0.74903543
   0.63327039  0.49520793  0.74821520
   0.38074631  0.49613893  0.24796282
   0.25177312  0.11973317 -0.00556087
   0.74718392  0.88199067 -0.00702074
   0.74741142  0.36648813 -0.00107660
   0.24973187  0.62555531 -0.00220497
   0.24827513  0.88041157  0.50923660
   0.75195421  0.13074501  0.50733873
   0.75179228  0.62719933  0.50433422
   0.24353829  0.36491647  0.50156245
  -0.00743326  0.25816789  0.13336969
  -0.00028926  0.74829085  0.86030552
  -0.00579295  0.74221377  0.38512672
  -0.00362847  0.25378608  0.62091627
   0.50944037  0.24627886  0.87287052
   0.50275628  0.74752602  0.12841349
   0.50749781  0.75216662  0.61853515
   0.50634080  0.25287178  0.36948032
  -0.00215086  0.00018238 -0.01668348
   0.50859980 -0.00378557  0.50646657
  -0.01447305  0.48889541  0.50248871
   0.50933653  0.48958671  0.00590358
   0.75281741  0.26346370  0.24308168
   0.23606710  0.75866199  0.75125719
   0.75692059  0.74659789  0.73987093
   0.24536598  0.25596255  0.25491670
   0.24832592  0.24523770  0.74224405
   0.74310588  0.74282511  0.26128745
   0.25983175  0.74391049  0.24687887
   0.74838988  0.24889751  0.75353063
   0.51288704  0.49965442  0.50206311
  -0.00810502  0.49210626 -0.00861062
   0.50925774  0.01070521 -0.00993165
  -0.00119546  0.01084783  0.52066461
   0.82711227  0.43891391  0.65436488
   0.14267908  0.32034192  0.93084048
   0.18142357  0.43001788  0.10742251
   0.43116421  0.10810215  0.18247593
   0.17084104  0.56101286  0.37732658
   0.67584282  0.43632091  0.34663801
   0.35447327  0.82219696  0.93227181
   0.60629702  0.68212371  0.92920401
   0.89249035  0.18438300  0.92799731
   0.32144937  0.43202044  0.85391570
   0.42973975  0.60559612  0.81587345
   0.60645318  0.31648589  0.57243199
   0.89273416  0.68240613  0.06995972
   0.68848142  0.92418536  0.59700539
   0.13934602  0.18206100  0.43341365
   0.43116979  0.89317432  0.31914810
   0.31734635  0.07123083  0.39589428
   0.67461819  0.55932490  0.15249461
   0.93677583  0.87768578  0.17200757
   0.39513529  0.18346399  0.57325865
   0.35853234  0.32013037  0.06700054
   0.81845036  0.56864501  0.89006011
   0.80708087  0.92146146  0.40969756
   0.56750497  0.85777915  0.81979321
   0.57472756  0.59781129  0.31259361
   0.93899863  0.12874424  0.32997399
   0.07157728  0.10456946  0.81493489
   0.32787952  0.56175397  0.62289336
   0.32008761  0.93296255  0.14247771
   0.89259782  0.81643497  0.57184955
   0.10632839  0.81817853  0.06879830
   0.06697456  0.64157586  0.18068618
   0.37217409  0.00481998  0.25641016
   0.48968287  0.74820252  0.87439111
   0.62577868  0.00512985  0.75136991
   0.74588888  0.62799053  0.00572178
   0.12225800  0.49587878  0.25195566
   0.75403850  0.37321076  0.49879719
   0.25020223  0.12421079  0.51459428
   0.50564785  0.25167424  0.12482301
   0.74627116  0.12526226  0.00054421
  -0.00469793  0.75565097  0.12820040
   0.25438273  0.37848893 -0.00664796
   0.50079010  0.24983129  0.63583000
   0.00811415  0.74385095  0.63057597
   0.00379658  0.25780707  0.86881718
   0.37668879  0.49444991  0.73777525
   0.50129747  0.75013840  0.37837040
   0.12967193 -0.00919982  0.74363518
   0.24227056  0.88040627  0.00030444
   0.84712733  0.00672268  0.24380462
   0.24906412  0.65214207  0.50194750
Direct configuration=     3
   0.10416150  0.18915157  0.27915651
   0.90069914  0.80622507  0.71842827
   0.40191892  0.80409986  0.78377789
   0.59810798  0.18993789  0.22322215
   0.90384937  0.69764060  0.21443790
   0.10360826  0.30340691  0.78479532
   0.59962581  0.30631464  0.71762650
   0.40057604  0.69605193  0.27995221
   0.28479882  0.09451003  0.19554007
   0.71627052  0.89757722  0.80557028
   0.77635230  0.40022403  0.80468575
   0.21575795  0.60084667  0.19558704
   0.22390233  0.89821865  0.69247926
   0.77816651  0.10532691  0.31697317
   0.71762915  0.59749931  0.30267818
   0.27960311  0.40278749  0.69745577
   0.19929333  0.28571268  0.09425046
   0.80509134  0.71718688  0.90495264
   0.80905719  0.78066574  0.39624389
   0.19703241  0.21949729  0.59680008
   0.69612399  0.22168436  0.90032531
   0.30364506  0.78482093  0.09913861
   0.30937951  0.71753518  0.60393680
   0.69190452  0.28249749  0.40014973
   0.94720732  0.34568978  0.97087955
   0.05374237  0.65731676  0.03703530
   0.55441794  0.64700858  0.46692165
   0.44728227  0.34678710  0.53028855
   0.44086685  0.14957962  0.03410919
   0.55390560  0.84437093  0.96649601
   0.05247975  0.84996821  0.52649814
   0.94508444  0.14428883  0.46831169
   0.84923651  0.53642326  0.05250999
   0.15477488  0.46580981  0.94914432
   0.15586184  0.03244682  0.44141508
   0.85029071  0.96593418  0.55257865
   0.65189633  0.46515395  0.55508409
   0.33651146  0.54211187  0.45066413
   0.34907081  0.96645004  0.94854166
   0.64874564  0.02468280  0.05762329
   0.03462714  0.44753215  0.14749282
   0.97142754  0.55898612  0.85589251
   0.52761522  0.05295526  0.84754751
   0.46299053  0.94675397  0.15806165
   0.95516862  0.94983371  0.33489901
   0.03197518  0.05801162  0.65915701
   0.46512789  0.55836713  0.65094309
   0.52865886  0.44927672  0.35240141
   0.59437600  0.69816349  0.78582890
   0.39668705  0.30327784  0.21600378
   0.89682862  0.30331048  0.27565419
   0.10247304  0.69364729  0.72180475
   0.39860164  0.19416877  0.71825466
   0.59922681  0.80488851  0.27712678
   0.09777340  0.80215322  0.21559778
   0.90376258  0.19184255  0.78392620
   0.77551933  0.59914280  0.69390628
   0.22273152  0.40242526  0.30365135
   0.28391996  0.90200351  0.30098944
   0.72250078  0.09800077  0.69155010
   0.72091479  0.40410279  0.19650524
   0.28519124  0.59555100  0.80522826
   0.21769912  0.10091650  0.80675919
   0.78573791  0.89838428  0.19453471
   0.69418999  0.77977285  0.60252118
   0.30140504  0.21411653  0.40271398
   0.30188536  0.28597531  0.90444003
   0.69554270  0.71763434  0.10045533
   0.19545517  0.71499860  0.39888295
   0.80315672  0.28319867  0.60125943
   0.80824472  0.21972500  0.09899349
   0.19897690  0.77962925  0.90361794
   0.44179919  0.85243358  0.46691613
   0.54999071  0.15393474  0.53028786
   0.05277299  0.15038160  0.96598218
   0.94798123  0.84746869  0.03670655
   0.94332569  0.65373202  0.52853555
   0.06105397  0.35301729  0.47468797
   0.55227769  0.34795211  0.02843547
   0.44532460  0.65293377  0.96535591
   0.35019186  0.03452864  0.54963867
   0.65086897  0.97282187  0.44444019
   0.65077152  0.53604427  0.94627221
   0.34443650  0.46651572  0.05517647
   0.14960441  0.96669030  0.05948495
   0.85224431  0.03207765  0.94610489
   0.84540795  0.47219957  0.44387084
   0.16561183  0.54276126  0.54868775
   0.53225708  0.94199857  0.65060695
   0.46272195  0.05191019  0.34581787
   0.03480152  0.56010547  0.34750191
   0.97297987  0.44392253  0.64733191
   0.46496934  0.45106243  0.85036973
   0.52908404  0.55937553  0.15062883
   0.95922090  0.04745420  0.16349161
   0.03200998  0.94762484  0.84711953
   0.12839823  0.00457609  0.25070327
   0.86933199  0.00054333  0.74911258
   0.37372648  0.00225684  0.74983552
   0.62103770  0.00355770  0.24874850
   0.88037861  0.49180578  0.25387673
   0.11300124  0.50047279  0.74866102
   0.62958005  0.49660323  0.74977819
   0.37948446  0.49614953  0.24884194
   0.25107652  0.11891846 -0.00383560
   0.74724968  0.88011080 -0.00587433
   0.74775002  0.36755699 -0.00120097
   0.25024222  0.62502497 -0.00248235
   0.24687107  0.88203608  0.50681210
   0.75114090  0.13040071  0.50561286
   0.75210481  0.62941251  0.50391661
   0.24598904  0.37079559  0.50125355
  -0.00408598  0.25577638  0.13368621
  -0.00065984  0.74758761  0.86433103
  -0.00341112  0.74518192  0.38145149
  -0.00324530  0.25470427  0.62059732
   0.50684478  0.24730050  0.87212960
   0.50234703  0.74888723  0.12630794
   0.50547131  0.75070798  0.61908899
   0.50485926  0.25244590  0.36938182
   0.00055352  0.00023671 -0.00314247
   0.50685245 -0.00210438  0.50261071
  -0.00657117  0.49295323  0.49938696
   0.50363361  0.49791920  0.00349202
   0.74999538  0.25738964  0.24400862
   0.24257493  0.75466334  0.75385726
   0.75397730  0.74664018  0.74537581
   0.24532516  0.25445341  0.25263507
   0.24977066  0.24856171  0.74430426
   0.74624393  0.74790985  0.25684866
   0.25463832  0.74754301  0.24742841
   0.74896131  0.24844538  0.75265928
   0.50182802  0.49980957  0.50202489
  -0.00435724  0.49493752 -0.00420880
   0.50583132  0.00546537 -0.00196895
   0.00141007  0.00255793  0.50805414
   0.82833561  0.43928857  0.65633200
   0.14180127  0.31955183  0.93011129
   0.18028991  0.43063924  0.10861142
   0.43142088  0.10955683  0.18119709
   0.17187712  0.56070872  0.37810755
   0.67448651  0.43618175  0.34596804
   0.35610807  0.82183043  0.93136566
   0.60729501  0.68151129  0.92968040
   0.89157539  0.18314967  0.92904004
   0.32074910  0.43126295  0.85468381
   0.43018360  0.60683832  0.81708328
   0.60738946  0.31717420  0.57145161
   0.89130724  0.68152871  0.06917237
   0.68907002  0.92355340  0.59597572
   0.13664562  0.18219192  0.43122296
   0.43145006  0.89180685  0.32020930
   0.31839707  0.07065632  0.39475479
   0.67426026  0.55919320  0.15280696
   0.93711289  0.87878377  0.17425351
   0.39443847  0.18246869  0.57186807
   0.35958574  0.31908857  0.06835550
   0.81968666  0.56831165  0.88758595
   0.80711043  0.92111549  0.41083436
   0.56858707  0.85831883  0.81957004
   0.57409606  0.59731668  0.31271664
   0.94053711  0.13016951  0.32995275
   0.07155124  0.10646970  0.81588730
   0.32653815  0.56146509  0.62219243
   0.31956263  0.93193845  0.14087762
   0.89133944  0.81797910  0.57062766
   0.10765761  0.81918352  0.06871065
   0.06789103  0.64054792  0.18148171
   0.37078514  0.00472838  0.25666393
   0.48853579  0.74793820  0.87472802
   0.62597373  0.00654134  0.75161983
   0.74545326  0.62872192  0.00665090
   0.12149398  0.49419791  0.25154740
   0.75507914  0.37266038  0.49783086
   0.24923659  0.12278845  0.51621187
   0.50721352  0.25194380  0.12522883
   0.74510074  0.12411472  0.00173893
  -0.00358600  0.75504340  0.12919438
   0.25495493  0.37946314 -0.00684017
   0.50011759  0.24993665  0.63748610
   0.01022536  0.74277415  0.63002269
   0.00374366  0.25929367  0.86804388
   0.37796384  0.49215840  0.73759843
   0.50113676  0.74996941  0.37909329
   0.13082438 -0.01123379  0.74265511
   0.24098227  0.88157322 -0.00007555
   0.87433046 -0.00254586  0.23321055
   0.24571808  0.63392158  0.49538435
Direct configuration=     4
   0.10327364  0.18769438  0.27895383
   0.90049207  0.80599378  0.71756008
   0.40064777  0.80471739  0.78411324
   0.59764822  0.18900650  0.22333992
   0.90321011  0.69778653  0.21463725
   0.10407870  0.30365845  0.78448447
   0.60060605  0.30634217  0.71820287
   0.40080201  0.69609587  0.27923699
   0.28428865  0.09540823  0.19540378
   0.71578244  0.89702524  0.80536862
   0.77549928  0.40001641  0.80488664
   0.21494703  0.59978503  0.19616342
   0.22526557  0.89788745  0.69128827
   0.78085633  0.10344502  0.31454243
   0.71784471  0.59712856  0.30239803
   0.27807412  0.40273523  0.69716337
   0.19972769  0.28618913  0.09500442
   0.80531910  0.71659430  0.90454209
   0.81017646  0.77971352  0.39702616
   0.19647122  0.22085184  0.59677799
   0.69627196  0.22165121  0.90082315
   0.30318405  0.78567055  0.09849723
   0.30749366  0.71534856  0.60139311
   0.69088320  0.28416931  0.39950921
   0.94732011  0.34531402  0.97174899
   0.05311850  0.65698228  0.03704591
   0.55511318  0.64605020  0.46649156
   0.44767468  0.34705678  0.52994546
   0.44083934  0.14936681  0.03439481
   0.55356700  0.84502287  0.96626515
   0.05156339  0.85048850  0.52551651
   0.94635081  0.14405261  0.47003331
   0.84967754  0.53609652  0.05147299
   0.15350239  0.46573322  0.94951379
   0.15517353  0.03303194  0.44101244
   0.85112429  0.96508198  0.55236226
   0.65085884  0.46475955  0.55497807
   0.33789338  0.54197640  0.45092120
   0.34946070  0.96620028  0.94968498
   0.64880988  0.02376577  0.05821276
   0.03503901  0.44753385  0.14773141
   0.97190923  0.55991172  0.85611460
   0.52681849  0.05276869  0.84880043
   0.46283700  0.94791547  0.15758308
   0.95384917  0.95043648  0.33550980
   0.03099313  0.05830309  0.65713857
   0.46592403  0.55881261  0.65039270
   0.52765954  0.45040725  0.35256442
   0.59477876  0.69880592  0.78619061
   0.39634165  0.30271429  0.21532182
   0.89748567  0.30357313  0.27462625
   0.10233371  0.69263462  0.72315567
   0.39821305  0.19354739  0.71844670
   0.59881573  0.80505739  0.27679168
   0.09809408  0.80201024  0.21559004
   0.90319190  0.19181546  0.78426186
   0.77459097  0.59845304  0.69346886
   0.22278502  0.40330511  0.30384688
   0.28373220  0.90159504  0.30036758
   0.72345924  0.09826279  0.69097638
   0.72153942  0.40492240  0.19640535
   0.28506987  0.59519956  0.80479933
   0.21796105  0.10115613  0.80695407
   0.78788037  0.90014987  0.19424444
   0.69474834  0.77933618  0.60289511
   0.29958161  0.21401178  0.40266223
   0.30178718  0.28587427  0.90294445
   0.69515566  0.71772925  0.10128344
   0.19527992  0.71432366  0.39920716
   0.80335842  0.28430612  0.60241928
   0.80896080  0.22003261  0.09815796
   0.19936987  0.77967897  0.90466854
   0.44144665  0.85334223  0.46657244
   0.54890109  0.15461458  0.53007281
   0.05180693  0.15009769  0.96616103
   0.94890118  0.84894149  0.03647237
   0.94275056  0.65307985  0.52814341
   0.06255220  0.35372703  0.47570925
   0.55191988  0.34861204  0.02707643
   0.44539739  0.65168988  0.96567432
   0.35108846  0.03498934  0.54916257
   0.65132803  0.97362808  0.44500013
   0.65045061  0.53619118  0.94698107
   0.34556923  0.46678446  0.05593167
   0.14818707  0.96700333  0.06102013
   0.85270152  0.03259547  0.94669294
   0.84692058  0.47289069  0.44382539
   0.16200064  0.54181338  0.54849353
   0.53322660  0.94124926  0.65049442
   0.46271473  0.05146328  0.34684572
   0.03463537  0.55975424  0.34778980
   0.97346416  0.44349834  0.64608687
   0.46498792  0.45243974  0.85095306
   0.52846416  0.56021129  0.15055914
   0.96818158  0.05232224  0.15349569
   0.03126536  0.94888047  0.84961136
   0.12962608  0.00355397  0.25153003
   0.86976492  0.00061742  0.74968618
   0.37358807  0.00195644  0.74974982
   0.62151742  0.00441953  0.24974798
   0.88062343  0.49218961  0.25386469
   0.11288851  0.50108878  0.74891312
   0.62843046  0.49663178  0.74992794
   0.38011542  0.49624939  0.24848594
   0.25137370  0.11911161 -0.00465460
   0.74704668  0.87935370 -0.00665851
   0.74712097  0.36803666 -0.00133033
   0.25004724  0.62461175 -0.00292806
   0.24739450  0.88221679  0.50791129
   0.75062682  0.13126233  0.50457446
   0.75156925  0.62975814  0.50387428
   0.24728367  0.37157596  0.50177452
  -0.00368163  0.25635594  0.13375797
  -0.00113612  0.74803359  0.86509244
  -0.00355075  0.74538393  0.38058889
  -0.00397596  0.25375057  0.62113257
   0.50636413  0.24720187  0.87184341
   0.50272792  0.74952430  0.12624963
   0.50462190  0.75063652  0.61883387
   0.50526943  0.25229058  0.36957061
   0.00056346 -0.00069292 -0.00648087
   0.50718056 -0.00119316  0.50222948
  -0.00691945  0.49497278  0.49837414
   0.50278769  0.49732993  0.00303200
   0.74784791  0.25485062  0.24509558
   0.24562343  0.75373161  0.75303423
   0.75283916  0.74601157  0.74729286
   0.24697589  0.25373298  0.25130222
   0.25019730  0.24867715  0.74534873
   0.74634382  0.74673067  0.25578952
   0.25518296  0.74840127  0.24736982
   0.75016427  0.24779205  0.75223910
   0.50140218  0.49963217  0.50328426
  -0.00388256  0.49592923 -0.00361362
   0.50439787  0.00426802 -0.00234818
   0.00205012  0.00304792  0.51079043
   0.82938009  0.43997141  0.65863680
   0.14026352  0.31844837  0.92886244
   0.17892487  0.43130331  0.11011218
   0.43191894  0.11204487  0.17947853
   0.17077545  0.55894903  0.37515488
   0.67368405  0.43619315  0.34507326
   0.35779378  0.82197036  0.93012379
   0.60911687  0.68061275  0.92984907
   0.88996188  0.18173137  0.92971302
   0.32018482  0.43018477  0.85565752
   0.43063383  0.60818233  0.81804570
   0.60934785  0.31852376  0.57038987
   0.88917311  0.67992596  0.06806214
   0.68957380  0.92271100  0.59472053
   0.13311321  0.18308383  0.42930992
   0.43220865  0.88951855  0.32192102
   0.31983327  0.07056922  0.39391272
   0.67407973  0.55815410  0.15391469
   0.93920372  0.87310208  0.17332602
   0.39358314  0.18102457  0.57054070
   0.36183399  0.31768642  0.06991266
   0.82147542  0.56720043  0.88396535
   0.80564557  0.92091953  0.41277964
   0.57012504  0.85991410  0.81867789
   0.57399549  0.59674128  0.31307890
   0.94091089  0.13469881  0.33182599
   0.07097012  0.10776316  0.81613073
   0.32605530  0.56191371  0.62349814
   0.31940300  0.93062281  0.13869959
   0.88899864  0.81956730  0.57017060
   0.10958521  0.81986437  0.06781789
   0.06914289  0.63851561  0.18212315
   0.36964594  0.00496390  0.25716571
   0.48759355  0.74812896  0.87441160
   0.62621521  0.00873005  0.75165317
   0.74508130  0.62886147  0.00745057
   0.12041308  0.49179864  0.25128243
   0.75661073  0.37224742  0.49678731
   0.24769225  0.12149819  0.51888041
   0.50992476  0.25258785  0.12535103
   0.74333889  0.12334464  0.00272284
  -0.00312203  0.75391926  0.12963183
   0.25571066  0.38033608 -0.00724611
   0.49998262  0.24993129  0.63991935
   0.01200777  0.74151726  0.62989282
   0.00254495  0.26117113  0.86656791
   0.38015319  0.48908902  0.73713292
   0.50144110  0.74957194  0.38023106
   0.13128247 -0.01319589  0.74156957
   0.23990535  0.88268995 -0.00180307
   0.86062174 -0.00136268  0.24532248
   0.25015208  0.63832788  0.49915010
Direct configuration=     5
   0.10347581  0.18690108  0.27887512
   0.89990327  0.80569722  0.71728547
   0.39982808  0.80495465  0.78424114
   0.59741461  0.18793052  0.22362908
   0.90253410  0.69811993  0.21439806
   0.10439977  0.30373873  0.78436788
   0.60096833  0.30634917  0.71852651
   0.40088950  0.69645239  0.27862751
   0.28448992  0.09618118  0.19527625
   0.71527531  0.89669322  0.80538545
   0.77473304  0.40007701  0.80505199
   0.21445554  0.59933197  0.19659454
   0.22676443  0.89699055  0.69022478
   0.78409938  0.09941617  0.31164960
   0.71797780  0.59744866  0.30187746
   0.27741636  0.40314935  0.69716102
   0.20056615  0.28673093  0.09524740
   0.80524020  0.71596913  0.90454021
   0.81070877  0.77913902  0.39694161
   0.19629500  0.22190935  0.59742200
   0.69621880  0.22151786  0.90089903
   0.30282530  0.78622295  0.09800110
   0.30626686  0.71358245  0.59941153
   0.69005121  0.28493474  0.39893522
   0.94757736  0.34597541  0.97236441
   0.05263869  0.65662810  0.03722764
   0.55552131  0.64569679  0.46637225
   0.44813696  0.34710795  0.52979164