 188 188   0   0
  0.1159222E+02  0.1296520E-08  0.1296500E-08  0.1296500E-08  0.2000000E-14
   1500.00000000000     
  CAR 
 unknown system                          
     12.75546750    -45.92286158  301      6.30696363      1.00000000
    -45.923  0.0000E+00  0.0000E+00
    -45.727  0.0000E+00  0.0000E+00
    -45.532  0.0000E+00  0.0000E+00
    -45.336  0.0000E+00  0.0000E+00
    -45.140  0.0000E+00  0.0000E+00
    -44.945  0.0000E+00  0.0000E+00
    -44.749  0.0000E+00  0.0000E+00
    -44.554  0.0000E+00  0.0000E+00
    -44.358  0.4603E-13  0.8960E-14
    -44.163  0.9557E-09  0.1861E-09
    -43.967  0.3141E-05  0.6119E-06
    -43.771  0.1673E-02  0.3265E-03
    -43.576  0.1515E+00  0.2984E-01
    -43.380  0.2566E+01  0.5296E+00
    -43.185  0.1001E+02  0.2478E+01
    -42.989  0.1509E+02  0.5414E+01
    -42.793  0.1882E+02  0.9076E+01
    -42.598  0.2253E+02  0.1346E+02
    -42.402  0.2407E+02  0.1815E+02
    -42.207  0.2266E+02  0.2257E+02
    -42.011  0.1870E+02  0.2622E+02
    -41.815  0.1331E+02  0.2882E+02
    -41.620  0.8201E+01  0.3042E+02
    -41.424  0.4423E+01  0.3129E+02
    -41.229  0.2164E+01  0.3171E+02
    -41.033  0.9368E+00  0.3190E+02
    -40.837  0.3533E+00  0.3197E+02
    -40.642  0.1230E+00  0.3199E+02
    -40.446  0.3441E-01  0.3200E+02
    -40.251  0.7607E-02  0.3200E+02
    -40.055  0.2180E-02  0.3200E+02
    -39.859  0.2853E-03  0.3200E+02
    -39.664  0.7884E-05  0.3200E+02
    -39.468  0.3744E-07  0.3200E+02
    -39.273  0.2820E-10  0.3200E+02
    -39.077  0.3244E-14  0.3200E+02
    -38.881  0.0000E+00  0.3200E+02
    -38.686  0.0000E+00  0.3200E+02
    -38.490  0.0000E+00  0.3200E+02
    -38.295  0.0000E+00  0.3200E+02
    -38.099  0.0000E+00  0.3200E+02
    -37.903  0.0000E+00  0.3200E+02
    -37.708  0.0000E+00  0.3200E+02
    -37.512  0.0000E+00  0.3200E+02
    -37.317  0.0000E+00  0.3200E+02
    -37.121  0.0000E+00  0.3200E+02
    -36.926  0.0000E+00  0.3200E+02
    -36.730  0.0000E+00  0.3200E+02
    -36.534  0.0000E+00  0.3200E+02
    -36.339  0.0000E+00  0.3200E+02
    -36.143  0.0000E+00  0.3200E+02
    -35.948  0.0000E+00  0.3200E+02
    -35.752  0.0000E+00  0.3200E+02
    -35.556  0.0000E+00  0.3200E+02
    -35.361  0.0000E+00  0.3200E+02
    -35.165  0.0000E+00  0.3200E+02
    -34.970  0.0000E+00  0.3200E+02
    -34.774  0.0000E+00  0.3200E+02
    -34.578  0.0000E+00  0.3200E+02
    -34.383  0.0000E+00  0.3200E+02
    -34.187  0.0000E+00  0.3200E+02
    -33.992  0.0000E+00  0.3200E+02
    -33.796  0.0000E+00  0.3200E+02
    -33.600  0.0000E+00  0.3200E+02
    -33.405  0.0000E+00  0.3200E+02
    -33.209  0.0000E+00  0.3200E+02
    -33.014  0.0000E+00  0.3200E+02
    -32.818  0.0000E+00  0.3200E+02
    -32.622  0.0000E+00  0.3200E+02
    -32.427  0.0000E+00  0.3200E+02
    -32.231  0.0000E+00  0.3200E+02
    -32.036  0.0000E+00  0.3200E+02
    -31.840  0.0000E+00  0.3200E+02
    -31.644  0.0000E+00  0.3200E+02
    -31.449  0.0000E+00  0.3200E+02
    -31.253  0.0000E+00  0.3200E+02
    -31.058  0.0000E+00  0.3200E+02
    -30.862  0.0000E+00  0.3200E+02
    -30.666  0.0000E+00  0.3200E+02
    -30.471  0.0000E+00  0.3200E+02
    -30.275  0.0000E+00  0.3200E+02
    -30.080  0.0000E+00  0.3200E+02
    -29.884  0.0000E+00  0.3200E+02
    -29.689  0.0000E+00  0.3200E+02
    -29.493  0.0000E+00  0.3200E+02
    -29.297  0.0000E+00  0.3200E+02
    -29.102  0.0000E+00  0.3200E+02
    -28.906  0.0000E+00  0.3200E+02
    -28.711  0.0000E+00  0.3200E+02
    -28.515  0.0000E+00  0.3200E+02
    -28.319  0.0000E+00  0.3200E+02
    -28.124  0.0000E+00  0.3200E+02
    -27.928  0.8265E-17  0.3200E+02
    -27.733  0.1950E-12  0.3200E+02
    -27.537  0.7794E-09  0.3200E+02
    -27.341  0.5594E-06  0.3200E+02
    -27.146  0.8002E-04  0.3200E+02
    -26.950  0.2742E-02  0.3200E+02
    -26.755  0.3102E-01  0.3201E+02
    -26.559  0.1798E+00  0.3204E+02
    -26.363  0.6884E+00  0.3218E+02
    -26.168  0.1975E+01  0.3256E+02
    -25.972  0.4862E+01  0.3350E+02
    -25.777  0.1023E+02  0.3549E+02
    -25.581  0.1838E+02  0.3907E+02
    -25.385  0.2812E+02  0.4454E+02
    -25.190  0.3628E+02  0.5161E+02
    -24.994  0.3967E+02  0.5934E+02
    -24.799  0.3686E+02  0.6653E+02
    -24.603  0.2902E+02  0.7220E+02
    -24.407  0.1940E+02  0.7598E+02
    -24.212  0.1111E+02  0.7816E+02
    -24.016  0.5591E+01  0.7925E+02
    -23.821  0.2517E+01  0.7974E+02
    -23.625  0.9461E+00  0.7993E+02
    -23.430  0.2762E+00  0.7998E+02
    -23.234  0.7586E-01  0.8000E+02
    -23.038  0.1862E-01  0.8000E+02
    -22.843  0.1927E-02  0.8000E+02
    -22.647  0.4967E-04  0.8000E+02
    -22.452  0.2360E-04  0.8000E+02
    -22.256  0.1566E-02  0.8000E+02
    -22.060  0.3555E-01  0.8001E+02
    -21.865  0.4457E+00  0.8009E+02
    -21.669  0.3388E+01  0.8076E+02
    -21.474  0.1443E+02  0.8357E+02
    -21.278  0.3462E+02  0.9031E+02
    -21.082  0.5554E+02  0.1011E+03
    -20.887  0.7313E+02  0.1154E+03
    -20.691  0.8315E+02  0.1316E+03
    -20.496  0.8041E+02  0.1472E+03
    -20.300  0.6482E+02  0.1599E+03
    -20.104  0.4303E+02  0.1683E+03
    -19.909  0.2332E+02  0.1728E+03
    -19.713  0.1048E+02  0.1749E+03
    -19.518  0.3999E+01  0.1757E+03
    -19.322  0.1274E+01  0.1759E+03
    -19.126  0.3236E+00  0.1760E+03
    -18.931  0.6208E-01  0.1760E+03
    -18.735  0.8713E-02  0.1760E+03
    -18.540  0.5656E-03  0.1760E+03
    -18.344  0.9424E-05  0.1760E+03
    -18.148  0.3005E-07  0.1760E+03
    -17.953  0.1619E-10  0.1760E+03
    -17.757  0.1387E-14  0.1760E+03
    -17.562  0.0000E+00  0.1760E+03
    -17.366  0.0000E+00  0.1760E+03
    -17.170  0.0000E+00  0.1760E+03
    -16.975  0.0000E+00  0.1760E+03
    -16.779  0.0000E+00  0.1760E+03
    -16.584  0.0000E+00  0.1760E+03
    -16.388  0.0000E+00  0.1760E+03
    -16.193  0.0000E+00  0.1760E+03
    -15.997  0.5008E-17  0.1760E+03
    -15.801  0.1253E-12  0.1760E+03
    -15.606  0.4967E-09  0.1760E+03
    -15.410  0.3154E-06  0.1760E+03
    -15.215  0.3372E-04  0.1760E+03
    -15.019  0.6745E-03  0.1760E+03
    -14.823  0.3222E-02  0.1760E+03
    -14.628  0.6874E-02  0.1760E+03
    -14.432  0.1903E-01  0.1760E+03
    -14.237  0.7173E-01  0.1760E+03
    -14.041  0.2333E+00  0.1761E+03
    -13.845  0.7013E+00  0.1762E+03
    -13.650  0.1851E+01  0.1766E+03
    -13.454  0.4255E+01  0.1774E+03
    -13.259  0.8380E+01  0.1790E+03
    -13.063  0.1477E+02  0.1819E+03
    -12.867  0.2426E+02  0.1866E+03
    -12.672  0.3620E+02  0.1937E+03
    -12.476  0.4871E+02  0.2032E+03
    -12.281  0.6032E+02  0.2149E+03
    -12.085  0.7021E+02  0.2286E+03
    -11.889  0.7800E+02  0.2438E+03
    -11.694  0.8335E+02  0.2601E+03
    -11.498  0.8642E+02  0.2769E+03
    -11.303  0.8694E+02  0.2938E+03
    -11.107  0.8473E+02  0.3104E+03
    -10.911  0.7941E+02  0.3258E+03
    -10.716  0.7045E+02  0.3396E+03
    -10.520  0.5727E+02  0.3507E+03
    -10.325  0.4117E+02  0.3588E+03
    -10.129  0.2559E+02  0.3638E+03
     -9.933  0.1349E+02  0.3664E+03
     -9.738  0.6752E+01  0.3677E+03
     -9.542  0.6278E+01  0.3690E+03
     -9.347  0.1246E+02  0.3714E+03
     -9.151  0.2572E+02  0.3764E+03
     -8.956  0.4450E+02  0.3851E+03
     -8.760  0.6349E+02  0.3974E+03
     -8.564  0.7709E+02  0.4124E+03
     -8.369  0.8326E+02  0.4287E+03
     -8.173  0.8350E+02  0.4450E+03
     -7.978  0.7978E+02  0.4605E+03
     -7.782  0.7308E+02  0.4748E+03
     -7.586  0.6331E+02  0.4871E+03
     -7.391  0.5036E+02  0.4969E+03
     -7.195  0.3564E+02  0.5039E+03
     -7.000  0.2190E+02  0.5081E+03
     -6.804  0.1157E+02  0.5104E+03
     -6.608  0.5199E+01  0.5114E+03
     -6.413  0.2032E+01  0.5118E+03
     -6.217  0.6871E+00  0.5120E+03
     -6.022  0.1904E+00  0.5120E+03
     -5.826  0.4449E-01  0.5120E+03
     -5.630  0.6459E-02  0.5120E+03
     -5.435  0.3214E-03  0.5120E+03
     -5.239  0.3673E-05  0.5120E+03
     -5.044  0.7901E-08  0.5120E+03
     -4.848  0.2908E-11  0.5120E+03
     -4.652  0.1743E-15  0.5120E+03
     -4.457  0.0000E+00  0.5120E+03
     -4.261  0.0000E+00  0.5120E+03
     -4.066  0.0000E+00  0.5120E+03
     -3.870  0.0000E+00  0.5120E+03
     -3.674  0.0000E+00  0.5120E+03
     -3.479  0.0000E+00  0.5120E+03
     -3.283  0.0000E+00  0.5120E+03
     -3.088  0.0000E+00  0.5120E+03
     -2.892  0.0000E+00  0.5120E+03
     -2.696  0.0000E+00  0.5120E+03
     -2.501  0.2385E-15  0.5120E+03
     -2.305  0.3609E-11  0.5120E+03
     -2.110  0.9059E-08  0.5120E+03
     -1.914  0.3983E-05  0.5120E+03
     -1.719  0.3352E-03  0.5120E+03
     -1.523  0.6398E-02  0.5120E+03
     -1.327  0.4119E-01  0.5120E+03
     -1.132  0.1730E+00  0.5120E+03
     -0.936  0.5745E+00  0.5122E+03
     -0.741  0.1441E+01  0.5124E+03
     -0.545  0.2832E+01  0.5130E+03
     -0.349  0.4248E+01  0.5138E+03
     -0.154  0.4673E+01  0.5147E+03
      0.042  0.3864E+01  0.5155E+03
      0.237  0.3655E+01  0.5162E+03
      0.433  0.6473E+01  0.5175E+03
      0.629  0.1491E+02  0.5204E+03
      0.824  0.2980E+02  0.5262E+03
      1.020  0.5000E+02  0.5359E+03
      1.215  0.7531E+02  0.5506E+03
      1.411  0.1017E+03  0.5704E+03
      1.607  0.1238E+03  0.5945E+03
      1.802  0.1398E+03  0.6218E+03
      1.998  0.1502E+03  0.6511E+03
      2.193  0.1551E+03  0.6813E+03
      2.389  0.1548E+03  0.7115E+03
      2.585  0.1517E+03  0.7410E+03
      2.780  0.1492E+03  0.7701E+03
      2.976  0.1491E+03  0.7992E+03
      3.171  0.1503E+03  0.8285E+03
      3.367  0.1523E+03  0.8582E+03
      3.563  0.1562E+03  0.8886E+03
      3.758  0.1607E+03  0.9200E+03
      3.954  0.1625E+03  0.9516E+03
      4.149  0.1594E+03  0.9827E+03
      4.345  0.1502E+03  0.1012E+04
      4.541  0.1328E+03  0.1038E+04
      4.736  0.1064E+03  0.1059E+04
      4.932  0.7452E+02  0.1073E+04
      5.127  0.4402E+02  0.1082E+04
      5.323  0.2105E+02  0.1086E+04
      5.518  0.7934E+01  0.1087E+04
      5.714  0.2470E+01  0.1088E+04
      5.910  0.6555E+00  0.1088E+04
      6.105  0.1453E+00  0.1088E+04
      6.301  0.2356E-01  0.1088E+04
      6.496  0.1717E-02  0.1088E+04
      6.692  0.3574E-04  0.1088E+04
      6.888  0.2172E-04  0.1088E+04
      7.083  0.6828E-03  0.1088E+04
      7.279  0.6351E-02  0.1088E+04
      7.474  0.3384E-01  0.1088E+04
      7.670  0.1632E+00  0.1088E+04
      7.866  0.7131E+00  0.1088E+04
      8.061  0.2537E+01  0.1089E+04
      8.257  0.7638E+01  0.1090E+04
      8.452  0.1824E+02  0.1094E+04
      8.648  0.3485E+02  0.1101E+04
      8.844  0.5624E+02  0.1111E+04
      9.039  0.8105E+02  0.1127E+04
      9.235  0.1087E+03  0.1148E+04
      9.430  0.1400E+03  0.1176E+04
      9.626  0.1762E+03  0.1210E+04
      9.822  0.2116E+03  0.1251E+04
     10.017  0.1996E+03  0.1290E+04
     10.213  0.9579E+02  0.1309E+04
     10.408  0.1525E+02  0.1312E+04
     10.604  0.6036E+00  0.1312E+04
     10.800  0.4934E-02  0.1312E+04
     10.995  0.7416E-05  0.1312E+04
     11.191  0.1913E-08  0.1312E+04
     11.386  0.7996E-13  0.1312E+04
     11.582  0.0000E+00  0.1312E+04
     11.777  0.0000E+00  0.1312E+04
     11.973  0.0000E+00  0.1312E+04
     12.169  0.0000E+00  0.1312E+04
     12.364  0.0000E+00  0.1312E+04
     12.560  0.0000E+00  0.1312E+04
     12.755  0.0000E+00  0.1312E+04
     12.77023249    -45.90032703  301      6.32258246      1.00000000
    -45.900  0.0000E+00  0.0000E+00
    -45.705  0.0000E+00  0.0000E+00
    -45.509  0.0000E+00  0.0000E+00
    -45.314  0.0000E+00  0.0000E+00
    -45.118  0.0000E+00  0.0000E+00
    -44.922  0.0000E+00  0.0000E+00
    -44.727  0.0000E+00  0.0000E+00
    -44.531  0.0000E+00  0.0000E+00
    -44.336  0.6585E-17  0.1288E-17
    -44.140  0.1473E-12  0.2881E-13
    -43.945  0.5050E-09  0.9879E-10
    -43.749  0.2721E-06  0.5332E-07
    -43.554  0.2391E-04  0.4730E-05
    -43.358  0.3651E-03  0.7613E-04
    -43.162  0.1112E-02  0.2936E-03
    -42.967  0.1276E-02  0.5431E-03
    -42.771  0.1943E-02  0.9231E-03
    -42.576  0.3641E-02  0.1635E-02
    -42.380  0.3987E-02  0.2415E-02
    -42.185  0.4175E-02  0.3231E-02
    -41.989  0.5432E-02  0.4294E-02
    -41.793  0.4473E-02  0.5169E-02
    -41.598  0.2845E-02  0.5725E-02
    -41.402  0.1995E-02  0.6115E-02
    -41.207  0.1156E-02  0.6341E-02
    -41.011  0.2852E-03  0.6397E-02
    -40.816  0.1480E-04  0.6400E-02
    -40.620  0.1334E-06  0.6400E-02
    -40.424  0.1950E-09  0.6400E-02
    -40.229  0.4465E-13  0.6400E-02
    -40.033  0.1590E-17  0.6400E-02
    -39.838  0.0000E+00  0.6400E-02
    -39.642  0.0000E+00  0.6400E-02
    -39.447  0.0000E+00  0.6400E-02
    -39.251  0.0000E+00  0.6400E-02
    -39.055  0.0000E+00  0.6400E-02
    -38.860  0.0000E+00  0.6400E-02
    -38.664  0.0000E+00  0.6400E-02
    -38.469  0.0000E+00  0.6400E-02
    -38.273  0.0000E+00  0.6400E-02
    -38.078  0.0000E+00  0.6400E-02
    -37.882  0.0000E+00  0.6400E-02
    -37.686  0.0000E+00  0.6400E-02
    -37.491  0.0000E+00  0.6400E-02
    -37.295  0.0000E+00  0.6400E-02
    -37.100  0.0000E+00  0.6400E-02
    -36.904  0.0000E+00  0.6400E-02
    -36.709  0.0000E+00  0.6400E-02
    -36.513  0.0000E+00  0.6400E-02
    -36.317  0.0000E+00  0.6400E-02
    -36.122  0.0000E+00  0.6400E-02
    -35.926  0.0000E+00  0.6400E-02
    -35.731  0.0000E+00  0.6400E-02
    -35.535  0.0000E+00  0.6400E-02
    -35.340  0.0000E+00  0.6400E-02
    -35.144  0.0000E+00  0.6400E-02
    -34.948  0.0000E+00  0.6400E-02
    -34.753  0.0000E+00  0.6400E-02
    -34.557  0.0000E+00  0.6400E-02
    -34.362  0.0000E+00  0.6400E-02
    -34.166  0.0000E+00  0.6400E-02
    -33.971  0.0000E+00  0.6400E-02
    -33.775  0.0000E+00  0.6400E-02
    -33.580  0.0000E+00  0.6400E-02
    -33.384  0.0000E+00  0.6400E-02
    -33.188  0.0000E+00  0.6400E-02
    -32.993  0.0000E+00  0.6400E-02
    -32.797  0.0000E+00  0.6400E-02
    -32.602  0.0000E+00  0.6400E-02
    -32.406  0.0000E+00  0.6400E-02
    -32.211  0.0000E+00  0.6400E-02
    -32.015  0.0000E+00  0.6400E-02
    -31.819  0.0000E+00  0.6400E-02
    -31.624  0.0000E+00  0.6400E-02
    -31.428  0.0000E+00  0.6400E-02
    -31.233  0.0000E+00  0.6400E-02
    -31.037  0.0000E+00  0.6400E-02
    -30.842  0.0000E+00  0.6400E-02
    -30.646  0.0000E+00  0.6400E-02
    -30.450  0.0000E+00  0.6400E-02
    -30.255  0.0000E+00  0.6400E-02
    -30.059  0.0000E+00  0.6400E-02
    -29.864  0.0000E+00  0.6400E-02
    -29.668  0.0000E+00  0.6400E-02
    -29.473  0.0000E+00  0.6400E-02
    -29.277  0.0000E+00  0.6400E-02
    -29.081  0.0000E+00  0.6400E-02
    -28.886  0.0000E+00  0.6400E-02
    -28.690  0.0000E+00  0.6400E-02
    -28.495  0.0000E+00  0.6400E-02
    -28.299  0.0000E+00  0.6400E-02
    -28.104  0.0000E+00  0.6400E-02
    -27.908  0.0000E+00  0.6400E-02
    -27.712  0.0000E+00  0.6400E-02
    -27.517  0.0000E+00  0.6400E-02
    -27.321  0.0000E+00  0.6400E-02
    -27.126  0.1022E-17  0.6400E-02
    -26.930  0.3128E-13  0.6400E-02
    -26.735  0.1466E-09  0.6400E-02
    -26.539  0.1077E-06  0.6400E-02
    -26.343  0.1284E-04  0.6403E-02
    -26.148  0.2698E-03  0.6455E-02
    -25.952  0.1246E-02  0.6699E-02
    -25.757  0.2246E-02  0.7138E-02
    -25.561  0.2926E-02  0.7710E-02
    -25.366  0.5116E-02  0.8711E-02
    -25.170  0.6525E-02  0.9987E-02
    -24.974  0.4931E-02  0.1095E-01
    -24.779  0.5563E-02  0.1204E-01
    -24.583  0.8057E-02  0.1361E-01
    -24.388  0.7432E-02  0.1507E-01
    -24.192  0.3740E-02  0.1580E-01
    -23.997  0.9379E-03  0.1598E-01
    -23.801  0.8357E-04  0.1600E-01
    -23.606  0.1660E-05  0.1600E-01
    -23.410  0.5794E-08  0.1600E-01
    -23.214  0.3252E-11  0.1600E-01
    -23.019  0.2834E-15  0.1600E-01
    -22.823  0.3463E-16  0.1600E-01
    -22.628  0.5787E-12  0.1600E-01
    -22.432  0.1492E-08  0.1600E-01
    -22.237  0.6072E-06  0.1600E-01
    -22.041  0.4073E-04  0.1601E-01
    -21.845  0.4933E-03  0.1610E-01
    -21.650  0.1448E-02  0.1639E-01
    -21.454  0.2210E-02  0.1682E-01
    -21.259  0.2474E-02  0.1730E-01
    -21.063  0.5712E-02  0.1842E-01
    -20.868  0.1226E-01  0.2082E-01
    -20.672  0.1412E-01  0.2358E-01
    -20.476  0.1485E-01  0.2648E-01
    -20.281  0.1662E-01  0.2973E-01
    -20.085  0.1399E-01  0.3247E-01
    -19.890  0.7908E-02  0.3402E-01
    -19.694  0.4093E-02  0.3482E-01
    -19.499  0.1688E-02  0.3515E-01
    -19.303  0.2663E-03  0.3520E-01
    -19.107  0.9720E-05  0.3520E-01
    -18.912  0.6580E-07  0.3520E-01
    -18.716  0.7427E-10  0.3520E-01
    -18.521  0.1327E-13  0.3520E-01
    -18.325  0.4542E-18  0.3520E-01
    -18.130  0.0000E+00  0.3520E-01
    -17.934  0.0000E+00  0.3520E-01
    -17.738  0.0000E+00  0.3520E-01
    -17.543  0.0000E+00  0.3520E-01
    -17.347  0.0000E+00  0.3520E-01
    -17.152  0.0000E+00  0.3520E-01
    -16.956  0.0000E+00  0.3520E-01
    -16.761  0.0000E+00  0.3520E-01
    -16.565  0.0000E+00  0.3520E-01
    -16.369  0.0000E+00  0.3520E-01
    -16.174  0.0000E+00  0.3520E-01
    -15.978  0.0000E+00  0.3520E-01
    -15.783  0.0000E+00  0.3520E-01
    -15.587  0.0000E+00  0.3520E-01
    -15.392  0.0000E+00  0.3520E-01
    -15.196  0.0000E+00  0.3520E-01
    -15.000  0.0000E+00  0.3520E-01
    -14.805  0.0000E+00  0.3520E-01
    -14.609  0.0000E+00  0.3520E-01
    -14.414  0.2791E-15  0.3520E-01
    -14.218  0.3208E-11  0.3520E-01
    -14.023  0.5713E-08  0.3520E-01
    -13.827  0.1617E-05  0.3520E-01
    -13.632  0.7624E-04  0.3522E-01
    -13.436  0.6611E-03  0.3534E-01
    -13.240  0.1454E-02  0.3563E-01
    -13.045  0.2379E-02  0.3609E-01
    -12.849  0.4988E-02  0.3707E-01
    -12.654  0.7299E-02  0.3850E-01
    -12.458  0.8623E-02  0.4018E-01
    -12.263  0.8814E-02  0.4191E-01
    -12.067  0.1142E-01  0.4414E-01
    -11.871  0.1467E-01  0.4701E-01
    -11.676  0.1504E-01  0.4995E-01
    -11.480  0.1477E-01  0.5284E-01
    -11.285  0.1640E-01  0.5605E-01
    -11.089  0.1701E-01  0.5937E-01
    -10.894  0.1672E-01  0.6264E-01
    -10.698  0.1729E-01  0.6603E-01
    -10.502  0.1562E-01  0.6908E-01
    -10.307  0.1232E-01  0.7149E-01
    -10.111  0.6813E-02  0.7282E-01
     -9.916  0.1933E-02  0.7320E-01
     -9.720  0.1262E-02  0.7345E-01
     -9.525  0.2021E-02  0.7384E-01
     -9.329  0.2292E-02  0.7429E-01
     -9.133  0.5599E-02  0.7539E-01
     -8.938  0.8951E-02  0.7714E-01
     -8.742  0.1333E-01  0.7974E-01
     -8.547  0.1634E-01  0.8294E-01
     -8.351  0.1401E-01  0.8568E-01
     -8.156  0.1273E-01  0.8817E-01
     -7.960  0.1492E-01  0.9109E-01
     -7.764  0.1517E-01  0.9406E-01
     -7.569  0.1442E-01  0.9688E-01
     -7.373  0.1193E-01  0.9921E-01
     -7.178  0.8283E-02  0.1008E+00
     -6.982  0.5315E-02  0.1019E+00
     -6.787  0.2342E-02  0.1023E+00
     -6.591  0.3646E-03  0.1024E+00
     -6.395  0.1254E-04  0.1024E+00
     -6.200  0.7754E-07  0.1024E+00
     -6.004  0.7900E-10  0.1024E+00
     -5.809  0.1276E-13  0.1024E+00
     -5.613  0.2271E-18  0.1024E+00
     -5.418  0.0000E+00  0.1024E+00
     -5.222  0.0000E+00  0.1024E+00
     -5.027  0.0000E+00  0.1024E+00
     -4.831  0.0000E+00  0.1024E+00
     -4.635  0.0000E+00  0.1024E+00
     -4.440  0.0000E+00  0.1024E+00
     -4.244  0.0000E+00  0.1024E+00
     -4.049  0.0000E+00  0.1024E+00
     -3.853  0.0000E+00  0.1024E+00
     -3.658  0.0000E+00  0.1024E+00
     -3.462  0.0000E+00  0.1024E+00
     -3.266  0.0000E+00  0.1024E+00
     -3.071  0.0000E+00  0.1024E+00
     -2.875  0.0000E+00  0.1024E+00
     -2.680  0.0000E+00  0.1024E+00
     -2.484  0.0000E+00  0.1024E+00
     -2.289  0.0000E+00  0.1024E+00
     -2.093  0.0000E+00  0.1024E+00
     -1.897  0.0000E+00  0.1024E+00
     -1.702  0.2475E-15  0.1024E+00
     -1.506  0.2908E-11  0.1024E+00
     -1.311  0.5292E-08  0.1024E+00
     -1.115  0.1529E-05  0.1024E+00
     -0.920  0.7330E-04  0.1024E+00
     -0.724  0.6233E-03  0.1025E+00
     -0.528  0.1010E-02  0.1027E+00
     -0.333  0.3241E-03  0.1028E+00
     -0.137  0.1777E-03  0.1028E+00
      0.058  0.8554E-03  0.1030E+00
      0.254  0.1217E-02  0.1032E+00
      0.449  0.2259E-02  0.1037E+00
      0.645  0.3962E-02  0.1045E+00
      0.841  0.5002E-02  0.1054E+00
      1.036  0.8764E-02  0.1071E+00
      1.232  0.1517E-01  0.1101E+00
      1.427  0.1836E-01  0.1137E+00
      1.623  0.2142E-01  0.1179E+00
      1.818  0.2556E-01  0.1229E+00
      2.014  0.2858E-01  0.1285E+00
      2.210  0.3060E-01  0.1345E+00
      2.405  0.3058E-01  0.1404E+00
      2.601  0.3001E-01  0.1463E+00
      2.796  0.3075E-01  0.1523E+00
      2.992  0.3021E-01  0.1582E+00
      3.187  0.3031E-01  0.1642E+00
      3.383  0.2992E-01  0.1700E+00
      3.579  0.2859E-01  0.1756E+00
      3.774  0.3025E-01  0.1815E+00
      3.970  0.3148E-01  0.1877E+00
      4.165  0.3179E-01  0.1939E+00
      4.361  0.3146E-01  0.2001E+00
      4.556  0.2955E-01  0.2058E+00
      4.752  0.2576E-01  0.2109E+00
      4.947  0.1835E-01  0.2145E+00
      5.143  0.1025E-01  0.2165E+00
      5.339  0.4671E-02  0.2174E+00
      5.534  0.1077E-02  0.2176E+00
      5.730  0.7708E-04  0.2176E+00
      5.925  0.1227E-05  0.2176E+00
      6.121  0.3553E-08  0.2176E+00
      6.316  0.1692E-11  0.2176E+00
      6.512  0.1263E-15  0.2176E+00
      6.708  0.0000E+00  0.2176E+00
      6.903  0.2952E-17  0.2176E+00
      7.099  0.7674E-13  0.2176E+00
      7.294  0.3109E-09  0.2176E+00
      7.490  0.2027E-06  0.2176E+00
      7.685  0.2246E-04  0.2176E+00
      7.881  0.4647E-03  0.2177E+00
      8.077  0.2098E-02  0.2181E+00
      8.272  0.2799E-02  0.2187E+00
      8.468  0.3454E-02  0.2193E+00
      8.663  0.6807E-02  0.2207E+00
      8.859  0.1154E-01  0.2229E+00
      9.054  0.1982E-01  0.2268E+00
      9.250  0.2636E-01  0.2319E+00
      9.446  0.3076E-01  0.2380E+00
      9.641  0.3724E-01  0.2452E+00
      9.837  0.3895E-01  0.2529E+00
     10.032  0.3193E-01  0.2591E+00
     10.228  0.1447E-01  0.2619E+00
     10.423  0.2277E-02  0.2624E+00
     10.619  0.9280E-04  0.2624E+00
     10.815  0.7943E-06  0.2624E+00
     11.010  0.1236E-08  0.2624E+00
     11.206  0.3216E-12  0.2624E+00
     11.401  0.1317E-16  0.2624E+00
     11.597  0.0000E+00  0.2624E+00
     11.792  0.0000E+00  0.2624E+00
     11.988  0.0000E+00  0.2624E+00
     12.184  0.0000E+00  0.2624E+00
     12.379  0.0000E+00  0.2624E+00
     12.575  0.0000E+00  0.2624E+00
     12.770  0.0000E+00  0.2624E+00
