       N       E                     dE             d eps       ncg     rms          rms(c)
DAV:   1     0.272306648608E+05    0.27231E+05   -0.38457E+05  1496   0.256E+03
DAV:   2     0.100842636238E+05   -0.17146E+05   -0.15893E+05  1432   0.774E+02
DAV:   3     0.280381430700E+04   -0.72804E+04   -0.66304E+04  1480   0.369E+02
DAV:   4    -0.391549542435E+03   -0.31954E+04   -0.29807E+04  2040   0.229E+02
DAV:   5    -0.145968557285E+04   -0.10681E+04   -0.10299E+04  2536   0.141E+02    0.116E+02
DAV:   6    -0.133820046277E+04    0.12149E+03   -0.14231E+03  2440   0.646E+01    0.498E+01
DAV:   7    -0.136095914450E+04   -0.22759E+02   -0.35815E+02  2536   0.326E+01    0.231E+01
DAV:   8    -0.137435761475E+04   -0.13398E+02   -0.26611E+02  2520   0.256E+01    0.282E+01
DAV:   9    -0.136357353556E+04    0.10784E+02   -0.78925E+01  2392   0.158E+01    0.647E+00
DAV:  10    -0.136537949432E+04   -0.18060E+01   -0.13595E+01  2600   0.873E+00    0.886E+00
DAV:  11    -0.136507420546E+04    0.30529E+00   -0.67783E+00  2600   0.465E+00    0.345E+00
DAV:  12    -0.136506073086E+04    0.13475E-01   -0.25637E+00  2600   0.332E+00    0.252E+00
DAV:  13    -0.136509864394E+04   -0.37913E-01   -0.92946E-01  2592   0.197E+00    0.187E+00
DAV:  14    -0.136509552915E+04    0.31148E-02   -0.17957E-01  2624   0.925E-01    0.142E+00
DAV:  15    -0.136508897197E+04    0.65572E-02   -0.15448E-01  2456   0.817E-01    0.884E-01
DAV:  16    -0.136509349753E+04   -0.45256E-02   -0.46032E-02  2592   0.441E-01    0.513E-01
DAV:  17    -0.136509104285E+04    0.24547E-02   -0.12171E-02  2528   0.274E-01    0.324E-01
DAV:  18    -0.136509098603E+04    0.56821E-04   -0.37101E-03  2544   0.114E-01    0.218E-01
DAV:  19    -0.136509116370E+04   -0.17767E-03   -0.10789E-03  2592   0.700E-02    0.272E-01
DAV:  20    -0.136509076567E+04    0.39803E-03   -0.17329E-03  2344   0.786E-02    0.175E-01
DAV:  21    -0.136509060643E+04    0.15924E-03   -0.68540E-04  2400   0.522E-02    0.116E-01
DAV:  22    -0.136509056288E+04    0.43548E-04   -0.30114E-04  2480   0.339E-02    0.933E-02
DAV:  23    -0.136509056297E+04   -0.91284E-07   -0.51956E-05  2488   0.160E-02    0.664E-02
DAV:  24    -0.136509055922E+04    0.37448E-05   -0.19493E-05  1816   0.873E-03    0.545E-02
DAV:  25    -0.136509055549E+04    0.37336E-05   -0.31894E-05  2048   0.101E-02    0.256E-02
DAV:  26    -0.136509055565E+04   -0.16335E-06   -0.36271E-06  1160   0.617E-03
   1 F= -.13650906E+04 E0= -.13650906E+04  d E =-.136509E+04
       N       E                     dE             d eps       ncg     rms          rms(c)
DAV:   1    -0.136513554149E+04   -0.44986E-01   -0.46956E+00  1456   0.308E+00    0.350E-01
DAV:   2    -0.136515892068E+04   -0.23379E-01   -0.24573E-01  2312   0.122E+00    0.179E-01
DAV:   3    -0.136516023870E+04   -0.13180E-02   -0.18718E-02  2576   0.223E-01    0.146E-01
DAV:   4    -0.136515995519E+04    0.28351E-03   -0.17379E-03  2576   0.982E-02    0.103E-01
DAV:   5    -0.136515968398E+04    0.27121E-03   -0.10122E-03  2208   0.639E-02    0.385E-02
DAV:   6    -0.136515971844E+04   -0.34456E-04   -0.65755E-04  2424   0.474E-02    0.359E-02
DAV:   7    -0.136515971336E+04    0.50816E-05   -0.26243E-04  2392   0.300E-02    0.244E-02
DAV:   8    -0.136515971079E+04    0.25692E-05   -0.94613E-05  2536   0.190E-02    0.130E-02
DAV:   9    -0.136515970994E+04    0.84157E-06   -0.16896E-05  2072   0.923E-03    0.921E-03
DAV:  10    -0.136515971005E+04   -0.10562E-06   -0.87295E-06  1568   0.613E-03
   2 F= -.13651597E+04 E0= -.13651597E+04  d E =-.691544E-01
       N       E                     dE             d eps       ncg     rms          rms(c)
DAV:   1    -0.136520288629E+04   -0.43176E-01   -0.39347E+00  1392   0.283E+00    0.330E-01
DAV:   2    -0.136522241933E+04   -0.19533E-01   -0.20625E-01  2288   0.111E+00    0.171E-01
DAV:   3    -0.136522352311E+04   -0.11038E-02   -0.15927E-02  2600   0.213E-01    0.139E-01
DAV:   4    -0.136522325416E+04    0.26896E-03   -0.15542E-03  2600   0.929E-02    0.957E-02
DAV:   5    -0.136522300965E+04    0.24450E-03   -0.98365E-04  2224   0.683E-02    0.336E-02
DAV:   6    -0.136522305485E+04   -0.45198E-04   -0.68075E-04  2504   0.488E-02    0.373E-02
DAV:   7    -0.136522304993E+04    0.49214E-05   -0.20134E-04  2472   0.265E-02    0.250E-02
DAV:   8    -0.136522304543E+04    0.45018E-05   -0.65041E-05  2552   0.157E-02    0.123E-02
DAV:   9    -0.136522304455E+04    0.87314E-06   -0.12518E-05  2040   0.793E-03    0.778E-03
DAV:  10    -0.136522304449E+04    0.60929E-07   -0.26866E-06  1072   0.488E-03
   3 F= -.13652230E+04 E0= -.13652230E+04  d E =-.633344E-01
       N       E                     dE             d eps       ncg     rms          rms(c)
DAV:   1    -0.136497202401E+04    0.25102E+00   -0.10665E+02  1376   0.146E+01    0.160E+00
DAV:   2    -0.136550935372E+04   -0.53733E+00   -0.56269E+00  2312   0.578E+00    0.829E-01
DAV:   3    -0.136554081039E+04   -0.31457E-01   -0.42635E-01  2584   0.107E+00    0.674E-01
DAV:   4    -0.136553650709E+04    0.43033E-02   -0.36943E-02  2608   0.448E-01    0.512E-01
DAV:   5    -0.136552961892E+04    0.68882E-02   -0.16910E-02  2280   0.276E-01    0.240E-01
DAV:   6    -0.136552930832E+04    0.31060E-03   -0.17497E-02  2232   0.247E-01    0.137E-01
DAV:   7    -0.136552959792E+04   -0.28960E-03   -0.87264E-03  2392   0.165E-01    0.131E-01
DAV:   8    -0.136552952086E+04    0.77057E-04   -0.19734E-03  2584   0.943E-02    0.889E-02
DAV:   9    -0.136552942821E+04    0.92649E-04   -0.96091E-04  2552   0.563E-02    0.424E-02
DAV:  10    -0.136552945214E+04   -0.23928E-04   -0.32204E-04  2560   0.347E-02    0.294E-02
DAV:  11    -0.136552945471E+04   -0.25732E-05   -0.86098E-05  2400   0.194E-02    0.224E-02
DAV:  12    -0.136552945033E+04    0.43826E-05   -0.89398E-05  2320   0.189E-02    0.181E-02
DAV:  13    -0.136552944855E+04    0.17811E-05   -0.43471E-05  2304   0.127E-02    0.121E-02
DAV:  14    -0.136552944748E+04    0.10735E-05   -0.13397E-05  1792   0.689E-03    0.466E-03
DAV:  15    -0.136552944728E+04    0.19622E-06   -0.14282E-06   944   0.424E-03
   4 F= -.13655294E+04 E0= -.13655294E+04  d E =-.306403E+00
       N       E                     dE             d eps       ncg     rms          rms(c)
DAV:   1    -0.136555491374E+04   -0.25466E-01   -0.17674E+01  1376   0.600E+00    0.658E-01
DAV:   2    -0.136564521260E+04   -0.90299E-01   -0.94779E-01  2304   0.238E+00    0.338E-01
DAV:   3    -0.136565060455E+04   -0.53920E-02   -0.72689E-02  2568   0.445E-01    0.267E-01
DAV:   4    -0.136564978579E+04    0.81876E-03   -0.66030E-03  2600   0.190E-01    0.198E-01
DAV:   5    -0.136564878107E+04    0.10047E-02   -0.29886E-03  2328   0.114E-01    0.856E-02
DAV:   6    -0.136564878143E+04   -0.36671E-06   -0.23749E-03  2320   0.902E-02    0.522E-02
DAV:   7    -0.136564881787E+04   -0.36441E-04   -0.11464E-03  2472   0.603E-02    0.451E-02
DAV:   8    -0.136564881024E+04    0.76377E-05   -0.29297E-04  2536   0.357E-02    0.288E-02
DAV:   9    -0.136564880336E+04    0.68727E-05   -0.10601E-04  2480   0.197E-02    0.161E-02
DAV:  10    -0.136564880577E+04   -0.24037E-05   -0.38343E-05  2528   0.120E-02    0.105E-02
DAV:  11    -0.136564880561E+04    0.15296E-06   -0.77173E-06  1432   0.758E-03
   5 F= -.13656488E+04 E0= -.13656488E+04  d E =-.119358E+00
       N       E                     dE             d eps       ncg     rms          rms(c)
DAV:   1    -0.136567763627E+04   -0.28831E-01   -0.12910E+01  1376   0.511E+00    0.570E-01
DAV:   2    -0.136574350195E+04   -0.65866E-01   -0.69289E-01  2304   0.202E+00    0.292E-01
DAV:   3    -0.136574743181E+04   -0.39299E-02   -0.53675E-02  2576   0.382E-01    0.233E-01
DAV:   4    -0.136574675576E+04    0.67605E-03   -0.49555E-03  2600   0.165E-01    0.168E-01
DAV:   5    -0.136574603615E+04    0.71961E-03   -0.23276E-03  2336   0.987E-02    0.693E-02
DAV:   6    -0.136574606441E+04   -0.28266E-04   -0.16806E-03  2344   0.761E-02    0.467E-02
DAV:   7    -0.136574608238E+04   -0.17964E-04   -0.79088E-04  2416   0.505E-02    0.374E-02
DAV:   8    -0.136574607846E+04    0.39203E-05   -0.22136E-04  2560   0.301E-02    0.223E-02
DAV:   9    -0.136574607508E+04    0.33772E-05   -0.67722E-05  2456   0.163E-02    0.140E-02
DAV:  10    -0.136574607649E+04   -0.14152E-05   -0.26404E-05  2480   0.990E-03    0.940E-03
DAV:  11    -0.136574607599E+04    0.50214E-06   -0.69365E-06  1336   0.725E-03
   6 F= -.13657461E+04 E0= -.13657461E+04  d E =-.972704E-01
       N       E                     dE             d eps       ncg     rms          rms(c)
DAV:   1    -0.136558079568E+04    0.16528E+00   -0.66592E+01  1384   0.116E+01    0.128E+00
DAV:   2    -0.136592167618E+04   -0.34088E+00   -0.35811E+00  2304   0.459E+00    0.659E-01
DAV:   3    -0.136594247020E+04   -0.20794E-01   -0.28058E-01  2576   0.856E-01    0.526E-01
DAV:   4    -0.136593943167E+04    0.30385E-02   -0.25030E-02  2616   0.369E-01    0.391E-01
DAV:   5    -0.136593553670E+04    0.38950E-02   -0.10294E-02  2368   0.211E-01    0.181E-01
DAV:   6    -0.136593525462E+04    0.28208E-03   -0.90709E-03  2216   0.176E-01    0.940E-02
DAV:   7    -0.136593548238E+04   -0.22775E-03   -0.50723E-03  2464   0.124E-01    0.932E-02
DAV:   8    -0.136593544777E+04    0.34604E-04   -0.10497E-03  2576   0.698E-02    0.671E-02
DAV:   9    -0.136593540223E+04    0.45546E-04   -0.50630E-04  2560   0.412E-02    0.329E-02
DAV:  10    -0.136593541362E+04   -0.11394E-04   -0.17270E-04  2528   0.254E-02    0.213E-02
DAV:  11    -0.136593541630E+04   -0.26799E-05   -0.38832E-05  2448   0.137E-02    0.155E-02
DAV:  12    -0.136593541301E+04    0.32856E-05   -0.48409E-05  2168   0.140E-02    0.109E-02
DAV:  13    -0.136593541322E+04   -0.20186E-06   -0.22962E-05  2192   0.936E-03    0.878E-03
DAV:  14    -0.136593541235E+04    0.86406E-06   -0.53779E-06  1400   0.542E-03
   7 F= -.13659354E+04 E0= -.13659354E+04  d E =-.189336E+00
       N       E                     dE             d eps       ncg     rms          rms(c)
DAV:   1    -0.136596111632E+04   -0.25703E-01   -0.36315E+00  1392   0.273E+00    0.313E-01
DAV:   2    -0.136598003903E+04   -0.18923E-01   -0.20062E-01  2304   0.108E+00    0.159E-01
DAV:   3    -0.136598123925E+04   -0.12002E-02   -0.16344E-02  2576   0.207E-01    0.128E-01
DAV:   4    -0.136598103617E+04    0.20308E-03   -0.14897E-03  2600   0.927E-02    0.917E-02
DAV:   5    -0.136598083976E+04    0.19641E-03   -0.72024E-04  2368   0.529E-02    0.373E-02
DAV:   6    -0.136598084751E+04   -0.77446E-05   -0.44499E-04  2352   0.396E-02    0.264E-02
DAV:   7    -0.136598085244E+04   -0.49308E-05   -0.24567E-04  2408   0.281E-02    0.200E-02
DAV:   8    -0.136598085159E+04    0.84413E-06   -0.70860E-05  2560   0.172E-02    0.129E-02
DAV:   9    -0.136598085056E+04    0.10379E-05   -0.18121E-05  2208   0.899E-03    0.878E-03
DAV:  10    -0.136598085047E+04    0.84387E-07   -0.70368E-06  1520   0.572E-03
   8 F= -.13659809E+04 E0= -.13659809E+04  d E =-.454381E-01
       N       E                     dE             d eps       ncg     rms          rms(c)
DAV:   1    -0.136599728975E+04   -0.16439E-01   -0.84714E+00  1384   0.414E+00    0.464E-01
DAV:   2    -0.136604100615E+04   -0.43716E-01   -0.46048E-01  2296   0.163E+00    0.236E-01
DAV:   3    -0.136604371830E+04   -0.27121E-02   -0.36653E-02  2576   0.310E-01    0.187E-01
DAV:   4    -0.136604324007E+04    0.47823E-03   -0.32991E-03  2608   0.136E-01    0.133E-01
DAV:   5    -0.136604280467E+04    0.43540E-03   -0.14296E-03  2360   0.767E-02    0.540E-02
DAV:   6    -0.136604281673E+04   -0.12065E-04   -0.96142E-04  2376   0.559E-02    0.333E-02
DAV:   7    -0.136604283149E+04   -0.14751E-04   -0.45287E-04  2456   0.383E-02    0.266E-02
DAV:   8    -0.136604283029E+04    0.11972E-05   -0.11338E-04  2552   0.221E-02    0.169E-02
DAV:   9    -0.136604282845E+04    0.18361E-05   -0.36431E-05  2440   0.121E-02    0.105E-02
DAV:  10    -0.136604282912E+04   -0.67111E-06   -0.15452E-05  2080   0.775E-03    0.655E-03
DAV:  11    -0.136604282873E+04    0.39375E-06   -0.15299E-06   992   0.567E-03
   9 F= -.13660428E+04 E0= -.13660428E+04  d E =-.619783E-01
       N       E                     dE             d eps       ncg     rms          rms(c)
DAV:   1    -0.136603117572E+04    0.11653E-01   -0.18937E+01  1384   0.620E+00    0.685E-01
DAV:   2    -0.136612889420E+04   -0.97718E-01   -0.10307E+00  2296   0.243E+00    0.346E-01
DAV:   3    -0.136613512146E+04   -0.62273E-02   -0.82734E-02  2568   0.465E-01    0.277E-01
DAV:   4    -0.136613420679E+04    0.91467E-03   -0.72857E-03  2600   0.201E-01    0.202E-01
DAV:   5    -0.136613318774E+04    0.10191E-02   -0.30995E-03  2360   0.113E-01    0.856E-02
DAV:   6    -0.136613318338E+04    0.43559E-05   -0.22574E-03  2344   0.855E-02    0.502E-02
DAV:   7    -0.136613322074E+04   -0.37359E-04   -0.10874E-03  2480   0.594E-02    0.409E-02
DAV:   8    -0.136613321800E+04    0.27392E-05   -0.27373E-04  2576   0.344E-02    0.270E-02
DAV:   9    -0.136613321279E+04    0.52136E-05   -0.88825E-05  2480   0.186E-02    0.164E-02
DAV:  10    -0.136613321436E+04   -0.15721E-05   -0.36530E-05  2480   0.114E-02    0.959E-03
DAV:  11    -0.136613321440E+04   -0.39523E-07   -0.58058E-06  1312   0.716E-03
  10 F= -.13661332E+04 E0= -.13661332E+04  d E =-.903857E-01
       N       E                     dE             d eps       ncg     rms          rms(c)
DAV:   1    -0.136614950040E+04   -0.16286E-01   -0.15136E+00  1400   0.176E+00    0.210E-01
DAV:   2    -0.136615713564E+04   -0.76352E-02   -0.81658E-02  2312   0.692E-01    0.106E-01
DAV:   3    -0.136615758117E+04   -0.44554E-03   -0.65534E-03  2576   0.136E-01    0.870E-02
DAV:   4    -0.136615747401E+04    0.10717E-03   -0.66286E-04  2568   0.610E-02    0.587E-02
DAV:   5    -0.136615739506E+04    0.78946E-04   -0.39848E-04  2280   0.400E-02    0.218E-02
DAV:   6    -0.136615740779E+04   -0.12731E-04   -0.21486E-04  2520   0.277E-02    0.212E-02
DAV:   7    -0.136615740695E+04    0.84042E-06   -0.87089E-05  2504   0.176E-02    0.134E-02
DAV:   8    -0.136615740631E+04    0.64530E-06   -0.23007E-05  2504   0.998E-03    0.709E-03
DAV:   9    -0.136615740600E+04    0.30993E-06   -0.18718E-06  1048   0.479E-03
  11 F= -.13661574E+04 E0= -.13661574E+04  d E =-.241916E-01
       N       E                     dE             d eps       ncg     rms          rms(c)
DAV:   1    -0.136615263695E+04    0.47694E-02   -0.13869E+01  1384   0.530E+00    0.586E-01
DAV:   2    -0.136622378985E+04   -0.71153E-01   -0.75034E-01  2296   0.207E+00    0.296E-01
DAV:   3    -0.136622830304E+04   -0.45132E-02   -0.60225E-02  2576   0.396E-01    0.236E-01
DAV:   4    -0.136622761561E+04    0.68743E-03   -0.52577E-03  2608   0.171E-01    0.171E-01
DAV:   5    -0.136622686309E+04    0.75252E-03   -0.22379E-03  2360   0.981E-02    0.729E-02
DAV:   6    -0.136622685707E+04    0.60159E-05   -0.16670E-03  2336   0.746E-02    0.432E-02
DAV:   7    -0.136622688545E+04   -0.28381E-04   -0.79576E-04  2456   0.512E-02    0.358E-02
DAV:   8    -0.136622688324E+04    0.22089E-05   -0.20100E-04  2552   0.292E-02    0.234E-02
DAV:   9    -0.136622687857E+04    0.46750E-05   -0.69943E-05  2432   0.164E-02    0.138E-02
DAV:  10    -0.136622688026E+04   -0.16933E-05   -0.31527E-05  2384   0.105E-02    0.892E-03
DAV:  11    -0.136622687983E+04    0.43413E-06   -0.48279E-06  1216   0.692E-03
  12 F= -.13662269E+04 E0= -.13662269E+04  d E =-.694738E-01
       N       E                     dE             d eps       ncg     rms          rms(c)
DAV:   1    -0.136624178813E+04   -0.14908E-01   -0.54183E+00  1376   0.330E+00    0.362E-01
DAV:   2    -0.136626872449E+04   -0.26936E-01   -0.28441E-01  2304   0.127E+00    0.182E-01
DAV:   3    -0.136627044254E+04   -0.17181E-02   -0.22773E-02  2576   0.242E-01    0.147E-01
DAV:   4    -0.136627021552E+04    0.22702E-03   -0.19129E-03  2584   0.104E-01    0.111E-01
DAV:   5    -0.136626989002E+04    0.32551E-03   -0.95456E-04  2288   0.642E-02    0.460E-02
DAV:   6    -0.136626989801E+04   -0.79910E-05   -0.74446E-04  2304   0.496E-02    0.318E-02
DAV:   7    -0.136626990461E+04   -0.66020E-05   -0.30832E-04  2432   0.319E-02    0.246E-02
DAV:   8    -0.136626990282E+04    0.17860E-05   -0.96393E-05  2544   0.198E-02    0.141E-02
DAV:   9    -0.136626990134E+04    0.14891E-05   -0.27663E-05  2256   0.106E-02    0.880E-03
DAV:  10    -0.136626990169E+04   -0.35173E-06   -0.75740E-06  1544   0.626E-03
  13 F= -.13662699E+04 E0= -.13662699E+04  d E =-.430219E-01
       N       E                     dE             d eps       ncg     rms          rms(c)
DAV:   1    -0.136627707905E+04   -0.71777E-02   -0.80588E+00  1392   0.403E+00    0.443E-01
DAV:   2    -0.136631751368E+04   -0.40435E-01   -0.42591E-01  2304   0.156E+00    0.223E-01
DAV:   3    -0.136632006601E+04   -0.25523E-02   -0.33926E-02  2568   0.294E-01    0.178E-01
DAV:   4    -0.136631970155E+04    0.36446E-03   -0.28611E-03  2592   0.127E-01    0.132E-01
DAV:   5    -0.136631922682E+04    0.47473E-03   -0.13531E-03  2320   0.782E-02    0.558E-02
DAV:   6    -0.136631923141E+04   -0.45920E-05   -0.11023E-03  2336   0.615E-02    0.363E-02
DAV:   7    -0.136631924529E+04   -0.13875E-04   -0.46213E-04  2440   0.394E-02    0.295E-02
DAV:   8    -0.136631924309E+04    0.22029E-05   -0.12920E-04  2544   0.230E-02    0.173E-02
DAV:   9    -0.136631924013E+04    0.29560E-05   -0.41373E-05  2312   0.128E-02    0.102E-02
DAV:  10    -0.136631924120E+04   -0.10661E-05   -0.16684E-05  1952   0.808E-03    0.680E-03
DAV:  11    -0.136631924054E+04    0.65427E-06   -0.16097E-06   992   0.582E-03
  14 F= -.13663192E+04 E0= -.13663192E+04  d E =-.493389E-01
       N       E                     dE             d eps       ncg     rms          rms(c)
DAV:   1    -0.136628834518E+04    0.30896E-01   -0.20379E+01  1368   0.640E+00    0.700E-01
DAV:   2    -0.136638946909E+04   -0.10112E+00   -0.10660E+00  2304   0.247E+00    0.351E-01
DAV:   3    -0.136639591069E+04   -0.64416E-02   -0.85126E-02  2584   0.469E-01    0.286E-01
DAV:   4    -0.136639512761E+04    0.78309E-03   -0.70256E-03  2600   0.199E-01    0.218E-01
DAV:   5    -0.136639385215E+04    0.12755E-02   -0.33029E-03  2328   0.123E-01    0.977E-02
DAV:   6    -0.136639381505E+04    0.37106E-04   -0.30633E-03  2280   0.102E-01    0.599E-02
DAV:   7    -0.136639385885E+04   -0.43806E-04   -0.13716E-03  2456   0.672E-02    0.524E-02
DAV:   8    -0.136639384781E+04    0.11044E-04   -0.36330E-04  2544   0.394E-02    0.318E-02
DAV:   9    -0.136639383747E+04    0.10341E-04   -0.14056E-04  2400   0.222E-02    0.169E-02
DAV:  10    -0.136639384209E+04   -0.46249E-05   -0.56577E-05  2432   0.140E-02    0.128E-02
DAV:  11    -0.136639384088E+04    0.12131E-05   -0.13666E-05  1784   0.869E-03    0.789E-03
DAV:  12    -0.136639384067E+04    0.21129E-06   -0.13007E-05  1704   0.780E-03    0.630E-03
DAV:  13    -0.136639384021E+04    0.45417E-06   -0.33517E-06  1152   0.522E-03
  15 F= -.13663938E+04 E0= -.13663938E+04  d E =-.745997E-01
       N       E                     dE             d eps       ncg     rms          rms(c)
DAV:   1    -0.136640716319E+04   -0.13323E-01   -0.21140E+00  1368   0.205E+00    0.225E-01
DAV:   2    -0.136641729633E+04   -0.10133E-01   -0.10636E-01  2288   0.782E-01    0.112E-01
DAV:   3    -0.136641790140E+04   -0.60507E-03   -0.81818E-03  2584   0.153E-01    0.898E-02
DAV:   4    -0.136641781066E+04    0.90735E-04   -0.68407E-04  2584   0.615E-02    0.672E-02
DAV:   5    -0.136641767544E+04    0.13522E-03   -0.36234E-04  2272   0.432E-02    0.270E-02
DAV:   6    -0.136641768451E+04   -0.90724E-05   -0.33324E-04  2312   0.335E-02    0.209E-02
DAV:   7    -0.136641768677E+04   -0.22620E-05   -0.96815E-05  2392   0.183E-02    0.176E-02
DAV:   8    -0.136641768575E+04    0.10230E-05   -0.35070E-05  2440   0.111E-02    0.966E-03
DAV:   9    -0.136641768416E+04    0.15953E-05   -0.13753E-05  1968   0.762E-03    0.495E-03
DAV:  10    -0.136641768437E+04   -0.20946E-06   -0.23904E-06  1072   0.478E-03
  16 F= -.13664177E+04 E0= -.13664177E+04  d E =-.238442E-01
       N       E                     dE             d eps       ncg     rms          rms(c)
DAV:   1    -0.136642082907E+04   -0.31449E-02   -0.90378E+00  1360   0.424E+00    0.461E-01
DAV:   2    -0.136646460190E+04   -0.43773E-01   -0.46004E-01  2296   0.162E+00    0.231E-01
DAV:   3    -0.136646724194E+04   -0.26400E-02   -0.35558E-02  2576   0.315E-01    0.186E-01
DAV:   4    -0.136646686266E+04    0.37928E-03   -0.29919E-03  2576   0.128E-01    0.139E-01
DAV:   5    -0.136646631242E+04    0.55024E-03   -0.15464E-03  2280   0.853E-02    0.568E-02
DAV:   6    -0.136646634021E+04   -0.27789E-04   -0.12942E-03  2344   0.653E-02    0.416E-02
DAV:   7    -0.136646634850E+04   -0.82968E-05   -0.41736E-04  2488   0.378E-02    0.337E-02
DAV:   8    -0.136646634392E+04    0.45842E-05   -0.15527E-04  2512   0.237E-02    0.175E-02
DAV:   9    -0.136646634063E+04    0.32893E-05   -0.46423E-05  2208   0.136E-02    0.104E-02
DAV:  10    -0.136646634155E+04   -0.92140E-06   -0.13101E-05  1976   0.747E-03    0.738E-03
DAV:  11    -0.136646634060E+04    0.95459E-06   -0.22676E-06  1056   0.548E-03
  17 F= -.13664663E+04 E0= -.13664663E+04  d E =-.486562E-01
       N       E                     dE             d eps       ncg     rms          rms(c)
DAV:   1    -0.136645061206E+04    0.15729E-01   -0.15808E+01  1360   0.561E+00    0.614E-01
DAV:   2    -0.136652690773E+04   -0.76296E-01   -0.80157E-01  2296   0.215E+00    0.306E-01
DAV:   3    -0.136653144824E+04   -0.45405E-02   -0.61582E-02  2584   0.416E-01    0.248E-01
DAV:   4    -0.136653077812E+04    0.67012E-03   -0.51784E-03  2592   0.169E-01    0.186E-01
DAV:   5    -0.136652975516E+04    0.10230E-02   -0.26616E-03  2256   0.116E-01    0.769E-02
DAV:   6    -0.136652980488E+04   -0.49718E-04   -0.25038E-03  2328   0.920E-02    0.566E-02
DAV:   7    -0.136652982182E+04   -0.16940E-04   -0.77698E-04  2456   0.515E-02    0.479E-02
DAV:   8    -0.136652981417E+04    0.76471E-05   -0.27344E-04  2520   0.312E-02    0.259E-02
DAV:   9    -0.136652980334E+04    0.10835E-04   -0.10593E-04  2288   0.204E-02    0.135E-02
DAV:  10    -0.136652980671E+04   -0.33780E-05   -0.35544E-05  2256   0.116E-02    0.126E-02
DAV:  11    -0.136652980408E+04    0.26346E-05   -0.12049E-05  1672   0.776E-03    0.424E-03
DAV:  12    -0.136652980441E+04   -0.32557E-06   -0.66261E-06  1552   0.622E-03
  18 F= -.13665298E+04 E0= -.13665298E+04  d E =-.634638E-01
       N       E                     dE             d eps       ncg     rms          rms(c)
DAV:   1    -0.136654250217E+04   -0.12698E-01   -0.41316E+00  1368   0.288E+00    0.319E-01
DAV:   2    -0.136656278465E+04   -0.20282E-01   -0.21357E-01  2288   0.111E+00    0.158E-01
DAV:   3    -0.136656398916E+04   -0.12045E-02   -0.16502E-02  2584   0.217E-01    0.128E-01
DAV:   4    -0.136656379386E+04    0.19530E-03   -0.14223E-03  2600   0.890E-02    0.944E-02
DAV:   5    -0.136656353483E+04    0.25903E-03   -0.73146E-04  2320   0.602E-02    0.390E-02
DAV:   6    -0.136656354760E+04   -0.12772E-04   -0.62704E-04  2352   0.461E-02    0.295E-02
DAV:   7    -0.136656355112E+04   -0.35234E-05   -0.20770E-04  2408   0.271E-02    0.239E-02
DAV:   8    -0.136656354896E+04    0.21590E-05   -0.78461E-05  2512   0.167E-02    0.123E-02
DAV:   9    -0.136656354708E+04    0.18795E-05   -0.22943E-05  2144   0.983E-03    0.718E-03
DAV:  10    -0.136656354738E+04   -0.29920E-06   -0.49534E-06  1368   0.569E-03
  19 F= -.13665635E+04 E0= -.13665635E+04  d E =-.337430E-01
       N       E                     dE             d eps       ncg     rms          rms(c)
DAV:   1    -0.136657203056E+04   -0.84835E-02   -0.67560E+00  1368   0.367E+00    0.407E-01
DAV:   2    -0.136660521236E+04   -0.33182E-01   -0.34908E-01  2304   0.142E+00    0.204E-01
DAV:   3    -0.136660712895E+04   -0.19166E-02   -0.26660E-02  2584   0.272E-01    0.163E-01
DAV:   4    -0.136660678602E+04    0.34293E-03   -0.23326E-03  2592   0.114E-01    0.119E-01
DAV:   5    -0.136660637455E+04    0.41147E-03   -0.11522E-03  2336   0.757E-02    0.496E-02
DAV:   6    -0.136660638778E+04   -0.13225E-04   -0.97111E-04  2344   0.582E-02    0.352E-02
DAV:   7    -0.136660639669E+04   -0.89138E-05   -0.34490E-04  2464   0.347E-02    0.297E-02
DAV:   8    -0.136660639345E+04    0.32366E-05   -0.12162E-04  2520   0.208E-02    0.155E-02
DAV:   9    -0.136660639060E+04    0.28496E-05   -0.37614E-05  2224   0.124E-02    0.894E-03
DAV:  10    -0.136660639139E+04   -0.78464E-06   -0.11394E-05  1816   0.722E-03    0.683E-03
DAV:  11    -0.136660639051E+04    0.88282E-06   -0.17258E-06  1008   0.551E-03
  20 F= -.13666064E+04 E0= -.13666064E+04  d E =-.428431E-01
       N       E                     dE             d eps       ncg     rms          rms(c)
DAV:   1    -0.136659791014E+04    0.84813E-02   -0.13228E+01  1368   0.516E+00    0.577E-01
DAV:   2    -0.136666364600E+04   -0.65736E-01   -0.69303E-01  2304   0.199E+00    0.288E-01
DAV:   3    -0.136666744372E+04   -0.37977E-02   -0.53176E-02  2584   0.388E-01    0.231E-01
DAV:   4    -0.136666675242E+04    0.69130E-03   -0.47187E-03  2592   0.162E-01    0.168E-01
DAV:   5    -0.136666593575E+04    0.81667E-03   -0.23264E-03  2352   0.107E-01    0.710E-02
DAV:   6    -0.136666595741E+04   -0.21657E-04   -0.19520E-03  2344   0.825E-02    0.510E-02
DAV:   7    -0.136666597379E+04   -0.16382E-04   -0.72718E-04  2456   0.506E-02    0.427E-02
DAV:   8    -0.136666596631E+04    0.74826E-05   -0.25902E-04  2528   0.307E-02    0.223E-02
DAV:   9    -0.136666596111E+04    0.51980E-05   -0.76588E-05  2280   0.175E-02    0.131E-02
DAV:  10    -0.136666596298E+04   -0.18710E-05   -0.27472E-05  2272   0.103E-02    0.996E-03
DAV:  11    -0.136666596152E+04    0.14580E-05   -0.59253E-06  1312   0.690E-03    0.502E-03
DAV:  12    -0.136666596207E+04   -0.54477E-06   -0.11731E-05  1608   0.683E-03    0.409E-03
DAV:  13    -0.136666596198E+04    0.90324E-07   -0.11021E-06   952   0.403E-03
  21 F= -.13666660E+04 E0= -.13666660E+04  d E =-.595715E-01
       N       E                     dE             d eps       ncg     rms          rms(c)
DAV:   1    -0.136667595367E+04   -0.99916E-02   -0.56626E+00  1376   0.338E+00    0.383E-01
DAV:   2    -0.136670460240E+04   -0.28649E-01   -0.30252E-01  2304   0.132E+00    0.192E-01
DAV:   3    -0.136670622745E+04   -0.16251E-02   -0.23255E-02  2576   0.258E-01    0.153E-01
DAV:   4    -0.136670589855E+04    0.32889E-03   -0.21799E-03  2592   0.110E-01    0.110E-01
DAV:   5    -0.136670555410E+04    0.34445E-03   -0.10200E-03  2352   0.702E-02    0.472E-02
DAV:   6    -0.136670555597E+04   -0.18736E-05   -0.80986E-04  2344   0.542E-02    0.323E-02
DAV:   7    -0.136670556566E+04   -0.96866E-05   -0.34513E-04  2464   0.344E-02    0.279E-02
DAV:   8    -0.136670556246E+04    0.31980E-05   -0.11244E-04  2552   0.207E-02    0.156E-02
DAV:   9    -0.136670556024E+04    0.22233E-05   -0.34348E-05  2360   0.116E-02    0.894E-03
DAV:  10    -0.136670556100E+04   -0.75762E-06   -0.13526E-05  1848   0.737E-03    0.647E-03
DAV:  11    -0.136670556035E+04    0.64351E-06   -0.16457E-06  1000   0.541E-03
  22 F= -.13667056E+04 E0= -.13667056E+04  d E =-.395984E-01
       N       E                     dE             d eps       ncg     rms          rms(c)
DAV:   1    -0.136671470482E+04   -0.91438E-02   -0.40108E-01  1384   0.910E-01    0.114E-01
DAV:   2    -0.136671681374E+04   -0.21089E-02   -0.22598E-02  2280   0.360E-01    0.564E-02
DAV:   3    -0.136671694261E+04   -0.12887E-03   -0.18803E-03  2568   0.739E-02    0.467E-02
DAV:   4    -0.136671691191E+04    0.30700E-04   -0.18881E-04  2576   0.331E-02    0.318E-02
DAV:   5    -0.136671688920E+04    0.22707E-04   -0.11789E-04  2360   0.219E-02    0.119E-02
DAV:   6    -0.136671689274E+04   -0.35349E-05   -0.59549E-05  2480   0.147E-02    0.117E-02
DAV:   7    -0.136671689225E+04    0.49311E-06   -0.24580E-05  2440   0.952E-03    0.714E-03
DAV:   8    -0.136671689153E+04    0.71185E-06   -0.25207E-06  1048   0.560E-03
  23 F= -.13667169E+04 E0= -.13667169E+04  d E =-.113312E-01
       N       E                     dE             d eps       ncg     rms          rms(c)
DAV:   1    -0.136672082016E+04   -0.39279E-02   -0.68347E-02  1400   0.372E-01    0.493E-02
DAV:   2    -0.136672116782E+04   -0.34767E-03   -0.37412E-03  2264   0.143E-01    0.258E-02
DAV:   3    -0.136672118365E+04   -0.15825E-04   -0.30086E-04  2584   0.305E-02    0.208E-02
DAV:   4    -0.136672117473E+04    0.89146E-05   -0.40337E-05  2328   0.147E-02    0.120E-02
DAV:   5    -0.136672117125E+04    0.34790E-05   -0.20253E-05  2184   0.100E-02    0.512E-03
DAV:   6    -0.136672117169E+04   -0.43976E-06   -0.10459E-05  1848   0.670E-03    0.392E-03
DAV:   7    -0.136672117154E+04    0.15680E-06   -0.17209E-06  1016   0.477E-03
  24 F= -.13667212E+04 E0= -.13667212E+04  d E =-.428000E-02
       N       E                     dE             d eps       ncg     rms          rms(c)
DAV:   1    -0.136672923582E+04   -0.80641E-02   -0.25125E-01  1384   0.712E-01    0.826E-02
DAV:   2    -0.136673055469E+04   -0.13189E-02   -0.13962E-02  2288   0.280E-01    0.410E-02
DAV:   3    -0.136673063744E+04   -0.82752E-04   -0.11398E-03  2576   0.564E-02    0.333E-02
DAV:   4    -0.136673062315E+04    0.14292E-04   -0.10374E-04  2568   0.243E-02    0.243E-02
DAV:   5    -0.136673060734E+04    0.15807E-04   -0.50508E-05  2352   0.150E-02    0.103E-02
DAV:   6    -0.136673060752E+04   -0.17622E-06   -0.37335E-05  2304   0.115E-02    0.726E-03
DAV:   7    -0.136673060779E+04   -0.27246E-06   -0.17191E-05  2136   0.784E-03    0.580E-03
DAV:   8    -0.136673060730E+04    0.49001E-06   -0.19219E-06   992   0.498E-03
  25 F= -.13667306E+04 E0= -.13667306E+04  d E =-.943576E-02
       N       E                     dE             d eps       ncg     rms          rms(c)
DAV:   1    -0.136674565977E+04   -0.15052E-01   -0.36769E+00  1368   0.271E+00    0.311E-01
DAV:   2    -0.136676477083E+04   -0.19111E-01   -0.20155E-01  2288   0.106E+00    0.155E-01
DAV:   3    -0.136676594203E+04   -0.11712E-02   -0.16191E-02  2568   0.212E-01    0.124E-01
DAV:   4    -0.136676572792E+04    0.21411E-03   -0.14630E-03  2576   0.904E-02    0.900E-02
DAV:   5    -0.136676549652E+04    0.23140E-03   -0.69064E-04  2352   0.560E-02    0.386E-02
DAV:   6    -0.136676549648E+04    0.42623E-07   -0.54214E-04  2296   0.440E-02    0.260E-02
DAV:   7    -0.136676550350E+04   -0.70259E-05   -0.25690E-04  2416   0.291E-02    0.224E-02
DAV:   8    -0.136676550128E+04    0.22253E-05   -0.72908E-05  2544   0.173E-02    0.134E-02
DAV:   9    -0.136676549958E+04    0.16968E-05   -0.24041E-05  2288   0.969E-03    0.746E-03
DAV:  10    -0.136676549990E+04   -0.31828E-06   -0.75141E-06  1512   0.623E-03
  26 F= -.13667655E+04 E0= -.13667655E+04  d E =-.348926E-01
       N       E                     dE             d eps       ncg     rms          rms(c)
DAV:   1    -0.136676926777E+04   -0.37682E-02   -0.96229E+00  1368   0.440E+00    0.505E-01
DAV:   2    -0.136681957701E+04   -0.50309E-01   -0.53201E-01  2288   0.172E+00    0.252E-01
DAV:   3    -0.136682273504E+04   -0.31580E-02   -0.43413E-02  2584   0.347E-01    0.203E-01
DAV:   4    -0.136682217236E+04    0.56267E-03   -0.37935E-03  2592   0.148E-01    0.147E-01
DAV:   5    -0.136682158187E+04    0.59050E-03   -0.18469E-03  2368   0.898E-02    0.626E-02
DAV:   6    -0.136682158611E+04   -0.42417E-05   -0.13583E-03  2296   0.691E-02    0.429E-02
DAV:   7    -0.136682160041E+04   -0.14302E-04   -0.65597E-04  2472   0.466E-02    0.356E-02
DAV:   8    -0.136682159542E+04    0.49889E-05   -0.19667E-04  2528   0.281E-02    0.219E-02
DAV:   9    -0.136682159140E+04    0.40202E-05   -0.62149E-05  2480   0.153E-02    0.124E-02
DAV:  10    -0.136682159248E+04   -0.10782E-05   -0.20842E-05  2288   0.907E-03    0.803E-03
DAV:  11    -0.136682159209E+04    0.38896E-06   -0.31436E-06  1120   0.606E-03
  27 F= -.13668216E+04 E0= -.13668216E+04  d E =-.560922E-01
       N       E                     dE             d eps       ncg     rms          rms(c)
DAV:   1    -0.136683121443E+04   -0.96220E-02   -0.40563E-01  1376   0.906E-01    0.111E-01
DAV:   2    -0.136683333113E+04   -0.21167E-02   -0.22525E-02  2288   0.351E-01    0.545E-02
DAV:   3    -0.136683345711E+04   -0.12598E-03   -0.18515E-03  2568   0.722E-02    0.432E-02
DAV:   4    -0.136683342211E+04    0.34997E-04   -0.18461E-04  2584   0.326E-02    0.283E-02
DAV:   5    -0.136683339956E+04    0.22552E-04   -0.98571E-05  2336   0.215E-02    0.101E-02
DAV:   6    -0.136683340363E+04   -0.40722E-05   -0.65345E-05  2488   0.149E-02    0.997E-03
DAV:   7    -0.136683340347E+04    0.16252E-06   -0.17355E-05  2136   0.853E-03    0.736E-03
DAV:   8    -0.136683340301E+04    0.45559E-06   -0.45070E-06  1296   0.507E-03
  28 F= -.13668334E+04 E0= -.13668334E+04  d E =-.118109E-01
       N       E                     dE             d eps       ncg     rms          rms(c)
DAV:   1    -0.136683609717E+04   -0.26937E-02   -0.31546E-02  1416   0.258E-01    0.367E-02
DAV:   2    -0.136683626658E+04   -0.16941E-03   -0.18894E-03  2304   0.103E-01    0.191E-02
DAV:   3    -0.136683627378E+04   -0.72072E-05   -0.15529E-04  2568   0.237E-02    0.161E-02
DAV:   4    -0.136683626951E+04    0.42726E-05   -0.23192E-05  2216   0.111E-02    0.918E-03
DAV:   5    -0.136683626797E+04    0.15393E-05   -0.13338E-05  2008   0.778E-03    0.483E-03
DAV:   6    -0.136683626766E+04    0.30982E-06   -0.31977E-06  1152   0.551E-03
  29 F= -.13668363E+04 E0= -.13668363E+04  d E =-.286465E-02
       N       E                     dE             d eps       ncg     rms          rms(c)
DAV:   1    -0.136684305343E+04   -0.67855E-02   -0.16426E-01  1376   0.575E-01    0.673E-02
DAV:   2    -0.136684392836E+04   -0.87493E-03   -0.92760E-03  2296   0.226E-01    0.327E-02
DAV:   3    -0.136684398600E+04   -0.57647E-04   -0.77222E-04  2536   0.459E-02    0.259E-02
DAV:   4    -0.136684397715E+04    0.88553E-05   -0.73785E-05  2552   0.204E-02    0.187E-02
DAV:   5    -0.136684396806E+04    0.90850E-05   -0.34690E-05  2376   0.122E-02    0.764E-03
DAV:   6    -0.136684396848E+04   -0.42147E-06   -0.21913E-05  2256   0.899E-03    0.572E-03
DAV:   7    -0.136684396852E+04   -0.36394E-07   -0.92796E-06  1888   0.616E-03
  30 F= -.13668440E+04 E0= -.13668440E+04  d E =-.770086E-02
       N       E                     dE             d eps       ncg     rms          rms(c)
DAV:   1    -0.136685487310E+04   -0.10905E-01   -0.57536E-01  1376   0.107E+00    0.124E-01
DAV:   2    -0.136685789532E+04   -0.30222E-02   -0.31914E-02  2288   0.418E-01    0.604E-02
DAV:   3    -0.136685809190E+04   -0.19658E-03   -0.26346E-03  2544   0.849E-02    0.478E-02
DAV:   4    -0.136685806027E+04    0.31626E-04   -0.24702E-04  2576   0.369E-02    0.344E-02
DAV:   5    -0.136685802842E+04    0.31849E-04   -0.11317E-04  2352   0.221E-02    0.140E-02
DAV:   6    -0.136685802990E+04   -0.14786E-05   -0.75444E-05  2368   0.160E-02    0.102E-02
DAV:   7    -0.136685803046E+04   -0.55769E-06   -0.32504E-05  2400   0.107E-02    0.780E-03
DAV:   8    -0.136685803006E+04    0.40280E-06   -0.84658E-06  1688   0.652E-03
  31 F= -.13668580E+04 E0= -.13668580E+04  d E =-.140615E-01
       N       E                     dE             d eps       ncg     rms          rms(c)
DAV:   1    -0.136686249123E+04   -0.44608E-02   -0.96741E+00  1368   0.441E+00    0.509E-01
DAV:   2    -0.136691344118E+04   -0.50950E-01   -0.53958E-01  2296   0.172E+00    0.251E-01
DAV:   3    -0.136691678953E+04   -0.33483E-02   -0.44937E-02  2544   0.355E-01    0.198E-01
DAV:   4    -0.136691625577E+04    0.53376E-03   -0.41471E-03  2552   0.153E-01    0.142E-01
DAV:   5    -0.136691573940E+04    0.51637E-03   -0.19963E-03  2376   0.906E-02    0.579E-02
DAV:   6    -0.136691576764E+04   -0.28244E-04   -0.12307E-03  2384   0.651E-02    0.431E-02
DAV:   7    -0.136691577454E+04   -0.69013E-05   -0.54534E-04  2496   0.437E-02    0.317E-02
DAV:   8    -0.136691577252E+04    0.20232E-05   -0.18907E-04  2552   0.270E-02    0.196E-02
DAV:   9    -0.136691576980E+04    0.27253E-05   -0.43772E-05  2448   0.138E-02    0.126E-02
DAV:  10    -0.136691577006E+04   -0.26549E-06   -0.18609E-05  2176   0.852E-03    0.674E-03
DAV:  11    -0.136691576981E+04    0.24639E-06   -0.20295E-06  1008   0.583E-03
  32 F= -.13669158E+04 E0= -.13669158E+04  d E =-.577398E-01
       N       E                     dE             d eps       ncg     rms          rms(c)
DAV:   1    -0.136692664677E+04   -0.10877E-01   -0.67192E-01  1376   0.116E+00    0.135E-01
DAV:   2    -0.136693019478E+04   -0.35480E-02   -0.37509E-02  2296   0.454E-01    0.667E-02
DAV:   3    -0.136693040814E+04   -0.21335E-03   -0.29804E-03  2528   0.915E-02    0.523E-02
DAV:   4    -0.136693036197E+04    0.46165E-04   -0.28780E-04  2528   0.405E-02    0.361E-02
DAV:   5    -0.136693032592E+04    0.36049E-04   -0.16363E-04  2312   0.257E-02    0.126E-02
DAV:   6    -0.136693033193E+04   -0.60025E-05   -0.92204E-05  2496   0.170E-02    0.120E-02
DAV:   7    -0.136693033190E+04    0.26979E-07   -0.26303E-05  2464   0.103E-02    0.813E-03
DAV:   8    -0.136693033106E+04    0.84126E-06   -0.40841E-06  1232   0.604E-03
  33 F= -.13669303E+04 E0= -.13669303E+04  d E =-.145612E-01
       N       E                     dE             d eps       ncg     rms          rms(c)
DAV:   1    -0.136693151697E+04   -0.11851E-02   -0.17019E-02  1416   0.187E-01    0.268E-02
DAV:   2    -0.136693160331E+04   -0.86340E-04   -0.96489E-04  2280   0.731E-02    0.146E-02
DAV:   3    -0.136693160721E+04   -0.39080E-05   -0.84676E-05  2568   0.163E-02    0.126E-02
DAV:   4    -0.136693160482E+04    0.23962E-05   -0.11392E-05  1920   0.811E-03    0.765E-03
DAV:   5    -0.136693160365E+04    0.11632E-05   -0.87659E-06  1808   0.653E-03    0.357E-03
DAV:   6    -0.136693160355E+04    0.10409E-06   -0.21695E-06  1112   0.479E-03
  34 F= -.13669316E+04 E0= -.13669316E+04  d E =-.127249E-02
       N       E                     dE             d eps       ncg     rms          rms(c)
DAV:   1    -0.136694318545E+04   -0.11582E-01   -0.90524E-01  1376   0.135E+00    0.154E-01
DAV:   2    -0.136694794217E+04   -0.47567E-02   -0.50308E-02  2320   0.526E-01    0.758E-02
DAV:   3    -0.136694824078E+04   -0.29861E-03   -0.40353E-03  2536   0.106E-01    0.596E-02
DAV:   4    -0.136694819111E+04    0.49668E-04   -0.37073E-04  2544   0.460E-02    0.431E-02
DAV:   5    -0.136694814079E+04    0.50321E-04   -0.20540E-04  2320   0.285E-02    0.163E-02
DAV:   6    -0.136694814630E+04   -0.55139E-05   -0.11866E-04  2408   0.195E-02    0.143E-02
DAV:   7    -0.136694814618E+04    0.12456E-06   -0.45625E-05  2488   0.128E-02    0.953E-03
DAV:   8    -0.136694814572E+04    0.45638E-06   -0.15184E-05  2264   0.797E-03    0.515E-03
DAV:   9    -0.136694814546E+04    0.25755E-06   -0.13219E-06   992   0.415E-03
  35 F= -.13669481E+04 E0= -.13669481E+04  d E =-.165419E-01
       N       E                     dE             d eps       ncg     rms          rms(c)
DAV:   1    -0.136694547790E+04    0.26678E-02   -0.10928E+01  1368   0.467E+00    0.531E-01
DAV:   2    -0.136700239650E+04   -0.56919E-01   -0.60143E-01  2320   0.181E+00    0.264E-01
DAV:   3    -0.136700592436E+04   -0.35279E-02   -0.48301E-02  2544   0.365E-01    0.205E-01
DAV:   4    -0.136700529718E+04    0.62718E-03   -0.44957E-03  2568   0.159E-01    0.146E-01
DAV:   5    -0.136700471254E+04    0.58465E-03   -0.22760E-03  2328   0.965E-02    0.574E-02
DAV:   6    -0.136700476311E+04   -0.50574E-04   -0.13747E-03  2408   0.672E-02    0.471E-02
DAV:   7    -0.136700476475E+04   -0.16387E-05   -0.54767E-04  2488   0.444E-02    0.329E-02
DAV:   8    -0.136700476101E+04    0.37375E-05   -0.19443E-04  2544   0.274E-02    0.189E-02
DAV:   9    -0.136700475874E+04    0.22680E-05   -0.41901E-05  2400   0.138E-02    0.128E-02
DAV:  10    -0.136700475903E+04   -0.28692E-06   -0.21523E-05  2152   0.907E-03    0.665E-03
DAV:  11    -0.136700475873E+04    0.29519E-06   -0.31983E-06  1136   0.626E-03
  36 F= -.13670048E+04 E0= -.13670048E+04  d E =-.566133E-01
       N       E                     dE             d eps       ncg     rms          rms(c)
DAV:   1    -0.136701288352E+04   -0.81245E-02   -0.51634E-01  1384   0.102E+00    0.119E-01
DAV:   2    -0.136701553935E+04   -0.26558E-02   -0.28240E-02  2296   0.395E-01    0.598E-02
DAV:   3    -0.136701570886E+04   -0.16951E-03   -0.23497E-03  2552   0.802E-02    0.488E-02
DAV:   4    -0.136701567594E+04    0.32927E-04   -0.21705E-04  2576   0.354E-02    0.350E-02
DAV:   5    -0.136701564190E+04    0.34036E-04   -0.14250E-04  2224   0.237E-02    0.127E-02
DAV:   6    -0.136701564665E+04   -0.47461E-05   -0.80857E-05  2448   0.163E-02    0.134E-02
DAV:   7    -0.136701564600E+04    0.64545E-06   -0.30178E-05  2456   0.105E-02    0.835E-03
DAV:   8    -0.136701564499E+04    0.10064E-05   -0.39985E-06  1224   0.605E-03    0.481E-03
DAV:   9    -0.136701564562E+04   -0.62287E-06   -0.11823E-05  1568   0.636E-03    0.420E-03
DAV:  10    -0.136701564559E+04    0.27649E-07   -0.10719E-06   952   0.426E-03
  37 F= -.13670156E+04 E0= -.13670156E+04  d E =-.108869E-01
       N       E                     dE             d eps       ncg     rms          rms(c)
DAV:   1    -0.136701675864E+04   -0.11130E-02   -0.19322E-02  1416   0.199E-01    0.300E-02
DAV:   2    -0.136701685072E+04   -0.92087E-04   -0.10506E-03  2272   0.773E-02    0.156E-02
DAV:   3    -0.136701685384E+04   -0.31158E-05   -0.93211E-05  2584   0.175E-02    0.136E-02
DAV:   4    -0.136701685065E+04    0.31938E-05   -0.14235E-05  2008   0.873E-03    0.768E-03
DAV:   5    -0.136701684938E+04    0.12668E-05   -0.10137E-05  1896   0.727E-03    0.424E-03
DAV:   6    -0.136701684909E+04    0.28987E-06   -0.24163E-06  1088   0.530E-03
  38 F= -.13670168E+04 E0= -.13670168E+04  d E =-.120350E-02
       N       E                     dE             d eps       ncg     rms          rms(c)
DAV:   1    -0.136702237913E+04   -0.55298E-02   -0.19752E-01  1384   0.624E-01    0.702E-02
DAV:   2    -0.136702339374E+04   -0.10146E-02   -0.10711E-02  2296   0.243E-01    0.344E-02
DAV:   3    -0.136702346050E+04   -0.66756E-04   -0.88053E-04  2552   0.478E-02    0.276E-02
DAV:   4    -0.136702345148E+04    0.90193E-05   -0.75022E-05  2536   0.206E-02    0.210E-02
DAV:   5    -0.136702343815E+04    0.13329E-04   -0.41557E-05  2256   0.134E-02    0.854E-03
DAV:   6    -0.136702343878E+04   -0.63537E-06   -0.31519E-05  2200   0.102E-02    0.723E-03
DAV:   7    -0.136702343869E+04    0.96930E-07   -0.11813E-05  1992   0.679E-03    0.501E-03
DAV:   8    -0.136702343834E+04    0.35268E-06   -0.15609E-06   992   0.460E-03
  39 F= -.13670234E+04 E0= -.13670234E+04  d E =-.658925E-02
       N       E                     dE             d eps       ncg     rms          rms(c)
DAV:   1    -0.136702740346E+04   -0.39648E-02   -0.58981E+00  1368   0.339E+00    0.376E-01
DAV:   2    -0.136705718373E+04   -0.29780E-01   -0.31344E-01  2304   0.131E+00    0.189E-01
DAV:   3    -0.136705907400E+04   -0.18903E-02   -0.25386E-02  2560   0.255E-01    0.150E-01
DAV:   4    -0.136705878089E+04    0.29311E-03   -0.21340E-03  2568   0.109E-01    0.112E-01
DAV:   5    -0.136705839343E+04    0.38746E-03   -0.11511E-03  2256   0.695E-02    0.455E-02
DAV:   6    -0.136705841190E+04   -0.18469E-04   -0.88763E-04  2280   0.527E-02    0.363E-02
DAV:   7    -0.136705841541E+04   -0.35165E-05   -0.34282E-04  2456   0.333E-02    0.277E-02
DAV:   8    -0.136705841139E+04    0.40235E-05   -0.11370E-04  2528   0.210E-02    0.146E-02
DAV:   9    -0.136705840872E+04    0.26698E-05   -0.32766E-05  2136   0.114E-02    0.905E-03
DAV:  10    -0.136705840922E+04   -0.50294E-06   -0.93248E-06  1784   0.651E-03
  40 F= -.13670584E+04 E0= -.13670584E+04  d E =-.349709E-01
       N       E                     dE             d eps       ncg     rms          rms(c)
DAV:   1    -0.136706416428E+04   -0.57556E-02   -0.45624E+00  1376   0.299E+00    0.336E-01
DAV:   2    -0.136708727550E+04   -0.23111E-01   -0.24404E-01  2304   0.116E+00    0.168E-01
DAV:   3    -0.136708874727E+04   -0.14718E-02   -0.19918E-02  2568   0.228E-01    0.135E-01
DAV:   4    -0.136708850945E+04    0.23782E-03   -0.16639E-03  2576   0.974E-02    0.100E-01
DAV:   5    -0.136708819913E+04    0.31032E-03   -0.96709E-04  2248   0.642E-02    0.395E-02
DAV:   6    -0.136708822281E+04   -0.23682E-04   -0.73456E-04  2296   0.483E-02    0.350E-02
DAV:   7    -0.136708822235E+04    0.45986E-06   -0.26353E-04  2472   0.298E-02    0.254E-02
DAV:   8    -0.136708821863E+04    0.37223E-05   -0.92413E-05  2544   0.187E-02    0.127E-02
DAV:   9    -0.136708821670E+04    0.19253E-05   -0.24583E-05  2096   0.101E-02    0.803E-03
DAV:  10    -0.136708821697E+04   -0.26744E-06   -0.46316E-06  1392   0.553E-03
  41 F= -.13670882E+04 E0= -.13670882E+04  d E =-.298077E-01
       N       E                     dE             d eps       ncg     rms          rms(c)
DAV:   1    -0.136708449587E+04    0.37208E-02   -0.10261E-01  1400   0.462E-01    0.659E-02
DAV:   2    -0.136708500676E+04   -0.51089E-03   -0.57313E-03  2272   0.179E-01    0.333E-02
DAV:   3    -0.136708503190E+04   -0.25139E-04   -0.50167E-04  2568   0.405E-02    0.291E-02
DAV:   4    -0.136708501926E+04    0.12638E-04   -0.69535E-05  2576   0.188E-02    0.180E-02
DAV:   5    -0.136708501206E+04    0.72055E-05   -0.51860E-05  2120   0.144E-02    0.933E-03
DAV:   6    -0.136708501264E+04   -0.58227E-06   -0.25877E-05  2400   0.101E-02    0.942E-03
DAV:   7    -0.136708501186E+04    0.78231E-06   -0.13379E-05  1808   0.684E-03    0.499E-03
DAV:   8    -0.136708501161E+04    0.24690E-06   -0.15042E-06  1032   0.451E-03
  42 F= -.13670850E+04 E0= -.13670850E+04  d E =0.320536E-02
       N       E                     dE             d eps       ncg     rms          rms(c)
DAV:   1    -0.136709070194E+04   -0.56901E-02   -0.27004E-01  1392   0.732E-01    0.833E-02
DAV:   2    -0.136709209562E+04   -0.13937E-02   -0.14796E-02  2296   0.289E-01    0.412E-02
DAV:   3    -0.136709218536E+04   -0.89740E-04   -0.12104E-03  2544   0.565E-02    0.333E-02
DAV:   4    -0.136709217117E+04    0.14198E-04   -0.10412E-04  2544   0.243E-02    0.248E-02
DAV:   5    -0.136709215261E+04    0.18561E-04   -0.62655E-05  2216   0.162E-02    0.928E-03
DAV:   6    -0.136709215434E+04   -0.17309E-05   -0.42663E-05  2296   0.118E-02    0.878E-03
DAV:   7    -0.136709215408E+04    0.25268E-06   -0.14089E-05  2104   0.733E-03    0.588E-03
DAV:   8    -0.136709215355E+04    0.53120E-06   -0.17523E-06   992   0.491E-03
  43 F= -.13670922E+04 E0= -.13670922E+04  d E =-.714194E-02
       N       E                     dE             d eps       ncg     rms          rms(c)
DAV:   1    -0.136710011009E+04   -0.79560E-02   -0.25922E+00  1368   0.223E+00    0.250E-01
DAV:   2    -0.136711306750E+04   -0.12957E-01   -0.13648E-01  2296   0.861E-01    0.126E-01
DAV:   3    -0.136711386016E+04   -0.79266E-03   -0.10951E-02  2568   0.168E-01    0.993E-02
DAV:   4    -0.136711371229E+04    0.14787E-03   -0.91876E-04  2568   0.714E-02    0.722E-02
DAV:   5    -0.136711354855E+04    0.16374E-03   -0.47802E-04  2304   0.456E-02    0.289E-02
DAV:   6    -0.136711355646E+04   -0.79075E-05   -0.36959E-04  2336   0.339E-02    0.224E-02
DAV:   7    -0.136711355864E+04   -0.21817E-05   -0.13119E-04  2416   0.213E-02    0.176E-02
DAV:   8    -0.136711355728E+04    0.13575E-05   -0.46029E-05  2520   0.130E-02    0.938E-03
DAV:   9    -0.136711355614E+04    0.11472E-05   -0.13011E-05  1952   0.749E-03    0.581E-03
DAV:  10    -0.136711355611E+04    0.22992E-07   -0.18806E-06  1008   0.470E-03
  44 F= -.13671136E+04 E0= -.13671136E+04  d E =-.214026E-01
       N       E                     dE             d eps       ncg     rms          rms(c)
DAV:   1    -0.136679935250E+04    0.31420E+00   -0.76247E+01  1360   0.122E+01    0.137E+00
DAV:   2    -0.136718903318E+04   -0.38968E+00   -0.41205E+00  2296   0.474E+00    0.702E-01
DAV:   3    -0.136721272109E+04   -0.23688E-01   -0.33164E-01  2560   0.940E-01    0.570E-01
DAV:   4    -0.136720870183E+04    0.40193E-02   -0.29633E-02  2568   0.399E-01    0.421E-01
DAV:   5    -0.136720335834E+04    0.53435E-02   -0.14470E-02  2312   0.249E-01    0.184E-01
DAV:   6    -0.136720332116E+04    0.37184E-04   -0.12675E-02  2280   0.205E-01    0.130E-01
DAV:   7    -0.136720341726E+04   -0.96102E-04   -0.57662E-03  2432   0.138E-01    0.110E-01
DAV:   8    -0.136720335303E+04    0.64234E-04   -0.16736E-03  2568   0.820E-02    0.642E-02
DAV:   9    -0.136720331205E+04    0.40980E-04   -0.63517E-04  2480   0.462E-02    0.346E-02
DAV:  10    -0.136720332836E+04   -0.16313E-04   -0.19403E-04  2528   0.271E-02    0.276E-02
DAV:  11    -0.136720332496E+04    0.33995E-05   -0.80310E-05  2416   0.181E-02    0.173E-02
DAV:  12    -0.136720332337E+04    0.15940E-05   -0.50977E-05  2304   0.144E-02    0.144E-02
DAV:  13    -0.136720332206E+04    0.13102E-05   -0.28140E-05  2120   0.952E-03    0.764E-03
DAV:  14    -0.136720332181E+04    0.25202E-06   -0.67953E-06  1600   0.564E-03
  45 F= -.13672033E+04 E0= -.13672033E+04  d E =-.897657E-01
       N       E                     dE             d eps       ncg     rms          rms(c)
DAV:   1    -0.136715137118E+04    0.51951E-01   -0.65720E+00  1352   0.354E+00    0.399E-01
DAV:   2    -0.136718349934E+04   -0.32128E-01   -0.33900E-01  2296   0.136E+00    0.206E-01
DAV:   3    -0.136718528516E+04   -0.17858E-02   -0.26469E-02  2592   0.264E-01    0.160E-01
DAV:   4    -0.136718479271E+04    0.49245E-03   -0.23411E-03  2544   0.112E-01    0.108E-01
DAV:   5    -0.136718442733E+04    0.36538E-03   -0.11674E-03  2280   0.702E-02    0.406E-02
DAV:   6    -0.136718445312E+04   -0.25786E-04   -0.75242E-04  2344   0.479E-02    0.310E-02
DAV:   7    -0.136718445731E+04   -0.41875E-05   -0.23958E-04  2400   0.297E-02    0.235E-02
DAV:   8    -0.136718445666E+04    0.64306E-06   -0.95358E-05  2536   0.177E-02    0.133E-02
DAV:   9    -0.136718445469E+04    0.19727E-05   -0.22810E-05  2160   0.102E-02    0.890E-03
DAV:  10    -0.136718445462E+04    0.73560E-07   -0.94080E-06  1720   0.674E-03
  46 F= -.13671845E+04 E0= -.13671845E+04  d E =0.188672E-01
       N       E                     dE             d eps       ncg     rms          rms(c)
DAV:   1    -0.136718776344E+04   -0.33088E-02   -0.13184E+00  1384   0.161E+00    0.182E-01
DAV:   2    -0.136719453097E+04   -0.67675E-02   -0.71504E-02  2280   0.632E-01    0.911E-02
DAV:   3    -0.136719494872E+04   -0.41775E-03   -0.57495E-03  2560   0.123E-01    0.726E-02
DAV:   4    -0.136719487570E+04    0.73016E-04   -0.50032E-04  2552   0.525E-02    0.533E-02
DAV:   5    -0.136719479139E+04    0.84311E-04   -0.24500E-04  2328   0.322E-02    0.224E-02
DAV:   6    -0.136719479168E+04   -0.28772E-06   -0.19089E-04  2256   0.254E-02    0.155E-02
DAV:   7    -0.136719479427E+04   -0.25869E-05   -0.90535E-05  2400   0.169E-02    0.133E-02
DAV:   8    -0.136719479332E+04    0.94957E-06   -0.24118E-05  2384   0.101E-02    0.751E-03
DAV:   9    -0.136719479270E+04    0.61546E-06   -0.86632E-06  1824   0.601E-03
  47 F= -.13671948E+04 E0= -.13671948E+04  d E =-.103381E-01
       N       E                     dE             d eps       ncg     rms          rms(c)
DAV:   1    -0.136719793489E+04   -0.31416E-02   -0.71482E-01  1376   0.118E+00    0.132E-01
DAV:   2    -0.136720158550E+04   -0.36506E-02   -0.38466E-02  2288   0.465E-01    0.673E-02
DAV:   3    -0.136720180589E+04   -0.22039E-03   -0.30225E-03  2560   0.899E-02    0.537E-02
DAV:   4    -0.136720176877E+04    0.37121E-04   -0.26705E-04  2568   0.383E-02    0.394E-02
DAV:   5    -0.136720172755E+04    0.41213E-04   -0.13801E-04  2328   0.238E-02    0.162E-02
DAV:   6    -0.136720172955E+04   -0.19922E-05   -0.98173E-05  2288   0.182E-02    0.120E-02
DAV:   7    -0.136720173040E+04   -0.85290E-06   -0.47152E-05  2392   0.124E-02    0.956E-03
DAV:   8    -0.136720172986E+04    0.54011E-06   -0.13154E-05  2160   0.768E-03    0.536E-03
DAV:   9    -0.136720172943E+04    0.42870E-06   -0.19755E-06  1008   0.448E-03
  48 F= -.13672017E+04 E0= -.13672017E+04  d E =-.693673E-02
       N       E                     dE             d eps       ncg     rms          rms(c)
DAV:   1    -0.136717488192E+04    0.26848E-01   -0.91640E+00  1376   0.422E+00    0.475E-01
DAV:   2    -0.136722186666E+04   -0.46985E-01   -0.49602E-01  2288   0.167E+00    0.242E-01
DAV:   3    -0.136722469892E+04   -0.28323E-02   -0.39273E-02  2560   0.330E-01    0.192E-01
DAV:   4    -0.136722420299E+04    0.49594E-03   -0.35504E-03  2552   0.139E-01    0.140E-01
DAV:   5    -0.136722367154E+04    0.53144E-03   -0.17621E-03  2344   0.846E-02    0.584E-02
DAV:   6    -0.136722368866E+04   -0.17114E-04   -0.12432E-03  2296   0.651E-02    0.417E-02
DAV:   7    -0.136722370082E+04   -0.12165E-04   -0.60563E-04  2440   0.443E-02    0.344E-02
DAV:   8    -0.136722369556E+04    0.52610E-05   -0.18421E-04  2552   0.267E-02    0.208E-02
DAV:   9    -0.136722369217E+04    0.33881E-05   -0.58021E-05  2424   0.146E-02    0.123E-02
DAV:  10    -0.136722369324E+04   -0.10635E-05   -0.18633E-05  2208   0.871E-03    0.862E-03
DAV:  11    -0.136722369264E+04    0.59707E-06   -0.46104E-06  1248   0.604E-03
  49 F= -.13672237E+04 E0= -.13672237E+04  d E =-.219632E-01
       N       E                     dE             d eps       ncg     rms          rms(c)
DAV:   1    -0.136722321545E+04    0.47778E-03   -0.14296E+00  1384   0.168E+00    0.188E-01
DAV:   2    -0.136723055663E+04   -0.73412E-02   -0.77436E-02  2304   0.667E-01    0.959E-02
DAV:   3    -0.136723098730E+04   -0.43067E-03   -0.59116E-03  2568   0.129E-01    0.759E-02
DAV:   4    -0.136723091327E+04    0.74034E-04   -0.54317E-04  2584   0.547E-02    0.556E-02
DAV:   5    -0.136723083170E+04    0.81565E-04   -0.28937E-04  2328   0.351E-02    0.217E-02
DAV:   6    -0.136723083911E+04   -0.74043E-05   -0.20092E-04  2336   0.264E-02    0.172E-02
DAV:   7    -0.136723084026E+04   -0.11542E-05   -0.82052E-05  2432   0.166E-02    0.130E-02
DAV:   8    -0.136723083956E+04    0.70130E-06   -0.25913E-05  2448   0.101E-02    0.686E-03
DAV:   9    -0.136723083906E+04    0.50516E-06   -0.45473E-06  1360   0.546E-03
  50 F= -.13672308E+04 E0= -.13672308E+04  d E =-.714642E-02
       N       E                     dE             d eps       ncg     rms          rms(c)
DAV:   1    -0.136723198192E+04   -0.11424E-02   -0.13209E-01  1384   0.519E-01    0.631E-02
DAV:   2    -0.136723264096E+04   -0.65904E-03   -0.71290E-03  2288   0.205E-01    0.324E-02
DAV:   3    -0.136723268283E+04   -0.41866E-04   -0.61821E-04  2584   0.423E-02    0.279E-02
DAV:   4    -0.136723267360E+04    0.92234E-05   -0.60647E-05  2552   0.188E-02    0.197E-02
DAV:   5    -0.136723266445E+04    0.91549E-05   -0.48837E-05  2168   0.137E-02    0.839E-03
DAV:   6    -0.136723266572E+04   -0.12723E-05   -0.27775E-05  2352   0.105E-02    0.955E-03
DAV:   7    -0.136723266510E+04    0.61875E-06   -0.15130E-05  2112   0.713E-03    0.544E-03
DAV:   8    -0.136723266468E+04    0.41859E-06   -0.15820E-06  1024   0.443E-03
  51 F= -.13672327E+04 E0= -.13672327E+04  d E =-.182563E-02
       N       E                     dE             d eps       ncg     rms          rms(c)
DAV:   1    -0.136723301988E+04   -0.35478E-03   -0.88373E-01  1384   0.133E+00    0.147E-01
DAV:   2    -0.136723751396E+04   -0.44941E-02   -0.47345E-02  2312   0.525E-01    0.751E-02
DAV:   3    -0.136723778260E+04   -0.26863E-03   -0.36452E-03  2568   0.101E-01    0.595E-02
DAV:   4    -0.136723774068E+04    0.41921E-04   -0.32763E-04  2568   0.428E-02    0.441E-02
DAV:   5    -0.136723769138E+04    0.49292E-04   -0.17786E-04  2328   0.274E-02    0.183E-02
DAV:   6    -0.136723769464E+04   -0.32520E-05   -0.12816E-04  2304   0.217E-02    0.142E-02
DAV:   7    -0.136723769541E+04   -0.77311E-06   -0.59916E-05  2424   0.142E-02    0.111E-02
DAV:   8    -0.136723769478E+04    0.63321E-06   -0.18591E-05  2312   0.875E-03    0.592E-03
DAV:   9    -0.136723769432E+04    0.45805E-06   -0.25793E-06  1128   0.467E-03
  52 F= -.13672377E+04 E0= -.13672377E+04  d E =-.502964E-02
       N       E                     dE             d eps       ncg     rms          rms(c)
DAV:   1    -0.136719011487E+04    0.47580E-01   -0.11786E+01  1384   0.480E+00    0.529E-01
DAV:   2    -0.136725015994E+04   -0.60045E-01   -0.63199E-01  2320   0.190E+00    0.272E-01
DAV:   3    -0.136725360083E+04   -0.34409E-02   -0.47232E-02  2568   0.369E-01    0.216E-01
DAV:   4    -0.136725306231E+04    0.53852E-03   -0.44082E-03  2552   0.154E-01    0.158E-01
DAV:   5    -0.136725244615E+04    0.61616E-03   -0.21867E-03  2368   0.964E-02    0.675E-02
DAV:   6    -0.136725247649E+04   -0.30345E-04   -0.15946E-03  2320   0.754E-02    0.481E-02
DAV:   7    -0.136725248971E+04   -0.13213E-04   -0.74885E-04  2472   0.502E-02    0.396E-02
DAV:   8    -0.136725248316E+04    0.65485E-05   -0.24073E-04  2544   0.305E-02    0.229E-02
DAV:   9    -0.136725247991E+04    0.32459E-05   -0.72586E-05  2480   0.162E-02    0.135E-02
DAV:  10    -0.136725248140E+04   -0.14925E-05   -0.20737E-05  2376   0.946E-03    0.101E-02
DAV:  11    -0.136725248062E+04    0.78413E-06   -0.65723E-06  1408   0.630E-03
  53 F= -.13672525E+04 E0= -.13672525E+04  d E =-.147863E-01
       N       E                     dE             d eps       ncg     rms          rms(c)
DAV:   1    -0.136725171516E+04    0.76625E-03   -0.91412E-02  1408   0.424E-01    0.506E-02
DAV:   2    -0.136725220255E+04   -0.48739E-03   -0.52011E-03  2296   0.176E-01    0.268E-02
DAV:   3    -0.136725223125E+04   -0.28708E-04   -0.42073E-04  2576   0.333E-02    0.218E-02
DAV:   4    -0.136725222478E+04    0.64787E-05   -0.38848E-05  2392   0.147E-02    0.153E-02
DAV:   5    -0.136725221910E+04    0.56757E-05   -0.21303E-05  2120   0.891E-03    0.621E-03
DAV:   6    -0.136725221952E+04   -0.42365E-06   -0.13165E-05  2024   0.686E-03    0.498E-03
DAV:   7    -0.136725221935E+04    0.17566E-06   -0.59598E-06  1584   0.508E-03
  54 F= -.13672522E+04 E0= -.13672522E+04  d E =0.261272E-03
       N       E                     dE             d eps       ncg     rms          rms(c)
DAV:   1    -0.136725282709E+04   -0.60757E-03   -0.78855E-02  1400   0.400E-01    0.449E-02
DAV:   2    -0.136725322405E+04   -0.39695E-03   -0.42152E-03  2288   0.158E-01    0.222E-02
DAV:   3    -0.136725325180E+04   -0.27751E-04   -0.34747E-04  2576   0.309E-02    0.187E-02
DAV:   4    -0.136725324941E+04    0.23917E-05   -0.29649E-05  2352   0.132E-02    0.145E-02
DAV:   5    -0.136725324527E+04    0.41376E-05   -0.16415E-05  2120   0.851E-03    0.637E-03
DAV:   6    -0.136725324550E+04   -0.23443E-06   -0.12474E-05  2072   0.700E-03    0.490E-03
DAV:   7    -0.136725324517E+04    0.33506E-06   -0.29657E-06  1120   0.488E-03
  55 F= -.13672532E+04 E0= -.13672532E+04  d E =-.102582E-02
       N       E                     dE             d eps       ncg     rms          rms(c)
DAV:   1    -0.136725289598E+04    0.34953E-03   -0.31081E-01  1376   0.780E-01    0.858E-02
DAV:   2    -0.136725445829E+04   -0.15623E-02   -0.16403E-02  2288   0.307E-01    0.438E-02
DAV:   3    -0.136725455284E+04   -0.94559E-04   -0.12606E-03  2576   0.585E-02    0.356E-02
DAV:   4    -0.136725454139E+04    0.11457E-04   -0.11321E-04  2560   0.247E-02    0.273E-02
DAV:   5    -0.136725452308E+04    0.18310E-04   -0.50696E-05  2304   0.150E-02    0.127E-02
DAV:   6    -0.136725452195E+04    0.11304E-05   -0.48011E-05  2120   0.137E-02    0.741E-03
DAV:   7    -0.136725452310E+04   -0.11550E-05   -0.28729E-05  2264   0.961E-03    0.723E-03
DAV:   8    -0.136725452254E+04    0.56413E-06   -0.24774E-06  1096   0.541E-03
  56 F= -.13672545E+04 E0= -.13672545E+04  d E =-.127737E-02
       N       E                     dE             d eps       ncg     rms          rms(c)
DAV:   1    -0.136725481940E+04   -0.29629E-03   -0.25851E-01  1384   0.714E-01    0.765E-02
DAV:   2    -0.136725610438E+04   -0.12850E-02   -0.13450E-02  2304   0.278E-01    0.390E-02
DAV:   3    -0.136725618396E+04   -0.79580E-04   -0.10284E-03  2568   0.531E-02    0.313E-02
DAV:   4    -0.136725617694E+04    0.70169E-05   -0.91264E-05  2568   0.222E-02    0.245E-02
DAV:   5    -0.136725616425E+04    0.12693E-04   -0.34964E-05  2384   0.129E-02    0.133E-02
DAV:   6    -0.136725616123E+04    0.30151E-05   -0.38116E-05  2128   0.130E-02    0.618E-03
DAV:   7    -0.136725616290E+04   -0.16645E-05   -0.27971E-05  2288   0.933E-03    0.720E-03
DAV:   8    -0.136725616254E+04    0.36189E-06   -0.17698E-06  1032   0.496E-03
  57 F= -.13672562E+04 E0= -.13672562E+04  d E =-.164000E-02
       N       E                     dE             d eps       ncg     rms          rms(c)
DAV:   1    -0.136725663050E+04   -0.46760E-03   -0.22123E-01  1384   0.661E-01    0.712E-02
DAV:   2    -0.136725773187E+04   -0.11014E-02   -0.11542E-02  2296   0.257E-01    0.359E-02
DAV:   3    -0.136725780159E+04   -0.69721E-04   -0.88678E-04  2568   0.499E-02    0.294E-02
DAV:   4    -0.136725779732E+04    0.42748E-05   -0.78931E-05  2584   0.204E-02    0.237E-02
DAV:   5    -0.136725778569E+04    0.11634E-04   -0.28207E-05  2352   0.119E-02    0.135E-02
DAV:   6    -0.136725778240E+04    0.32894E-05   -0.37803E-05  2072   0.128E-02    0.576E-03
DAV:   7    -0.136725778403E+04   -0.16378E-05   -0.26188E-05  2280   0.903E-03    0.706E-03
DAV:   8    -0.136725778377E+04    0.26745E-06   -0.16354E-06  1024   0.476E-03
  58 F= -.13672578E+04 E0= -.13672578E+04  d E =-.162123E-02
       N       E                     dE             d eps       ncg     rms          rms(c)
DAV:   1    -0.136725389976E+04    0.38843E-02   -0.15936E+00  1376   0.177E+00    0.191E-01
DAV:   2    -0.136726178221E+04   -0.78824E-02   -0.82617E-02  2288   0.687E-01    0.954E-02
DAV:   3    -0.136726228457E+04   -0.50235E-03   -0.64180E-03  2560   0.135E-01    0.774E-02
DAV:   4    -0.136726224410E+04    0.40464E-04   -0.55271E-04  2608   0.542E-02    0.614E-02
DAV:   5    -0.136726215494E+04    0.89161E-04   -0.23180E-04  2400   0.332E-02    0.314E-02
DAV:   6    -0.136726214252E+04    0.12427E-04   -0.25463E-04  2200   0.317E-02    0.159E-02
DAV:   7    -0.136726215024E+04   -0.77270E-05   -0.15241E-04  2384   0.218E-02    0.172E-02
DAV:   8    -0.136726214932E+04    0.92811E-06   -0.27858E-05  2424   0.118E-02    0.131E-02
DAV:   9    -0.136726214685E+04    0.24675E-05   -0.13898E-05  1768   0.726E-03    0.629E-03
DAV:  10    -0.136726214746E+04   -0.60919E-06   -0.10788E-05  1752   0.635E-03    0.385E-03
DAV:  11    -0.136726214735E+04    0.11183E-06   -0.13263E-06   920   0.429E-03
  59 F= -.13672621E+04 E0= -.13672621E+04  d E =-.436358E-02
       N       E                     dE             d eps       ncg     rms          rms(c)
DAV:   1    -0.136726164827E+04    0.49919E-03   -0.61638E-01  1376   0.110E+00    0.122E-01
DAV:   2    -0.136726471186E+04   -0.30636E-02   -0.32274E-02  2272   0.428E-01    0.599E-02
DAV:   3    -0.136726491880E+04   -0.20693E-03   -0.26264E-03  2568   0.848E-02    0.490E-02
DAV:   4    -0.136726490037E+04    0.18429E-04   -0.22043E-04  2608   0.349E-02    0.384E-02
DAV:   5    -0.136726486487E+04    0.35494E-04   -0.10817E-04  2352   0.221E-02    0.171E-02
DAV:   6    -0.136726486460E+04    0.27222E-06   -0.93547E-05  2272   0.181E-02    0.114E-02
DAV:   7    -0.136726486559E+04   -0.98550E-06   -0.44907E-05  2408   0.123E-02    0.924E-03
DAV:   8    -0.136726486514E+04    0.44382E-06   -0.11230E-05  2024   0.738E-03    0.544E-03
DAV:   9    -0.136726486472E+04    0.42554E-06   -0.22513E-06  1064   0.447E-03
  60 F= -.13672649E+04 E0= -.13672649E+04  d E =-.271737E-02
       N       E                     dE             d eps       ncg     rms          rms(c)
DAV:   1    -0.136726394354E+04    0.92161E-03   -0.57698E-02  1376   0.344E-01    0.399E-02
DAV:   2    -0.136726422589E+04   -0.28236E-03   -0.30209E-03  2288   0.132E-01    0.194E-02
DAV:   3    -0.136726424442E+04   -0.18525E-04   -0.24581E-04  2544   0.263E-02    0.164E-02
DAV:   4    -0.136726424166E+04    0.27570E-05   -0.20756E-05  2096   0.113E-02    0.119E-02
DAV:   5    -0.136726423836E+04    0.32995E-05   -0.17783E-05  2032   0.882E-03    0.417E-03
DAV:   6    -0.136726423875E+04   -0.38558E-06   -0.66211E-06  1560   0.597E-03
  61 F= -.13672642E+04 E0= -.13672642E+04  d E =0.625971E-03
       N       E                     dE             d eps       ncg     rms          rms(c)
DAV:   1    -0.136726477289E+04   -0.53453E-03   -0.66329E-02  1400   0.362E-01    0.394E-02
DAV:   2    -0.136726511187E+04   -0.33898E-03   -0.35610E-03  2288   0.144E-01    0.201E-02
DAV:   3    -0.136726513343E+04   -0.21567E-04   -0.28078E-04  2560   0.274E-02    0.161E-02
DAV:   4    -0.136726513072E+04    0.27100E-05   -0.21293E-05  2184   0.113E-02    0.124E-02
DAV:   5    -0.136726512635E+04    0.43720E-05   -0.12280E-05  1960   0.777E-03    0.520E-03
DAV:   6    -0.136726512656E+04   -0.20415E-06   -0.11242E-05  2016   0.630E-03    0.380E-03
DAV:   7    -0.136726512639E+04    0.16970E-06   -0.17715E-06  1024   0.391E-03
  62 F= -.13672651E+04 E0= -.13672651E+04  d E =-.887640E-03
       N       E                     dE             d eps       ncg     rms          rms(c)
DAV:   1    -0.136723541766E+04    0.29709E-01   -0.71818E+00  1376   0.375E+00    0.414E-01
DAV:   2    -0.136727174825E+04   -0.36331E-01   -0.38256E-01  2280   0.147E+00    0.205E-01
DAV:   3    -0.136727417051E+04   -0.24223E-02   -0.30902E-02  2568   0.291E-01    0.169E-01
DAV:   4    -0.136727396739E+04    0.20313E-03   -0.25904E-03  2616   0.119E-01    0.134E-01
DAV:   5    -0.136727352481E+04    0.44258E-03   -0.11397E-03  2384   0.725E-02    0.671E-02
DAV:   6    -0.136727347331E+04    0.51494E-04   -0.12641E-03  2208   0.682E-02    0.369E-02
DAV:   7    -0.136727350097E+04   -0.27653E-04   -0.68805E-04  2400   0.468E-02    0.372E-02
DAV:   8    -0.136727349703E+04    0.39326E-05   -0.14174E-04  2496   0.256E-02    0.279E-02
DAV:   9    -0.136727348632E+04    0.10716E-04   -0.74084E-05  2336   0.156E-02    0.132E-02
DAV:  10    -0.136727348899E+04   -0.26727E-05   -0.41680E-05  2248   0.114E-02    0.855E-03
DAV:  11    -0.136727348914E+04   -0.14578E-06   -0.77514E-06  1536   0.649E-03
  63 F= -.13672735E+04 E0= -.13672735E+04  d E =-.836275E-02
       N       E                     dE             d eps       ncg     rms          rms(c)
DAV:   1    -0.136727372024E+04   -0.23125E-03   -0.90776E-02  1384   0.422E-01    0.495E-02
DAV:   2    -0.136727415817E+04   -0.43793E-03   -0.46236E-03  2272   0.161E-01    0.244E-02
DAV:   3    -0.136727418208E+04   -0.23906E-04   -0.36085E-04  2592   0.321E-02    0.199E-02
DAV:   4    -0.136727417427E+04    0.78116E-05   -0.33329E-05  2400   0.138E-02    0.135E-02
DAV:   5    -0.136727416790E+04    0.63670E-05   -0.27431E-05  2104   0.115E-02    0.436E-03
DAV:   6    -0.136727416935E+04   -0.14539E-05   -0.18492E-05  2280   0.773E-03    0.532E-03
DAV:   7    -0.136727416900E+04    0.35309E-06   -0.13431E-06   992   0.418E-03
  64 F= -.13672742E+04 E0= -.13672742E+04  d E =-.679865E-03
       N       E                     dE             d eps       ncg     rms          rms(c)
DAV:   1    -0.136727426670E+04   -0.97343E-04   -0.62880E-03  1448   0.116E-01    0.180E-02
DAV:   2    -0.136727430017E+04   -0.33474E-04   -0.39640E-04  2384   0.490E-02    0.934E-03
DAV:   3    -0.136727430144E+04   -0.12688E-05   -0.33357E-05  2432   0.122E-02    0.817E-03
DAV:   4    -0.136727430027E+04    0.11691E-05   -0.25047E-06  1088   0.547E-03    0.562E-03
DAV:   5    -0.136727430100E+04   -0.73401E-06   -0.21706E-05  1736   0.764E-03    0.715E-03
DAV:   6    -0.136727430034E+04    0.66413E-06   -0.18736E-06  1008   0.584E-03
  65 F= -.13672743E+04 E0= -.13672743E+04  d E =-.131339E-03
       N       E                     dE             d eps       ncg     rms          rms(c)
DAV:   1    -0.136727457472E+04   -0.27371E-03   -0.97678E-02  1408   0.440E-01    0.507E-02
DAV:   2    -0.136727508986E+04   -0.51514E-03   -0.54635E-03  2280   0.178E-01    0.249E-02
DAV:   3    -0.136727512671E+04   -0.36857E-04   -0.46205E-04  2568   0.347E-02    0.214E-02
DAV:   4    -0.136727512428E+04    0.24357E-05   -0.40205E-05  2520   0.149E-02    0.174E-02
DAV:   5    -0.136727511702E+04    0.72555E-05   -0.16475E-05  2112   0.918E-03    0.946E-03
DAV:   6    -0.136727511567E+04    0.13531E-05   -0.25212E-05  2024   0.100E-02    0.493E-03
DAV:   7    -0.136727511623E+04   -0.55823E-06   -0.13565E-05  2040   0.704E-03    0.505E-03
DAV:   8    -0.136727511611E+04    0.12107E-06   -0.11483E-06  1000   0.371E-03
  66 F= -.13672751E+04 E0= -.13672751E+04  d E =-.815767E-03
       N       E                     dE             d eps       ncg     rms          rms(c)
DAV:   1    -0.136727494240E+04    0.17383E-03   -0.26340E-01  1400   0.715E-01    0.800E-02
DAV:   2    -0.136727627679E+04   -0.13344E-02   -0.14032E-02  2272   0.282E-01    0.393E-02
DAV:   3    -0.136727636742E+04   -0.90629E-04   -0.11557E-03  2568   0.544E-02    0.326E-02
DAV:   4    -0.136727636087E+04    0.65404E-05   -0.94656E-05  2608   0.227E-02    0.269E-02
DAV:   5    -0.136727634218E+04    0.18692E-04   -0.40271E-05  2304   0.139E-02    0.145E-02
DAV:   6    -0.136727633803E+04    0.41538E-05   -0.55031E-05  2080   0.145E-02    0.711E-03
DAV:   7    -0.136727633981E+04   -0.17853E-05   -0.34410E-05  2304   0.103E-02    0.784E-03
DAV:   8    -0.136727633951E+04    0.30689E-06   -0.29311E-06  1200   0.541E-03
  67 F= -.13672763E+04 E0= -.13672763E+04  d E =-.122340E-02
       N       E                     dE             d eps       ncg     rms          rms(c)
DAV:   1    -0.136727463001E+04    0.17098E-02   -0.65495E-01  1376   0.113E+00    0.126E-01
DAV:   2    -0.136727791910E+04   -0.32891E-02   -0.34647E-02  2272   0.440E-01    0.620E-02
DAV:   3    -0.136727814317E+04   -0.22407E-03   -0.28554E-03  2568   0.864E-02    0.519E-02
DAV:   4    -0.136727812741E+04    0.15764E-04   -0.23476E-04  2624   0.355E-02    0.424E-02
DAV:   5    -0.136727808170E+04    0.45705E-04   -0.10032E-04  2344   0.218E-02    0.226E-02
DAV:   6    -0.136727807327E+04    0.84345E-05   -0.13736E-04  2112   0.222E-02    0.111E-02
DAV:   7    -0.136727807674E+04   -0.34772E-05   -0.73784E-05  2360   0.152E-02    0.119E-02
DAV:   8    -0.136727807655E+04    0.19404E-06   -0.13049E-05  2144   0.810E-03    0.973E-03
DAV:   9    -0.136727807506E+04    0.14887E-05   -0.53754E-06  1424   0.503E-03    0.547E-03
DAV:  10    -0.136727807535E+04   -0.28455E-06   -0.89086E-06  1624   0.557E-03
  68 F= -.13672781E+04 E0= -.13672781E+04  d E =-.173584E-02
       N       E                     dE             d eps       ncg     rms          rms(c)
DAV:   1    -0.136727808875E+04   -0.13686E-04   -0.15371E-01  1360   0.546E-01    0.611E-02
DAV:   2    -0.136727883390E+04   -0.74515E-03   -0.78535E-03  2264   0.209E-01    0.304E-02
DAV:   3    -0.136727887948E+04   -0.45578E-04   -0.62595E-04  2568   0.420E-02    0.243E-02
DAV:   4    -0.136727887193E+04    0.75494E-05   -0.53988E-05  2536   0.172E-02    0.182E-02
DAV:   5    -0.136727886196E+04    0.99693E-05   -0.29539E-05  2200   0.117E-02    0.714E-03
DAV:   6    -0.136727886250E+04   -0.54485E-06   -0.24557E-05  2248   0.934E-03    0.587E-03
DAV:   7    -0.136727886258E+04   -0.73502E-07   -0.82274E-06  1824   0.576E-03
  69 F= -.13672789E+04 E0= -.13672789E+04  d E =-.787233E-03
       N       E                     dE             d eps       ncg     rms          rms(c)
DAV:   1    -0.136727858508E+04    0.27742E-03   -0.14487E-02  1400   0.172E-01    0.204E-02
DAV:   2    -0.136727865681E+04   -0.71731E-04   -0.77457E-04  2280   0.681E-02    0.109E-02
DAV:   3    -0.136727866069E+04   -0.38793E-05   -0.64099E-05  2512   0.135E-02    0.895E-03
DAV:   4    -0.136727865905E+04    0.16450E-05   -0.39582E-06  1272   0.611E-03    0.630E-03
DAV:   5    -0.136727865810E+04    0.95033E-06   -0.14527E-05  1880   0.739E-03    0.374E-03
DAV:   6    -0.136727865795E+04    0.14412E-06   -0.19377E-06  1024   0.499E-03
  70 F= -.13672787E+04 E0= -.13672787E+04  d E =0.204625E-03
       N       E                     dE             d eps       ncg     rms          rms(c)
DAV:   1    -0.136727877971E+04   -0.12161E-03   -0.81163E-03  1424   0.126E-01    0.137E-02
DAV:   2    -0.136727882001E+04   -0.40302E-04   -0.42407E-04  2264   0.506E-02    0.723E-03
DAV:   3    -0.136727882252E+04   -0.25065E-05   -0.33905E-05  2296   0.948E-03    0.562E-03
DAV:   4    -0.136727882198E+04    0.53723E-06   -0.14856E-06  1032   0.445E-03
  71 F= -.13672788E+04 E0= -.13672788E+04  d E =-.164027E-03
       N       E                     dE             d eps       ncg     rms          rms(c)
DAV:   1    -0.136727887325E+04   -0.50728E-04   -0.10400E-01  1368   0.443E-01    0.481E-02
DAV:   2    -0.136727935880E+04   -0.48555E-03   -0.50829E-03  2272   0.168E-01    0.242E-02
DAV:   3    -0.136727938846E+04   -0.29659E-04   -0.39900E-04  2576   0.322E-02    0.190E-02
DAV:   4    -0.136727938394E+04    0.45136E-05   -0.32278E-05  2400   0.131E-02    0.143E-02
DAV:   5    -0.136727937711E+04    0.68356E-05   -0.18449E-05  2056   0.962E-03    0.549E-03
DAV:   6    -0.136727937776E+04   -0.64947E-06   -0.16414E-05  2120   0.717E-03    0.461E-03
DAV:   7    -0.136727937763E+04    0.12982E-06   -0.15404E-06  1032   0.384E-03
  72 F= -.13672794E+04 E0= -.13672794E+04  d E =-.555645E-03
       N       E                     dE             d eps       ncg     rms          rms(c)
DAV:   1    -0.136727703287E+04    0.23449E-02   -0.73665E-01  1360   0.119E+00    0.132E-01
DAV:   2    -0.136728059451E+04   -0.35616E-02   -0.37487E-02  2280   0.453E-01    0.655E-02
DAV:   3    -0.136728082056E+04   -0.22606E-03   -0.29763E-03  2576   0.898E-02    0.533E-02
DAV:   4    -0.136728079599E+04    0.24578E-04   -0.25148E-04  2608   0.361E-02    0.412E-02
DAV:   5    -0.136728074963E+04    0.46358E-04   -0.11984E-04  2288   0.235E-02    0.185E-02
DAV:   6    -0.136728074927E+04    0.35639E-06   -0.11987E-04  2248   0.196E-02    0.121E-02
DAV:   7    -0.136728075051E+04   -0.12371E-05   -0.48531E-05  2376   0.126E-02    0.105E-02
DAV:   8    -0.136728074986E+04    0.64420E-06   -0.13953E-05  2160   0.769E-03    0.617E-03
DAV:   9    -0.136728074930E+04    0.55922E-06   -0.32415E-06  1216   0.469E-03
  73 F= -.13672807E+04 E0= -.13672807E+04  d E =-.137168E-02
       N       E                     dE             d eps       ncg     rms          rms(c)
DAV:   1    -0.136728083558E+04   -0.85719E-04   -0.27528E-02  1408   0.238E-01    0.280E-02
DAV:   2    -0.136728097953E+04   -0.14395E-03   -0.15304E-03  2296   0.960E-02    0.144E-02
DAV:   3    -0.136728098858E+04   -0.90545E-05   -0.12915E-04  2576   0.186E-02    0.116E-02
DAV:   4    -0.136728098653E+04    0.20497E-05   -0.10864E-05  1888   0.865E-03    0.836E-03
DAV:   5    -0.136728098446E+04    0.20763E-05   -0.87357E-06  1864   0.683E-03    0.300E-03
DAV:   6    -0.136728098455E+04   -0.95504E-07   -0.38543E-06  1208   0.526E-03
  74 F= -.13672810E+04 E0= -.13672810E+04  d E =-.235249E-03
       N       E                     dE             d eps       ncg     rms          rms(c)
DAV:   1    -0.136728097131E+04    0.13152E-04   -0.13634E-03  1512   0.543E-02    0.817E-03
DAV:   2    -0.136728097821E+04   -0.68989E-05   -0.83602E-05  2328   0.237E-02    0.451E-03
DAV:   3    -0.136728097819E+04    0.13591E-07   -0.57381E-06  1432   0.567E-03
  75 F= -.13672810E+04 E0= -.13672810E+04  d E =0.636208E-05
       N       E                     dE             d eps       ncg     rms          rms(c)
DAV:   1    -0.136728106453E+04   -0.86325E-04   -0.13500E-02  1408   0.167E-01    0.189E-02
DAV:   2    -0.136728113640E+04   -0.71864E-04   -0.75641E-04  2304   0.682E-02    0.940E-03
DAV:   3    -0.136728114104E+04   -0.46413E-05   -0.59736E-05  2472   0.128E-02    0.748E-03
DAV:   4    -0.136728114031E+04    0.73075E-06   -0.30019E-06  1168   0.589E-03
  76 F= -.13672811E+04 E0= -.13672811E+04  d E =-.162114E-03
       N       E                     dE             d eps       ncg     rms          rms(c)
DAV:   1    -0.136728115411E+04   -0.13075E-04   -0.12613E-04  1760   0.166E-02    0.245E-03
DAV:   2    -0.136728115456E+04   -0.44388E-06   -0.60615E-06  1488   0.679E-03
  77 F= -.13672812E+04 E0= -.13672812E+04  d E =-.142499E-04
       N       E                     dE             d eps       ncg     rms          rms(c)
DAV:   1    -0.136728128113E+04   -0.12702E-03   -0.11517E-02  1416   0.154E-01    0.184E-02
DAV:   2    -0.136728134565E+04   -0.64521E-04   -0.69814E-04  2288   0.637E-02    0.930E-03
DAV:   3    -0.136728135084E+04   -0.51843E-05   -0.64621E-05  2456   0.137E-02    0.782E-03
DAV:   4    -0.136728135029E+04    0.55184E-06   -0.43772E-06  1336   0.642E-03
  78 F= -.13672814E+04 E0= -.13672814E+04  d E =-.195731E-03
       N       E                     dE             d eps       ncg     rms          rms(c)
DAV:   1    -0.136728146945E+04   -0.11862E-03   -0.25964E-02  1408   0.227E-01    0.262E-02
DAV:   2    -0.136728160637E+04   -0.13692E-03   -0.14749E-03  2296   0.933E-02    0.136E-02
DAV:   3    -0.136728161613E+04   -0.97577E-05   -0.13083E-04  2576   0.184E-02    0.106E-02
DAV:   4    -0.136728161468E+04    0.14544E-05   -0.11002E-05  1952   0.862E-03    0.774E-03
DAV:   5    -0.136728161317E+04    0.15076E-05   -0.73588E-06  1744   0.619E-03    0.262E-03
DAV:   6    -0.136728161329E+04   -0.12451E-06   -0.24643E-06  1120   0.460E-03
  79 F= -.13672816E+04 E0= -.13672816E+04  d E =-.263007E-03
       N       E                     dE             d eps       ncg     rms          rms(c)
DAV:   1    -0.136728154192E+04    0.71251E-04   -0.82826E-02  1400   0.410E-01    0.496E-02
DAV:   2    -0.136728200315E+04   -0.46124E-03   -0.49701E-03  2288   0.171E-01    0.233E-02
DAV:   3    -0.136728203897E+04   -0.35821E-04   -0.44515E-04  2568   0.345E-02    0.198E-02
DAV:   4    -0.136728203641E+04    0.25604E-05   -0.39998E-05  2528   0.154E-02    0.156E-02
DAV:   5    -0.136728203142E+04    0.49931E-05   -0.16941E-05  2200   0.888E-03    0.763E-03
DAV:   6    -0.136728203101E+04    0.41304E-06   -0.16250E-05  2080   0.799E-03    0.461E-03
DAV:   7    -0.136728203112E+04   -0.11438E-06   -0.74252E-06  1688   0.562E-03
  80 F= -.13672820E+04 E0= -.13672820E+04  d E =-.417828E-03
       N       E                     dE             d eps       ncg     rms          rms(c)
DAV:   1    -0.136728204813E+04   -0.17127E-04   -0.22513E-02  1400   0.212E-01    0.241E-02
DAV:   2    -0.136728216018E+04   -0.11204E-03   -0.11753E-03  2304   0.835E-02    0.116E-02
DAV:   3    -0.136728216661E+04   -0.64313E-05   -0.87558E-05  2536   0.154E-02    0.969E-03
DAV:   4    -0.136728216561E+04    0.99828E-06   -0.55812E-06  1480   0.666E-03
  81 F= -.13672822E+04 E0= -.13672822E+04  d E =-.134490E-03
       N       E                     dE             d eps       ncg     rms          rms(c)
DAV:   1    -0.136728218931E+04   -0.22702E-04   -0.12823E-02  1400   0.154E-01    0.161E-02
DAV:   2    -0.136728224169E+04   -0.52381E-04   -0.55079E-04  2312   0.585E-02    0.906E-03
DAV:   3    -0.136728224423E+04   -0.25399E-05   -0.41124E-05  2336   0.103E-02    0.688E-03
DAV:   4    -0.136728224277E+04    0.14613E-05   -0.35070E-06  1240   0.537E-03    0.397E-03
DAV:   5    -0.136728224248E+04    0.28979E-06   -0.67358E-06  1512   0.538E-03
  82 F= -.13672822E+04 E0= -.13672822E+04  d E =-.768704E-04
       N       E                     dE             d eps       ncg     rms          rms(c)
DAV:   1    -0.136728225767E+04   -0.14902E-04   -0.29615E-03  1440   0.799E-02    0.113E-02
DAV:   2    -0.136728227503E+04   -0.17354E-04   -0.19717E-04  2384   0.362E-02    0.556E-03
DAV:   3    -0.136728227613E+04   -0.10977E-05   -0.15307E-05  2032   0.806E-03    0.459E-03
DAV:   4    -0.136728227588E+04    0.24095E-06   -0.13752E-06  1040   0.448E-03
  83 F= -.13672823E+04 E0= -.13672823E+04  d E =-.334029E-04
       N       E                     dE             d eps       ncg     rms          rms(c)
DAV:   1    -0.136728227560E+04    0.52429E-06   -0.23071E-02  1376   0.214E-01    0.227E-02
DAV:   2    -0.136728238450E+04   -0.10890E-03   -0.11433E-03  2296   0.819E-02    0.118E-02
DAV:   3    -0.136728239164E+04   -0.71365E-05   -0.92541E-05  2520   0.155E-02    0.917E-03
DAV:   4    -0.136728239056E+04    0.10792E-05   -0.56141E-06  1448   0.680E-03    0.716E-03
DAV:   5    -0.136728238923E+04    0.13290E-05   -0.11532E-05  1776   0.691E-03    0.215E-03
DAV:   6    -0.136728238937E+04   -0.14393E-06   -0.16391E-06  1008   0.466E-03
  84 F= -.13672824E+04 E0= -.13672824E+04  d E =-.113487E-03
       N       E                     dE             d eps       ncg     rms          rms(c)
DAV:   1    -0.136728239466E+04   -0.54307E-05   -0.20853E-02  1392   0.203E-01    0.228E-02
DAV:   2    -0.136728249795E+04   -0.10329E-03   -0.10828E-03  2288   0.784E-02    0.108E-02
DAV:   3    -0.136728250512E+04   -0.71722E-05   -0.89537E-05  2512   0.151E-02    0.895E-03
DAV:   4    -0.136728250454E+04    0.57847E-06   -0.50279E-06  1392   0.655E-03
  85 F= -.13672825E+04 E0= -.13672825E+04  d E =-.115170E-03
       N       E                     dE             d eps       ncg     rms          rms(c)
DAV:   1    -0.136728251516E+04   -0.10038E-04   -0.18550E-02  1384   0.190E-01    0.201E-02
DAV:   2    -0.136728259691E+04   -0.81750E-04   -0.86337E-04  2296   0.721E-02    0.111E-02
DAV:   3    -0.136728260199E+04   -0.50861E-05   -0.70658E-05  2488   0.134E-02    0.835E-03
DAV:   4    -0.136728260058E+04    0.14107E-05   -0.50566E-06  1400   0.640E-03    0.566E-03
DAV:   5    -0.136728259994E+04    0.64757E-06   -0.83538E-06  1696   0.588E-03
  86 F= -.13672826E+04 E0= -.13672826E+04  d E =-.953947E-04
       N       E                     dE             d eps       ncg     rms          rms(c)
DAV:   1    -0.136728261225E+04   -0.11668E-04   -0.17388E-02  1416   0.187E-01    0.209E-02
DAV:   2    -0.136728270040E+04   -0.88148E-04   -0.93437E-04  2296   0.748E-02    0.101E-02
DAV:   3    -0.136728270705E+04   -0.66463E-05   -0.80449E-05  2504   0.142E-02    0.837E-03
DAV:   4    -0.136728270648E+04    0.56956E-06   -0.48268E-06  1392   0.659E-03
  87 F= -.13672827E+04 E0= -.13672827E+04  d E =-.106541E-03
       N       E                     dE             d eps       ncg     rms          rms(c)
DAV:   1    -0.136728254352E+04    0.16353E-03   -0.69411E-02  1384   0.370E-01    0.395E-02
DAV:   2    -0.136728286970E+04   -0.32618E-03   -0.34338E-03  2288   0.142E-01    0.205E-02
DAV:   3    -0.136728289104E+04   -0.21343E-04   -0.27989E-04  2568   0.269E-02    0.159E-02
DAV:   4    -0.136728288810E+04    0.29401E-05   -0.23456E-05  2240   0.116E-02    0.118E-02
DAV:   5    -0.136728288438E+04    0.37163E-05   -0.14632E-05  2016   0.834E-03    0.396E-03
DAV:   6    -0.136728288498E+04   -0.59458E-06   -0.82654E-06  1736   0.568E-03
  88 F= -.13672829E+04 E0= -.13672829E+04  d E =-.178500E-03
       N       E                     dE             d eps       ncg     rms          rms(c)
DAV:   1    -0.136728285062E+04    0.33762E-04   -0.30268E-02  1384   0.246E-01    0.281E-02
DAV:   2    -0.136728300096E+04   -0.15034E-03   -0.15893E-03  2304   0.955E-02    0.131E-02
DAV:   3    -0.136728301115E+04   -0.10189E-04   -0.12753E-04  2536   0.185E-02    0.107E-02
DAV:   4    -0.136728301018E+04    0.97143E-06   -0.97594E-06  1752   0.803E-03
  89 F= -.13672830E+04 E0= -.13672830E+04  d E =-.125203E-03
       N       E                     dE             d eps       ncg     rms          rms(c)
DAV:   1    -0.136728289246E+04    0.11870E-03   -0.51841E-02  1384   0.318E-01    0.341E-02
DAV:   2    -0.136728313371E+04   -0.24125E-03   -0.25470E-03  2304   0.122E-01    0.183E-02
DAV:   3    -0.136728314855E+04   -0.14844E-04   -0.20511E-04  2576   0.229E-02    0.140E-02
DAV:   4    -0.136728314542E+04    0.31360E-05   -0.18521E-05  2152   0.103E-02    0.960E-03
DAV:   5    -0.136728314306E+04    0.23607E-05   -0.11648E-05  2000   0.736E-03    0.308E-03
DAV:   6    -0.136728314326E+04   -0.20841E-06   -0.25611E-06  1096   0.463E-03
  90 F= -.13672831E+04 E0= -.13672831E+04  d E =-.133084E-03
       N       E                     dE             d eps       ncg     rms          rms(c)
DAV:   1    -0.136728314913E+04   -0.60731E-05   -0.79666E-04  1568   0.413E-02    0.590E-03
DAV:   2    -0.136728315324E+04   -0.41066E-05   -0.44440E-05  2248   0.172E-02    0.284E-03
DAV:   3    -0.136728315328E+04   -0.46522E-07   -0.16070E-06  1048   0.369E-03
  91 F= -.13672832E+04 E0= -.13672832E+04  d E =-.100178E-04
       N       E                     dE             d eps       ncg     rms          rms(c)
DAV:   1    -0.136728312297E+04    0.30263E-04   -0.21727E-02  1400   0.209E-01    0.230E-02
DAV:   2    -0.136728323157E+04   -0.10860E-03   -0.11450E-03  2288   0.821E-02    0.115E-02
DAV:   3    -0.136728323903E+04   -0.74578E-05   -0.95772E-05  2512   0.156E-02    0.920E-03
DAV:   4    -0.136728323808E+04    0.94294E-06   -0.61068E-06  1512   0.692E-03
  92 F= -.13672832E+04 E0= -.13672832E+04  d E =-.848013E-04
       N       E                     dE             d eps       ncg     rms          rms(c)
DAV:   1    -0.136728312605E+04    0.11298E-03   -0.44317E-02  1376   0.295E-01    0.318E-02
DAV:   2    -0.136728333310E+04   -0.20705E-03   -0.21859E-03  2304   0.114E-01    0.166E-02
DAV:   3    -0.136728334611E+04   -0.13010E-04   -0.17694E-04  2568   0.212E-02    0.128E-02
DAV:   4    -0.136728334363E+04    0.24803E-05   -0.15092E-05  2040   0.944E-03    0.899E-03
DAV:   5    -0.136728334139E+04    0.22394E-05   -0.10199E-05  1872   0.706E-03    0.278E-03
DAV:   6    -0.136728334158E+04   -0.18805E-06   -0.24269E-06  1064   0.487E-03
  93 F= -.13672833E+04 E0= -.13672833E+04  d E =-.103493E-03
