<?xml version="1.0" encoding="ISO-8859-1"?>
<modeling>
 <generator>
  <i name="program" type="string">vasp </i>
  <i name="version" type="string">5.4.4.18Apr17-6-g9f103f2a35  </i>
  <i name="subversion" type="string">(build May 01 2020 14:22:42) gamma-only         parallel </i>
  <i name="platform" type="string">LinuxIFC </i>
  <i name="date" type="string">2022 02 23 </i>
  <i name="time" type="string">08:33:29 </i>
 </generator>
 <incar>
  <i type="string" name="PREC">accurate</i>
  <i type="int" name="IBRION">     1</i>
  <i name="EDIFF">      0.00000100</i>
  <i name="EDIFFG">     -0.01000000</i>
  <i type="int" name="NSW">   300</i>
  <i type="int" name="ISIF">     2</i>
  <i type="int" name="ISYM">     0</i>
  <i name="ENCUT">    500.00000000</i>
  <i type="string" name="LREAL"> Auto</i>
  <i type="int" name="ISMEAR">     0</i>
  <i name="SIGMA">      0.20000000</i>
  <i type="logical" name="LWAVE"> F  </i>
  <i type="logical" name="LCHARG"> F  </i>
  <v type="int" name="KPOINT_BSE">    -1     0     0     0</v>
 </incar>
 <structure name="primitive_cell" >
  <crystal>
   <varray name="basis" >
    <v>      12.96520042       0.00000000       0.00000000 </v>
    <v>       0.00000000      12.96500015       0.00000000 </v>
    <v>       0.00000000       0.00000000      12.96500015 </v>
   </varray>
   <i name="volume">   2179.33647298 </i>
   <varray name="rec_basis" >
    <v>       0.07712954       0.00000000       0.00000000 </v>
    <v>       0.00000000       0.07713074       0.00000000 </v>
    <v>       0.00000000       0.00000000       0.07713074 </v>
   </varray>
  </crystal>
  <varray name="positions" >
   <v>       0.09692844       0.19983115       0.27846787 </v>
   <v>       0.10769642       0.18340682       0.42102492 </v>
   <v>       0.25061593       0.24633912       0.25154912 </v>
   <v>       0.07457785       0.36600364       0.31704987 </v>
   <v>      -0.06497123       0.11943882       0.31489868 </v>
   <v>      -0.00149060       0.24917873       0.12120786 </v>
   <v>       0.12537381      -0.00572731       0.24712175 </v>
   <v>       0.20191857       0.28144880       0.10138362 </v>
   <v>       0.28663347       0.09521616       0.20918392 </v>
   <v>      -0.10260910       0.31121192       0.27860361 </v>
   <v>      -0.06624790       0.28766037       0.41296541 </v>
   <v>      -0.03628016       0.05648912       0.14970380 </v>
   <v>       0.21724389       0.40087001       0.29861437 </v>
   <v>       0.29759009       0.21886060       0.40526277 </v>
   <v>      -0.04585896       0.15226948       0.46703706 </v>
   <v>       0.15147792       0.03297413       0.44635713 </v>
   <v>       0.05528413       0.34906142       0.46629315 </v>
   <v>       0.31906318       0.08084142       0.37315798 </v>
   <v>       0.18268245       0.42425126       0.14512619 </v>
   <v>       0.03263850       0.44257703       0.14781741 </v>
   <v>      -0.03501443      -0.05193991       0.35538559 </v>
   <v>       0.23598278       0.11458257      -0.46168186 </v>
   <v>       0.05706973       0.14498367      -0.02686537 </v>
   <v>       0.00038077       0.00539848      -0.49585365 </v>
   <v>      -0.10971348      -0.03701961       0.22808825 </v>
   <v>       0.15134811      -0.02822535       0.06195521 </v>
   <v>       0.25484872       0.36974171      -0.49621458 </v>
   <v>      -0.21202987       0.09889298       0.30203952 </v>
   <v>       0.24815553       0.12168211      -0.00055405 </v>
   <v>       0.40427087       0.29683894       0.21614282 </v>
   <v>      -0.19181563       0.22830399       0.10123936 </v>
   <v>       0.18696558       0.22720896      -0.39276342 </v>
   <v>      -0.25065912       0.24658773       0.25457388 </v>
   <v>       0.27408704      -0.10373902       0.30982156 </v>
   <v>       0.20721005       0.35169943      -0.02087455 </v>
   <v>       0.00306565      -0.00297014       0.00236888 </v>
   <v>       0.43359360       0.14394478       0.17615459 </v>
   <v>       0.08935150      -0.44351766       0.21709612 </v>
   <v>      -0.19410750       0.08513130       0.09513580 </v>
   <v>       0.03064248      -0.44828341       0.35081827 </v>
   <v>       0.37776160       0.31565632       0.06794650 </v>
   <v>       0.00312788       0.24933800      -0.36517323 </v>
   <v>      -0.12676128       0.49774531       0.25392487 </v>
   <v>      -0.05717671       0.34869263      -0.03334227 </v>
   <v>       0.00278637       0.49424570      -0.49868509 </v>
   <v>       0.39490645      -0.03795908       0.27330272 </v>
   <v>       0.17254382      -0.43943355       0.38459133 </v>
   <v>       0.32270665      -0.07125968       0.10924743 </v>
   <v>       0.09388741      -0.19630807       0.22576932 </v>
   <v>       0.46730682       0.05720156       0.35335302 </v>
   <v>      -0.14719984       0.47613555       0.44675000 </v>
   <v>      -0.18479457      -0.06752620       0.39978572 </v>
   <v>       0.37108870      -0.49798229       0.25474706 </v>
   <v>       0.02176738       0.24098147      -0.12279041 </v>
   <v>       0.02807064       0.05115417      -0.34313906 </v>
   <v>       0.35717089       0.03763045      -0.44364961 </v>
   <v>       0.25822564      -0.12014068       0.49713279 </v>
   <v>      -0.25092009       0.12976784      -0.49683349 </v>
   <v>       0.00247883       0.49928496      -0.00197926 </v>
   <v>      -0.49531873       0.24828668       0.37483656 </v>
   <v>      -0.14637280       0.18262264      -0.06755293 </v>
   <v>       0.43660666       0.14810049       0.03023248 </v>
   <v>       0.22087223      -0.40266220       0.19085091 </v>
   <v>      -0.30524071       0.27514747       0.40314759 </v>
   <v>       0.15588386      -0.47096797      -0.45319895 </v>
   <v>       0.35010644       0.46616812       0.05020342 </v>
   <v>      -0.15060573      -0.02907218      -0.44906835 </v>
   <v>       0.15239885       0.47644488      -0.05769608 </v>
   <v>       0.31071380       0.28771730      -0.09655173 </v>
   <v>      -0.24748951       0.37608030       0.49125793 </v>
   <v>       0.35258648      -0.47936773       0.44242708 </v>
   <v>      -0.19158386       0.29122424      -0.39637624 </v>
   <v>      -0.15397498       0.03653827      -0.05024197 </v>
   <v>       0.42212026       0.17936646      -0.41806152 </v>
   <v>       0.05137559      -0.15209312      -0.45252355 </v>
   <v>      -0.29835411       0.40141153       0.19878665 </v>
   <v>      -0.22607964      -0.10781916       0.19411610 </v>
   <v>       0.22270659      -0.12451084      -0.01958963 </v>
   <v>       0.45280391       0.34645963      -0.46819646 </v>
   <v>      -0.06242309      -0.15090771       0.02472863 </v>
   <v>      -0.02721726       0.44777365      -0.34735544 </v>
   <v>       0.46803323      -0.05646770       0.15315577 </v>
   <v>      -0.00201593      -0.25014955       0.36643714 </v>
   <v>       0.24416951      -0.25058753       0.24890123 </v>
   <v>      -0.15722836      -0.46928229       0.04801104 </v>
   <v>       0.35162538      -0.04254084      -0.04375059 </v>
   <v>      -0.45301932       0.30108612       0.15304368 </v>
   <v>      -0.25745260       0.36741840       0.00396521 </v>
   <v>      -0.00951782      -0.25211937       0.12614223 </v>
   <v>       0.23303987       0.10477241      -0.18394562 </v>
   <v>       0.30463107      -0.21556688       0.10208552 </v>
   <v>       0.08448009      -0.08507149      -0.31338671 </v>
   <v>      -0.39934281       0.18931117       0.22605985 </v>
   <v>       0.24998586       0.25097828      -0.24498753 </v>
   <v>       0.29231861       0.40003727      -0.30220318 </v>
   <v>       0.33060939       0.42923412      -0.10652563 </v>
   <v>      -0.49439500      -0.00046563      -0.49952431 </v>
   <v>       0.02775441      -0.05952369      -0.15123708 </v>
   <v>       0.10172565       0.31393591      -0.21734105 </v>
   <v>      -0.46387437       0.44844894       0.34627184 </v>
   <v>      -0.37269042       0.00071198       0.25032960 </v>
   <v>       0.18812123      -0.28829169       0.40254032 </v>
   <v>       0.05119839      -0.35322154       0.03090929 </v>
   <v>      -0.07741527       0.37888889      -0.17455705 </v>
   <v>       0.11620006       0.03918593      -0.21626301 </v>
   <v>      -0.17436468       0.43493484      -0.33959206 </v>
   <v>      -0.34645172       0.02339464       0.05978202 </v>
   <v>      -0.34415141      -0.03010251       0.44759426 </v>
   <v>       0.22503285      -0.09608265      -0.30658557 </v>
   <v>      -0.49858583       0.00128286       0.00506827 </v>
   <v>      -0.44213731       0.15100966      -0.47014716 </v>
   <v>      -0.10074558       0.20536215      -0.21077389 </v>
   <v>      -0.10511271      -0.31418780       0.22995191 </v>
   <v>       0.24552018      -0.37073874       0.00660537 </v>
   <v>      -0.20122739      -0.21942290       0.40439416 </v>
   <v>       0.44477643      -0.14912596       0.47575418 </v>
   <v>       0.30720703      -0.34757872       0.46194339 </v>
   <v>      -0.17595739      -0.16925278      -0.45063060 </v>
   <v>       0.39900855       0.19940137      -0.27935991 </v>
   <v>       0.43810390       0.33696752      -0.32405996 </v>
   <v>      -0.44828584       0.35434711       0.02270115 </v>
   <v>      -0.04957442      -0.34710659      -0.45535740 </v>
   <v>      -0.30927392       0.08558398      -0.06803662 </v>
   <v>      -0.24741163      -0.12460973       0.00421000 </v>
   <v>      -0.28894615      -0.40863410       0.30243333 </v>
   <v>      -0.30034192       0.22177748      -0.10173634 </v>
   <v>       0.15924892      -0.32906775      -0.44158125 </v>
   <v>      -0.49704749      -0.49838924       0.49998952 </v>
   <v>       0.31509964      -0.42265871      -0.36948847 </v>
   <v>      -0.27181583       0.10301668      -0.30982477 </v>
   <v>       0.13126074       0.49468355      -0.24512914 </v>
   <v>      -0.37797046      -0.49983297       0.25281037 </v>
   <v>      -0.12613685       0.00665297      -0.24152786 </v>
   <v>      -0.25134252      -0.25197482       0.25222587 </v>
   <v>      -0.49713683       0.24332856      -0.12149310 </v>
   <v>      -0.02905149      -0.44825069      -0.15436171 </v>
   <v>       0.39245000      -0.30983875       0.28194068 </v>
   <v>      -0.46616866      -0.44987986       0.15899687 </v>
   <v>       0.49808958      -0.49638264       0.00467559 </v>
   <v>      -0.00374134      -0.24896295      -0.37363886 </v>
   <v>       0.37184153       0.00372196      -0.24956423 </v>
   <v>       0.18795905      -0.23309434      -0.10479885 </v>
   <v>      -0.41043109       0.29919152      -0.41977375 </v>
   <v>      -0.25365718       0.25247386      -0.25211545 </v>
   <v>      -0.25588698      -0.38470707      -0.49927032 </v>
   <v>      -0.35082156       0.46512524      -0.43910037 </v>
   <v>      -0.07206329      -0.41959519      -0.29900805 </v>
   <v>      -0.31426289      -0.07174334      -0.38109176 </v>
   <v>       0.40681482      -0.18329188      -0.06875921 </v>
   <v>       0.00239714      -0.24947457      -0.11228785 </v>
   <v>      -0.34841221      -0.17637135       0.43853597 </v>
   <v>      -0.22034331       0.40536646      -0.19373637 </v>
   <v>      -0.24981374      -0.37694496       0.00997178 </v>
   <v>       0.49118839      -0.25538798       0.37677107 </v>
   <v>       0.29693983      -0.28268354      -0.40409455 </v>
   <v>       0.49500172      -0.24696254       0.14107345 </v>
   <v>       0.46953046       0.45569965      -0.14681569 </v>
   <v>      -0.10055381      -0.20220659      -0.29148337 </v>
   <v>      -0.17350838      -0.45112131      -0.16075749 </v>
   <v>      -0.46362451       0.05375773      -0.14313620 </v>
   <v>       0.38449120       0.49752678      -0.25084030 </v>
   <v>       0.46457883      -0.44255898      -0.35284861 </v>
   <v>      -0.46099222      -0.05710001      -0.34649850 </v>
   <v>      -0.39925128      -0.19659855       0.28879884 </v>
   <v>       0.44448998      -0.34446028      -0.02574596 </v>
   <v>      -0.34911827      -0.45284514      -0.04808542 </v>
   <v>      -0.44665442      -0.15210763      -0.03167171 </v>
   <v>      -0.21802369      -0.40606364      -0.30076843 </v>
   <v>       0.09481557      -0.30025021      -0.29530878 </v>
   <v>      -0.30421082      -0.28827398       0.09760832 </v>
   <v>       0.28949813      -0.39820465      -0.20967874 </v>
   <v>      -0.30353260      -0.21985560      -0.39946578 </v>
   <v>       0.25079865      -0.24249098      -0.24934624 </v>
   <v>      -0.43959734      -0.34981398       0.47612286 </v>
   <v>      -0.27591347      -0.10611242      -0.19654724 </v>
   <v>      -0.40350134       0.31242014      -0.27562322 </v>
   <v>      -0.39264451       0.04489350      -0.26584278 </v>
   <v>      -0.20360950      -0.29939668      -0.09581594 </v>
   <v>       0.49893056      -0.24834208      -0.37821073 </v>
   <v>       0.39875876      -0.19657856      -0.21692565 </v>
   <v>       0.43086581      -0.34370298      -0.17347221 </v>
   <v>      -0.38043852       0.49791102      -0.25054003 </v>
   <v>      -0.42753111      -0.12506001      -0.17882617 </v>
   <v>      -0.25619061      -0.25511424      -0.25026594 </v>
   <v>      -0.42301077      -0.29419953      -0.07500700 </v>
   <v>      -0.40445017      -0.30172609      -0.21990820 </v>
  </varray>
 </structure>
 <varray name="primitive_index" >
  <v type="int" >        1 </v>
  <v type="int" >      146 </v>
  <v type="int" >      128 </v>
  <v type="int" >      156 </v>
  <v type="int" >      155 </v>
  <v type="int" >      113 </v>
  <v type="int" >       97 </v>
  <v type="int" >       17 </v>
  <v type="int" >        9 </v>
  <v type="int" >       51 </v>
  <v type="int" >      183 </v>
  <v type="int" >       95 </v>
  <v type="int" >       58 </v>
  <v type="int" >       66 </v>
  <v type="int" >       32 </v>
  <v type="int" >       35 </v>
  <v type="int" >       78 </v>
  <v type="int" >      153 </v>
  <v type="int" >      142 </v>
  <v type="int" >       41 </v>
  <v type="int" >       45 </v>
  <v type="int" >      171 </v>
  <v type="int" >       75 </v>
  <v type="int" >      136 </v>
  <v type="int" >      175 </v>
  <v type="int" >       85 </v>
  <v type="int" >      112 </v>
  <v type="int" >       14 </v>
  <v type="int" >      105 </v>
  <v type="int" >       50 </v>
  <v type="int" >       71 </v>
  <v type="int" >       20 </v>
  <v type="int" >      125 </v>
  <v type="int" >       59 </v>
  <v type="int" >      181 </v>
  <v type="int" >      121 </v>
  <v type="int" >      140 </v>
  <v type="int" >      169 </v>
  <v type="int" >      145 </v>
  <v type="int" >       91 </v>
  <v type="int" >      162 </v>
  <v type="int" >      116 </v>
  <v type="int" >      101 </v>
  <v type="int" >       25 </v>
  <v type="int" >      123 </v>
  <v type="int" >      176 </v>
  <v type="int" >      149 </v>
  <v type="int" >      154 </v>
  <v type="int" >       55 </v>
  <v type="int" >       90 </v>
  <v type="int" >       87 </v>
  <v type="int" >      163 </v>
  <v type="int" >      104 </v>
  <v type="int" >      182 </v>
  <v type="int" >       46 </v>
  <v type="int" >       81 </v>
  <v type="int" >      109 </v>
  <v type="int" >      110 </v>
  <v type="int" >      134 </v>
  <v type="int" >      120 </v>
  <v type="int" >      139 </v>
  <v type="int" >       29 </v>
  <v type="int" >       12 </v>
  <v type="int" >       24 </v>
  <v type="int" >       88 </v>
  <v type="int" >       84 </v>
  <v type="int" >       36 </v>
  <v type="int" >       34 </v>
  <v type="int" >       67 </v>
  <v type="int" >      174 </v>
  <v type="int" >       38 </v>
  <v type="int" >       70 </v>
  <v type="int" >       86 </v>
  <v type="int" >      143 </v>
  <v type="int" >       31 </v>
  <v type="int" >       61 </v>
  <v type="int" >       64 </v>
  <v type="int" >      178 </v>
  <v type="int" >       28 </v>
  <v type="int" >       76 </v>
  <v type="int" >       92 </v>
  <v type="int" >       44 </v>
  <v type="int" >      115 </v>
  <v type="int" >      131 </v>
  <v type="int" >       33 </v>
  <v type="int" >       39 </v>
  <v type="int" >      150 </v>
  <v type="int" >      107 </v>
  <v type="int" >      148 </v>
  <v type="int" >       63 </v>
  <v type="int" >       22 </v>
  <v type="int" >      167 </v>
  <v type="int" >        4 </v>
  <v type="int" >      129 </v>
  <v type="int" >       16 </v>
  <v type="int" >      151 </v>
  <v type="int" >      122 </v>
  <v type="int" >       96 </v>
  <v type="int" >        6 </v>
  <v type="int" >       48 </v>
  <v type="int" >      100 </v>
  <v type="int" >       69 </v>
  <v type="int" >       26 </v>
  <v type="int" >      138 </v>
  <v type="int" >      180 </v>
  <v type="int" >      173 </v>
  <v type="int" >       40 </v>
  <v type="int" >       82 </v>
  <v type="int" >       13 </v>
  <v type="int" >      135 </v>
  <v type="int" >       74 </v>
  <v type="int" >       56 </v>
  <v type="int" >        5 </v>
  <v type="int" >      108 </v>
  <v type="int" >       19 </v>
  <v type="int" >       73 </v>
  <v type="int" >      170 </v>
  <v type="int" >      137 </v>
  <v type="int" >       53 </v>
  <v type="int" >      164 </v>
  <v type="int" >       79 </v>
  <v type="int" >       77 </v>
  <v type="int" >      166 </v>
  <v type="int" >      106 </v>
  <v type="int" >       15 </v>
  <v type="int" >       21 </v>
  <v type="int" >      159 </v>
  <v type="int" >      133 </v>
  <v type="int" >      160 </v>
  <v type="int" >       60 </v>
  <v type="int" >      102 </v>
  <v type="int" >      184 </v>
  <v type="int" >       98 </v>
  <v type="int" >      130 </v>
  <v type="int" >      117 </v>
  <v type="int" >       42 </v>
  <v type="int" >        8 </v>
  <v type="int" >       94 </v>
  <v type="int" >      124 </v>
  <v type="int" >      185 </v>
  <v type="int" >       99 </v>
  <v type="int" >       72 </v>
  <v type="int" >      161 </v>
  <v type="int" >      132 </v>
  <v type="int" >      111 </v>
  <v type="int" >       37 </v>
  <v type="int" >      147 </v>
  <v type="int" >      144 </v>
  <v type="int" >      165 </v>
  <v type="int" >      114 </v>
  <v type="int" >      179 </v>
  <v type="int" >       11 </v>
  <v type="int" >      186 </v>
  <v type="int" >      152 </v>
  <v type="int" >       23 </v>
  <v type="int" >      118 </v>
  <v type="int" >       93 </v>
  <v type="int" >        2 </v>
  <v type="int" >      168 </v>
  <v type="int" >       43 </v>
  <v type="int" >      177 </v>
  <v type="int" >       47 </v>
  <v type="int" >       89 </v>
  <v type="int" >       54 </v>
  <v type="int" >       80 </v>
  <v type="int" >       83 </v>
  <v type="int" >       30 </v>
  <v type="int" >       57 </v>
  <v type="int" >       52 </v>
  <v type="int" >       68 </v>
  <v type="int" >       62 </v>
  <v type="int" >       65 </v>
  <v type="int" >      126 </v>
  <v type="int" >       27 </v>
  <v type="int" >       10 </v>
  <v type="int" >        7 </v>
  <v type="int" >      172 </v>
  <v type="int" >       18 </v>
  <v type="int" >      119 </v>
  <v type="int" >        3 </v>
  <v type="int" >      141 </v>
  <v type="int" >      103 </v>
  <v type="int" >      157 </v>
  <v type="int" >      127 </v>
  <v type="int" >      158 </v>
  <v type="int" >       49 </v>
 </varray>
 <kpoints>
  <generation param="Gamma">
   <v type="int" name="divisions">       1        1        1 </v>
   <v name="usershift">      0.00000000       0.00000000       0.00000000 </v>
   <v name="genvec1">      1.00000000       0.00000000       0.00000000 </v>
   <v name="genvec2">      0.00000000       1.00000000       0.00000000 </v>
   <v name="genvec3">      0.00000000       0.00000000       1.00000000 </v>
   <v name="shift">      0.00000000       0.00000000       0.00000000 </v>
  </generation>
  <varray name="kpointlist" >
   <v>       0.00000000       0.00000000       0.00000000 </v>
  </varray>
  <varray name="weights" >
   <v>       1.00000000 </v>
  </varray>
 </kpoints>
 <parameters>
  <separator name="general" >
   <i type="string" name="SYSTEM">unknown system</i>
   <i type="logical" name="LCOMPAT"> F  </i>
  </separator>
  <separator name="electronic" >
   <i type="string" name="PREC">accura</i>
   <i name="ENMAX">    500.00000000</i>
   <i name="ENAUG">    605.39200000</i>
   <i name="EDIFF">      0.00000100</i>
   <i type="int" name="IALGO">    38</i>
   <i type="int" name="IWAVPR">    11</i>
   <i type="int" name="NBANDS">   656</i>
   <i name="NELECT">   1088.00000000</i>
   <i type="int" name="TURBO">     0</i>
   <i type="int" name="IRESTART">     0</i>
   <i type="int" name="NREBOOT">     0</i>
   <i type="int" name="NMIN">     0</i>
   <i name="EREF">      0.00000000</i>
   <separator name="electronic smearing" >
    <i type="int" name="ISMEAR">     0</i>
    <i name="SIGMA">      0.20000000</i>
    <i name="KSPACING">      0.50000000</i>
    <i type="logical" name="KGAMMA"> T  </i>
   </separator>
   <separator name="electronic projectors" >
    <i type="logical" name="LREAL"> T  </i>
    <v name="ROPT">     -0.00025000     -0.00025000     -0.00025000     -0.00025000     -0.00025000</v>
    <i type="int" name="LMAXPAW">  -100</i>
    <i type="int" name="LMAXMIX">     2</i>
    <i type="logical" name="NLSPLINE"> F  </i>
   </separator>
   <separator name="electronic startup" >
    <i type="int" name="ISTART">     0</i>
    <i type="int" name="ICHARG">     2</i>
    <i type="int" name="INIWAV">     1</i>
   </separator>
   <separator name="electronic spin" >
    <i type="int" name="ISPIN">     1</i>
    <i type="logical" name="LNONCOLLINEAR"> F  </i>
    <v name="MAGMOM">      1.00000000      1.00000000      1.00000000      1.00000000      1.00000000      1.00000000      1.00000000      1.00000000      1.00000000      1.00000000      1.00000000      1.00000000      1.00000000      1.00000000      1.00000000      1.00000000      1.00000000      1.00000000      1.00000000      1.00000000
      1.00000000      1.00000000      1.00000000      1.00000000      1.00000000      1.00000000      1.00000000      1.00000000      1.00000000      1.00000000      1.00000000      1.00000000      1.00000000      1.00000000      1.00000000      1.00000000      1.00000000      1.00000000      1.00000000      1.00000000
      1.00000000      1.00000000      1.00000000      1.00000000      1.00000000      1.00000000      1.00000000      1.00000000      1.00000000      1.00000000      1.00000000      1.00000000      1.00000000      1.00000000      1.00000000      1.00000000      1.00000000      1.00000000      1.00000000      1.00000000
      1.00000000      1.00000000      1.00000000      1.00000000      1.00000000      1.00000000      1.00000000      1.00000000      1.00000000      1.00000000      1.00000000      1.00000000      1.00000000      1.00000000      1.00000000      1.00000000      1.00000000      1.00000000      1.00000000      1.00000000
      1.00000000      1.00000000      1.00000000      1.00000000      1.00000000      1.00000000      1.00000000      1.00000000      1.00000000      1.00000000      1.00000000      1.00000000      1.00000000      1.00000000      1.00000000      1.00000000      1.00000000      1.00000000      1.00000000      1.00000000
      1.00000000      1.00000000      1.00000000      1.00000000      1.00000000      1.00000000      1.00000000      1.00000000      1.00000000      1.00000000      1.00000000      1.00000000      1.00000000      1.00000000      1.00000000      1.00000000      1.00000000      1.00000000      1.00000000      1.00000000
      1.00000000      1.00000000      1.00000000      1.00000000      1.00000000      1.00000000      1.00000000      1.00000000      1.00000000      1.00000000      1.00000000      1.00000000      1.00000000      1.00000000      1.00000000      1.00000000      1.00000000      1.00000000      1.00000000      1.00000000
      1.00000000      1.00000000      1.00000000      1.00000000      1.00000000      1.00000000      1.00000000      1.00000000      1.00000000      1.00000000      1.00000000      1.00000000      1.00000000      1.00000000      1.00000000      1.00000000      1.00000000      1.00000000      1.00000000      1.00000000
      1.00000000      1.00000000      1.00000000      1.00000000      1.00000000      1.00000000      1.00000000      1.00000000      1.00000000      1.00000000      1.00000000      1.00000000      1.00000000      1.00000000      1.00000000      1.00000000      1.00000000      1.00000000      1.00000000      1.00000000
      1.00000000      1.00000000      1.00000000      1.00000000      1.00000000      1.00000000</v>
    <i name="NUPDOWN">     -1.00000000</i>
    <i type="logical" name="LSORBIT"> F  </i>
    <v name="SAXIS">      0.00000000      0.00000000      1.00000000</v>
    <i type="logical" name="LSPIRAL"> F  </i>
    <v name="QSPIRAL">      0.00000000      0.00000000      0.00000000</v>
    <i type="logical" name="LZEROZ"> F  </i>
   </separator>
   <separator name="electronic exchange-correlation" >
    <i type="logical" name="LASPH"> F  </i>
    <i type="logical" name="LMETAGGA"> F  </i>
   </separator>
   <separator name="electronic convergence" >
    <i type="int" name="NELM">    60</i>
    <i type="int" name="NELMDL">     0</i>
    <i type="int" name="NELMIN">     2</i>
    <i name="ENINI">    500.00000000</i>
    <separator name="electronic convergence detail" >
     <i type="logical" name="LDIAG"> T  </i>
     <i type="logical" name="LSUBROT"> F  </i>
     <i name="WEIMIN">      0.00100000</i>
     <i name="EBREAK">      0.00000000</i>
     <i name="DEPER">      0.30000000</i>
     <i type="int" name="NRMM">     4</i>
     <i name="TIME">      0.40000000</i>
    </separator>
   </separator>
   <separator name="electronic mixer" >
    <i name="AMIX">      0.40000000</i>
    <i name="BMIX">      1.00000000</i>
    <i name="AMIN">      0.10000000</i>
    <i name="AMIX_MAG">      1.60000000</i>
    <i name="BMIX_MAG">      1.00000000</i>
    <separator name="electronic mixer details" >
     <i type="int" name="IMIX">     4</i>
     <i type="logical" name="MIXFIRST"> F  </i>
     <i type="int" name="MAXMIX">   -45</i>
     <i name="WC">    100.00000000</i>
     <i type="int" name="INIMIX">     1</i>
     <i type="int" name="MIXPRE">     1</i>
     <i type="int" name="MREMOVE">     5</i>
    </separator>
   </separator>
   <separator name="electronic dipolcorrection" >
    <i type="logical" name="LDIPOL"> F  </i>
    <i type="logical" name="LMONO"> F  </i>
    <i type="int" name="IDIPOL">     0</i>
    <i name="EPSILON">      1.00000000</i>
    <v name="DIPOL">   -100.00000000   -100.00000000   -100.00000000</v>
    <i name="EFIELD">      0.00000000</i>
   </separator>
  </separator>
  <separator name="grids" >
   <i type="int" name="NGX">    96</i>
   <i type="int" name="NGY">    96</i>
   <i type="int" name="NGZ">    96</i>
   <i type="int" name="NGXF">   192</i>
   <i type="int" name="NGYF">   192</i>
   <i type="int" name="NGZF">   192</i>
   <i type="logical" name="ADDGRID"> F  </i>
  </separator>
  <separator name="ionic" >
   <i type="int" name="NSW">   300</i>
   <i type="int" name="IBRION">     1</i>
   <i type="int" name="MDALGO">     0</i>
   <i type="int" name="ISIF">     2</i>
   <i name="PSTRESS">      0.00000000</i>
   <i name="EDIFFG">     -0.01000000</i>
   <i type="int" name="NFREE">     0</i>
   <i name="POTIM">      0.50000000</i>
   <i name="SMASS">     -3.00000000</i>
   <i name="SCALEE">      1.00000000</i>
  </separator>
  <separator name="ionic md" >
   <i name="TEBEG">      0.00010000</i>
   <i name="TEEND">      0.00010000</i>
   <i type="int" name="NBLOCK">     1</i>
   <i type="int" name="KBLOCK">   300</i>
   <i type="int" name="NPACO">   256</i>
   <i name="APACO">     16.00000000</i>
  </separator>
  <separator name="symmetry" >
   <i type="int" name="ISYM">     0</i>
   <i name="SYMPREC">      0.00001000</i>
  </separator>
  <separator name="dos" >
   <i type="int" name="LORBIT">     0</i>
   <v name="RWIGS">     -1.00000000     -1.00000000     -1.00000000     -1.00000000     -1.00000000</v>
   <i type="int" name="NEDOS">   301</i>
   <i name="EMIN">     10.00000000</i>
   <i name="EMAX">    -10.00000000</i>
   <i name="EFERMI">      0.00000000</i>
  </separator>
  <separator name="writing" >
   <i type="int" name="NWRITE">     2</i>
   <i type="logical" name="LWAVE"> F  </i>
   <i type="logical" name="LDOWNSAMPLE"> F  </i>
   <i type="logical" name="LCHARG"> F  </i>
   <i type="logical" name="LPARD"> F  </i>
   <i type="logical" name="LVTOT"> F  </i>
   <i type="logical" name="LVHAR"> F  </i>
   <i type="logical" name="LELF"> F  </i>
   <i type="logical" name="LOPTICS"> F  </i>
   <v name="STM">      0.00000000      0.00000000      0.00000000      0.00000000      0.00000000      0.00000000      0.00000000</v>
  </separator>
  <separator name="performance" >
   <i type="int" name="NPAR">     8</i>
   <i type="int" name="NSIM">     4</i>
   <i type="int" name="NBLK">    -1</i>
   <i type="logical" name="LPLANE"> T  </i>
   <i type="logical" name="LSCALAPACK"> T  </i>
   <i type="logical" name="LSCAAWARE"> T  </i>
   <i type="logical" name="LSCALU"> F  </i>
   <i type="logical" name="LASYNC"> F  </i>
   <i type="logical" name="LORBITALREAL"> F  </i>
  </separator>
  <separator name="miscellaneous" >
   <i type="int" name="IDIOT">     3</i>
   <i type="int" name="ISPECIAL">     0</i>
   <i type="logical" name="LMUSIC"> F  </i>
   <v name="POMASS">     16.00000000    138.90000000     91.22400000      7.01000000     26.98100000</v>
   <v name="DARWINR">      0.00000000      0.00000000      0.00000000      0.00000000      0.00000000</v>
   <v name="DARWINV">      1.00000000      1.00000000      1.00000000      1.00000000      1.00000000</v>
   <i type="logical" name="LCORR"> T  </i>
  </separator>
  <i type="logical" name="GGA_COMPAT"> T  </i>
  <i type="logical" name="LBERRY"> F  </i>
  <i type="int" name="ICORELEVEL">     0</i>
  <i type="logical" name="LDAU"> F  </i>
  <i type="int" name="I_CONSTRAINED_M">     0</i>
  <separator name="electronic exchange-correlation" >
   <i type="string" name="GGA">--</i>
   <i type="int" name="VOSKOWN">     0</i>
   <i type="logical" name="LHFCALC"> F  </i>
   <i type="string" name="PRECFOCK"></i>
   <i type="logical" name="LSYMGRAD"> F  </i>
   <i type="logical" name="LHFONE"> F  </i>
   <i type="logical" name="LRHFCALC"> F  </i>
   <i type="logical" name="LTHOMAS"> F  </i>
   <i type="logical" name="LMODELHF"> F  </i>
   <i name="ENCUT4O">     -1.00000000</i>
   <i type="int" name="EXXOEP">     0</i>
   <i type="int" name="FOURORBIT">     0</i>
   <i name="AEXX">      0.00000000</i>
   <i name="HFALPHA">      0.00000000</i>
   <i name="MCALPHA">      0.00000000</i>
   <i name="ALDAX">      1.00000000</i>
   <i name="AGGAX">      1.00000000</i>
   <i name="ALDAC">      1.00000000</i>
   <i name="AGGAC">      1.00000000</i>
   <i type="int" name="NKREDX">     1</i>
   <i type="int" name="NKREDY">     1</i>
   <i type="int" name="NKREDZ">     1</i>
   <i type="logical" name="SHIFTRED"> F  </i>
   <i type="logical" name="ODDONLY"> F  </i>
   <i type="logical" name="EVENONLY"> F  </i>
   <i type="int" name="LMAXFOCK">     0</i>
   <i type="int" name="NMAXFOCKAE">     0</i>
   <i type="logical" name="LFOCKAEDFT"> F  </i>
   <i name="HFSCREEN">      0.00000000</i>
   <i name="HFSCREENC">      0.00000000</i>
   <i type="int" name="NBANDSGWLOW">     0</i>
  </separator>
  <separator name="vdW DFT" >
   <i type="logical" name="LUSE_VDW"> F  </i>
   <i name="Zab_VDW">     -0.84910000</i>
   <i name="PARAM1">      0.12340000</i>
   <i name="PARAM2">      1.00000000</i>
   <i name="PARAM3">      0.00000000</i>
  </separator>
  <separator name="model GW" >
   <i type="int" name="MODEL_GW">     0</i>
   <i name="MODEL_EPS0">      7.03011765</i>
   <i name="MODEL_ALPHA">      1.00000000</i>
  </separator>
  <separator name="linear response parameters" >
   <i type="logical" name="LEPSILON"> F  </i>
   <i type="logical" name="LRPA"> F  </i>
   <i type="logical" name="LNABLA"> F  </i>
   <i type="logical" name="LVEL"> F  </i>
   <i type="int" name="KINTER">     0</i>
   <i name="CSHIFT">      0.10000000</i>
   <i name="OMEGAMAX">     -1.00000000</i>
   <i name="DEG_THRESHOLD">      0.00200000</i>
   <i name="RTIME">     -0.10000000</i>
   <i name="WPLASMAI">      0.00000000</i>
   <v name="DFIELD">      0.00000000      0.00000000      0.00000000</v>
   <v name="WPLASMA">      0.00000000      0.00000000      0.00000000      0.00000000      0.00000000      0.00000000      0.00000000      0.00000000      0.00000000</v>
  </separator>
  <separator name="orbital magnetization" >
   <i type="logical" name="NUCIND"> F  </i>
   <v name="MAGPOS">      0.00000000      0.00000000      0.00000000</v>
   <i type="logical" name="LNICSALL"> T  </i>
   <i type="logical" name="ORBITALMAG"> F  </i>
   <i type="logical" name="LMAGBLOCH"> F  </i>
   <i type="logical" name="LCHIMAG"> F  </i>
   <i type="logical" name="LGAUGE"> T  </i>
   <i type="int" name="MAGATOM">     0</i>
   <v name="MAGDIPOL">      0.00000000      0.00000000      0.00000000</v>
   <v name="AVECCONST">      0.00000000      0.00000000      0.00000000</v>
  </separator>
  <separator name="response functions" >
   <i type="logical" name="LADDER"> F  </i>
   <i type="logical" name="LRPAFORCE"> F  </i>
   <i type="logical" name="LFXC"> F  </i>
   <i type="logical" name="LHARTREE"> T  </i>
   <i type="int" name="IBSE">     0</i>
   <v type="int" name="KPOINT">    -1     0     0     0</v>
   <i type="logical" name="LTCTE"> F  </i>
   <i type="logical" name="LTETE"> F  </i>
   <i type="logical" name="LTRIPLET"> F  </i>
   <i type="logical" name="LFXCEPS"> F  </i>
   <i type="logical" name="LFXHEG"> F  </i>
   <i type="int" name="NATURALO">     2</i>
   <i type="logical" name="L2ORDER"> F  </i>
   <i type="logical" name="LMP2LT"> F  </i>
   <i type="logical" name="LUSEW"> F  </i>
   <i name="ENCUTGW">     -2.00000000</i>
   <i name="ENCUTGWSOFT">     -2.00000000</i>
   <i name="ENCUTLF">     -1.00000000</i>
   <i type="int" name="LMAXMP2">    -1</i>
   <i name="SCISSOR">      0.00000000</i>
   <i type="int" name="NOMEGA">     0</i>
   <i type="int" name="NOMEGAR">     0</i>
   <i type="int" name="NBANDSGW">    -1</i>
   <i type="int" name="NBANDSO">    -1</i>
   <i type="int" name="NBANDSV">    -1</i>
   <i type="int" name="NELM">     1</i>
   <i type="int" name="NELMHF">     1</i>
   <i type="int" name="DIM">     3</i>
   <i type="int" name="ANTIRES">     0</i>
   <i name="OMEGAMAX">    -30.00000000</i>
   <i name="OMEGAMIN">    -30.00000000</i>
   <i name="OMEGATL">   -200.00000000</i>
   <i type="int" name="OMEGAGRID">   140</i>
   <i name="CSHIFT">     -0.10000000</i>
   <i type="logical" name="SELFENERGY"> F  </i>
   <i type="logical" name="LSPECTRAL"> F  </i>
   <i type="logical" name="LSPECTRALGW"> F  </i>
   <i type="logical" name="LSINGLES"> F  </i>
   <i type="logical" name="LFERMIGW"> F  </i>
   <i type="logical" name="ODDONLYGW"> F  </i>
   <i type="logical" name="EVENONLYGW"> F  </i>
   <i type="int" name="NKREDLFX">     1</i>
   <i type="int" name="NKREDLFY">     1</i>
   <i type="int" name="NKREDLFZ">     1</i>
   <i type="int" name="MAXMEM">  2800</i>
   <i type="int" name="TELESCOPE">     0</i>
   <i type="int" name="TAUPAR">     1</i>
   <i type="int" name="OMEGAPAR">    -1</i>
   <i name="LAMBDA">      1.00000000</i>
  </separator>
  <separator name="External order field" >
   <i name="OFIELD_KAPPA">      0.00000000</i>
   <v name="OFIELD_K">      0.00000000      0.00000000      0.00000000</v>
   <i name="OFIELD_Q6_NEAR">      0.00000000</i>
   <i name="OFIELD_Q6_FAR">      0.00000000</i>
   <i name="OFIELD_A">      0.00000000</i>
  </separator>
 </parameters>
 <atominfo>
  <atoms>     186 </atoms>
  <types>       5 </types>
  <array name="atoms" >
   <dimension dim="1">ion</dimension>
   <field type="string">element</field>
   <field type="int">atomtype</field>
   <set>
    <rc><c>O </c><c>   1</c></rc>
    <rc><c>O </c><c>   1</c></rc>
    <rc><c>O </c><c>   1</c></rc>
    <rc><c>O </c><c>   1</c></rc>
    <rc><c>O </c><c>   1</c></rc>
    <rc><c>O </c><c>   1</c></rc>
    <rc><c>O </c><c>   1</c></rc>
    <rc><c>O </c><c>   1</c></rc>
    <rc><c>O </c><c>   1</c></rc>
    <rc><c>O </c><c>   1</c></rc>
    <rc><c>O </c><c>   1</c></rc>
    <rc><c>O </c><c>   1</c></rc>
    <rc><c>O </c><c>   1</c></rc>
    <rc><c>O </c><c>   1</c></rc>
    <rc><c>O </c><c>   1</c></rc>
    <rc><c>O </c><c>   1</c></rc>
    <rc><c>O </c><c>   1</c></rc>
    <rc><c>O </c><c>   1</c></rc>
    <rc><c>O </c><c>   1</c></rc>
    <rc><c>O </c><c>   1</c></rc>
    <rc><c>O </c><c>   1</c></rc>
    <rc><c>O </c><c>   1</c></rc>
    <rc><c>O </c><c>   1</c></rc>
    <rc><c>O </c><c>   1</c></rc>
    <rc><c>O </c><c>   1</c></rc>
    <rc><c>O </c><c>   1</c></rc>
    <rc><c>O </c><c>   1</c></rc>
    <rc><c>O </c><c>   1</c></rc>
    <rc><c>O </c><c>   1</c></rc>
    <rc><c>O </c><c>   1</c></rc>
    <rc><c>O </c><c>   1</c></rc>
    <rc><c>O </c><c>   1</c></rc>
    <rc><c>O </c><c>   1</c></rc>
    <rc><c>O </c><c>   1</c></rc>
    <rc><c>O </c><c>   1</c></rc>
    <rc><c>O </c><c>   1</c></rc>
    <rc><c>O </c><c>   1</c></rc>
    <rc><c>O </c><c>   1</c></rc>
    <rc><c>O </c><c>   1</c></rc>
    <rc><c>O </c><c>   1</c></rc>
    <rc><c>O </c><c>   1</c></rc>
    <rc><c>O </c><c>   1</c></rc>
    <rc><c>O </c><c>   1</c></rc>
    <rc><c>O </c><c>   1</c></rc>
    <rc><c>O </c><c>   1</c></rc>
    <rc><c>O </c><c>   1</c></rc>
    <rc><c>O </c><c>   1</c></rc>
    <rc><c>O </c><c>   1</c></rc>
    <rc><c>O </c><c>   1</c></rc>
    <rc><c>O </c><c>   1</c></rc>
    <rc><c>O </c><c>   1</c></rc>
    <rc><c>O </c><c>   1</c></rc>
    <rc><c>O </c><c>   1</c></rc>
    <rc><c>O </c><c>   1</c></rc>
    <rc><c>O </c><c>   1</c></rc>
    <rc><c>O </c><c>   1</c></rc>
    <rc><c>O </c><c>   1</c></rc>
    <rc><c>O </c><c>   1</c></rc>
    <rc><c>O </c><c>   1</c></rc>
    <rc><c>O </c><c>   1</c></rc>
    <rc><c>O </c><c>   1</c></rc>
    <rc><c>O </c><c>   1</c></rc>
    <rc><c>O </c><c>   1</c></rc>
    <rc><c>O </c><c>   1</c></rc>
    <rc><c>O </c><c>   1</c></rc>
    <rc><c>O </c><c>   1</c></rc>
    <rc><c>O </c><c>   1</c></rc>
    <rc><c>O </c><c>   1</c></rc>
    <rc><c>O </c><c>   1</c></rc>
    <rc><c>O </c><c>   1</c></rc>
    <rc><c>O </c><c>   1</c></rc>
    <rc><c>O </c><c>   1</c></rc>
    <rc><c>O </c><c>   1</c></rc>
    <rc><c>O </c><c>   1</c></rc>
    <rc><c>O </c><c>   1</c></rc>
    <rc><c>O </c><c>   1</c></rc>
    <rc><c>O </c><c>   1</c></rc>
    <rc><c>O </c><c>   1</c></rc>
    <rc><c>O </c><c>   1</c></rc>
    <rc><c>O </c><c>   1</c></rc>
    <rc><c>O </c><c>   1</c></rc>
    <rc><c>O </c><c>   1</c></rc>
    <rc><c>O </c><c>   1</c></rc>
    <rc><c>O </c><c>   1</c></rc>
    <rc><c>O </c><c>   1</c></rc>
    <rc><c>O </c><c>   1</c></rc>
    <rc><c>O </c><c>   1</c></rc>
    <rc><c>O </c><c>   1</c></rc>
    <rc><c>O </c><c>   1</c></rc>
    <rc><c>O </c><c>   1</c></rc>
    <rc><c>O </c><c>   1</c></rc>
    <rc><c>O </c><c>   1</c></rc>
    <rc><c>O </c><c>   1</c></rc>
    <rc><c>O </c><c>   1</c></rc>
    <rc><c>O </c><c>   1</c></rc>
    <rc><c>O </c><c>   1</c></rc>
    <rc><c>La</c><c>   2</c></rc>
    <rc><c>La</c><c>   2</c></rc>
    <rc><c>La</c><c>   2</c></rc>
    <rc><c>La</c><c>   2</c></rc>
    <rc><c>La</c><c>   2</c></rc>
    <rc><c>La</c><c>   2</c></rc>
    <rc><c>La</c><c>   2</c></rc>
    <rc><c>La</c><c>   2</c></rc>
    <rc><c>La</c><c>   2</c></rc>
    <rc><c>La</c><c>   2</c></rc>
    <rc><c>La</c><c>   2</c></rc>
    <rc><c>La</c><c>   2</c></rc>
    <rc><c>La</c><c>   2</c></rc>
    <rc><c>La</c><c>   2</c></rc>
    <rc><c>La</c><c>   2</c></rc>
    <rc><c>La</c><c>   2</c></rc>
    <rc><c>La</c><c>   2</c></rc>
    <rc><c>La</c><c>   2</c></rc>
    <rc><c>La</c><c>   2</c></rc>
    <rc><c>La</c><c>   2</c></rc>
    <rc><c>La</c><c>   2</c></rc>
    <rc><c>La</c><c>   2</c></rc>
    <rc><c>La</c><c>   2</c></rc>
    <rc><c>La</c><c>   2</c></rc>
    <rc><c>Zr</c><c>   3</c></rc>
    <rc><c>Zr</c><c>   3</c></rc>
    <rc><c>Zr</c><c>   3</c></rc>
    <rc><c>Zr</c><c>   3</c></rc>
    <rc><c>Zr</c><c>   3</c></rc>
    <rc><c>Zr</c><c>   3</c></rc>
    <rc><c>Zr</c><c>   3</c></rc>
    <rc><c>Zr</c><c>   3</c></rc>
    <rc><c>Zr</c><c>   3</c></rc>
    <rc><c>Zr</c><c>   3</c></rc>
    <rc><c>Zr</c><c>   3</c></rc>
    <rc><c>Zr</c><c>   3</c></rc>
    <rc><c>Zr</c><c>   3</c></rc>
    <rc><c>Zr</c><c>   3</c></rc>
    <rc><c>Zr</c><c>   3</c></rc>
    <rc><c>Zr</c><c>   3</c></rc>
    <rc><c>Li</c><c>   4</c></rc>
    <rc><c>Li</c><c>   4</c></rc>
    <rc><c>Li</c><c>   4</c></rc>
    <rc><c>Li</c><c>   4</c></rc>
    <rc><c>Li</c><c>   4</c></rc>
    <rc><c>Li</c><c>   4</c></rc>
    <rc><c>Li</c><c>   4</c></rc>
    <rc><c>Li</c><c>   4</c></rc>
    <rc><c>Li</c><c>   4</c></rc>
    <rc><c>Li</c><c>   4</c></rc>
    <rc><c>Li</c><c>   4</c></rc>
    <rc><c>Li</c><c>   4</c></rc>
    <rc><c>Li</c><c>   4</c></rc>
    <rc><c>Li</c><c>   4</c></rc>
    <rc><c>Li</c><c>   4</c></rc>
    <rc><c>Li</c><c>   4</c></rc>
    <rc><c>Li</c><c>   4</c></rc>
    <rc><c>Li</c><c>   4</c></rc>
    <rc><c>Li</c><c>   4</c></rc>
    <rc><c>Li</c><c>   4</c></rc>
    <rc><c>Li</c><c>   4</c></rc>
    <rc><c>Li</c><c>   4</c></rc>
    <rc><c>Li</c><c>   4</c></rc>
    <rc><c>Li</c><c>   4</c></rc>
    <rc><c>Li</c><c>   4</c></rc>
    <rc><c>Li</c><c>   4</c></rc>
    <rc><c>Li</c><c>   4</c></rc>
    <rc><c>Li</c><c>   4</c></rc>
    <rc><c>Li</c><c>   4</c></rc>
    <rc><c>Li</c><c>   4</c></rc>
    <rc><c>Li</c><c>   4</c></rc>
    <rc><c>Li</c><c>   4</c></rc>
    <rc><c>Li</c><c>   4</c></rc>
    <rc><c>Li</c><c>   4</c></rc>
    <rc><c>Li</c><c>   4</c></rc>
    <rc><c>Li</c><c>   4</c></rc>
    <rc><c>Li</c><c>   4</c></rc>
    <rc><c>Li</c><c>   4</c></rc>
    <rc><c>Li</c><c>   4</c></rc>
    <rc><c>Li</c><c>   4</c></rc>
    <rc><c>Li</c><c>   4</c></rc>
    <rc><c>Li</c><c>   4</c></rc>
    <rc><c>Li</c><c>   4</c></rc>
    <rc><c>Li</c><c>   4</c></rc>
    <rc><c>Li</c><c>   4</c></rc>
    <rc><c>Li</c><c>   4</c></rc>
    <rc><c>Li</c><c>   4</c></rc>
    <rc><c>Al</c><c>   5</c></rc>
    <rc><c>Al</c><c>   5</c></rc>
    <rc><c>Al</c><c>   5</c></rc>
   </set>
  </array>
  <array name="atomtypes" >
   <dimension dim="1">type</dimension>
   <field type="int">atomspertype</field>
   <field type="string">element</field>
   <field>mass</field>
   <field>valence</field>
   <field type="string">pseudopotential</field>
   <set>
    <rc><c>  96</c><c>O </c><c>     16.00000000</c><c>      6.00000000</c><c>  PAW_PBE O 08Apr2002                   </c></rc>
    <rc><c>  24</c><c>La</c><c>    138.90000000</c><c>     11.00000000</c><c>  PAW_PBE La 06Sep2000                  </c></rc>
    <rc><c>  16</c><c>Zr</c><c>     91.22400000</c><c>     12.00000000</c><c>  PAW_PBE Zr_sv 04Jan2005               </c></rc>
    <rc><c>  47</c><c>Li</c><c>      7.01000000</c><c>      1.00000000</c><c>  PAW_PBE Li 17Jan2003                  </c></rc>
    <rc><c>   3</c><c>Al</c><c>     26.98100000</c><c>      3.00000000</c><c>  PAW_PBE Al 04Jan2001                  </c></rc>
   </set>
  </array>
 </atominfo>
 <structure name="initialpos" >
  <crystal>
   <varray name="basis" >
    <v>      12.96520042       0.00000000       0.00000000 </v>
    <v>       0.00000000      12.96500015       0.00000000 </v>
    <v>       0.00000000       0.00000000      12.96500015 </v>
   </varray>
   <i name="volume">   2179.33647298 </i>
   <varray name="rec_basis" >
    <v>       0.07712954       0.00000000       0.00000000 </v>
    <v>       0.00000000       0.07713074       0.00000000 </v>
    <v>       0.00000000       0.00000000       0.07713074 </v>
   </varray>
  </crystal>
  <varray name="positions" >
   <v>       0.09692844       0.19983115       0.27846787 </v>
   <v>       0.89944619       0.79779341       0.70851663 </v>
   <v>       0.39875876       0.80342144       0.78307435 </v>
   <v>       0.60065719       0.18931117       0.22605985 </v>
   <v>       0.89488729       0.68581220       0.22995191 </v>
   <v>       0.10172565       0.31393591       0.78265895 </v>
   <v>       0.59649866       0.31242014       0.72437678 </v>
   <v>       0.39245000       0.69016125       0.28194068 </v>
   <v>       0.28663347       0.09521616       0.20918392 </v>
   <v>       0.72408653       0.89388758       0.80345276 </v>
   <v>       0.77965669       0.40536646       0.80626363 </v>
   <v>       0.22087223       0.59733780       0.19085091 </v>
   <v>       0.22503285       0.90391735       0.69341443 </v>
   <v>       0.78797013       0.09889298       0.30203952 </v>
   <v>       0.71105385       0.59136590       0.30243333 </v>
   <v>       0.29231861       0.40003727       0.69779682 </v>
   <v>       0.20191857       0.28144880       0.10138362 </v>
   <v>       0.79639050       0.70060332       0.90418406 </v>
   <v>       0.79877261       0.78057710       0.40439416 </v>
   <v>       0.18696558       0.22720896       0.60723658 </v>
   <v>       0.69965808       0.22177748       0.89826366 </v>
   <v>       0.30463107       0.78443312       0.10208552 </v>
   <v>       0.29693983       0.71731646       0.59590545 </v>
   <v>       0.69475929       0.27514747       0.40314759 </v>
   <v>       0.94282329       0.34869263       0.96665773 </v>
   <v>       0.05119839       0.64677846       0.03090929 </v>
   <v>       0.56040266       0.65018602       0.47612286 </v>
   <v>       0.45280391       0.34645963       0.53180354 </v>
   <v>       0.43660666       0.14810049       0.03023248 </v>
   <v>       0.55334558       0.84789237       0.96832829 </v>
   <v>       0.05137559       0.84790688       0.54747645 </v>
   <v>       0.95414104       0.15226948       0.46703706 </v>
   <v>       0.84277164       0.53071771       0.04801104 </v>
   <v>       0.15239885       0.47644488       0.94230392 </v>
   <v>       0.15147792       0.03297413       0.44635713 </v>
   <v>       0.84939427       0.97092782       0.55093165 </v>
   <v>       0.64917844       0.46512524       0.56089963 </v>
   <v>       0.35258648       0.52063227       0.44242708 </v>
   <v>       0.35162538       0.95745916       0.95624941 </v>
   <v>       0.65354828       0.02339464       0.05978202 </v>
   <v>       0.03263850       0.44257703       0.14781741 </v>
   <v>       0.97094851       0.55174931       0.84563829 </v>
   <v>       0.53637549       0.05375773       0.85686380 </v>
   <v>       0.46803323       0.94353230       0.15315577 </v>
   <v>       0.96498557       0.94806009       0.35538559 </v>
   <v>       0.02807064       0.05115417       0.65686094 </v>
   <v>       0.46457883       0.55744102       0.64715139 </v>
   <v>       0.53612563       0.44844894       0.34627184 </v>
   <v>       0.59554983       0.69827391       0.78009180 </v>
   <v>       0.40427087       0.29683894       0.21614282 </v>
   <v>       0.89739090       0.31121192       0.27860361 </v>
   <v>       0.09481557       0.69974979       0.70469122 </v>
   <v>       0.39900855       0.19940137       0.72064009 </v>
   <v>       0.60074872       0.80340145       0.28879884 </v>
   <v>       0.09388741       0.80369193       0.22576932 </v>
   <v>       0.89925442       0.20536215       0.78922611 </v>
   <v>       0.78197631       0.59393636       0.69923157 </v>
   <v>       0.21724389       0.40087001       0.29861437 </v>
   <v>       0.27408704       0.89626098       0.30982156 </v>
   <v>       0.72818417       0.10301668       0.69017523 </v>
   <v>       0.70164589       0.40141153       0.19878665 </v>
   <v>       0.28949813       0.60179535       0.79032126 </v>
   <v>       0.23303987       0.10477241       0.81605438 </v>
   <v>       0.77392036       0.89218084       0.19411610 </v>
   <v>       0.69646740       0.78014440       0.60053422 </v>
   <v>       0.29759009       0.21886060       0.40526277 </v>
   <v>       0.31071380       0.28771730       0.90344827 </v>
   <v>       0.69578918       0.71172602       0.09760832 </v>
   <v>       0.18812123       0.71170831       0.40254032 </v>
   <v>       0.80841614       0.29122424       0.60362376 </v>
   <v>       0.80818437       0.22830399       0.10123936 </v>
   <v>       0.18795905       0.76690566       0.89520115 </v>
   <v>       0.44477643       0.85087404       0.47575418 </v>
   <v>       0.55786269       0.15100966       0.52985284 </v>
   <v>       0.05706973       0.14498367       0.97313463 </v>
   <v>       0.93757691       0.84909229       0.02472863 </v>
   <v>       0.95042558       0.65289341       0.54464260 </v>
   <v>       0.05528413       0.34906142       0.46629315 </v>
   <v>       0.55171416       0.35434711       0.02270115 </v>
   <v>       0.44448998       0.65553972       0.97425404 </v>
   <v>       0.35717089       0.03763045       0.55635039 </v>
   <v>       0.65584859       0.96989749       0.44759426 </v>
   <v>       0.65088173       0.54715486       0.95191458 </v>
   <v>       0.35010644       0.46616812       0.05020342 </v>
   <v>       0.15134811       0.97177465       0.06195521 </v>
   <v>       0.84602502       0.03653827       0.94975803 </v>
   <v>       0.85280016       0.47613555       0.44675000 </v>
   <v>       0.15588386       0.52903203       0.54680105 </v>
   <v>       0.53900778       0.94289999       0.65350150 </v>
   <v>       0.46730682       0.05720156       0.35335302 </v>
   <v>       0.03064248       0.55171659       0.35081827 </v>
   <v>       0.97278274       0.44777365       0.65264456 </v>
   <v>       0.46953046       0.45569965       0.85318431 </v>
   <v>       0.53383134       0.55012014       0.15899687 </v>
   <v>       0.96371984       0.05648912       0.14970380 </v>
   <v>       0.02775441       0.94047631       0.84876292 </v>
   <v>       0.12537381       0.99427269       0.24712175 </v>
   <v>       0.87386315       0.00665297       0.75847214 </v>
   <v>       0.37184153       0.00372196       0.75043577 </v>
   <v>       0.62730958       0.00071198       0.25032960 </v>
   <v>       0.87323872       0.49774531       0.25392487 </v>
   <v>       0.13126074       0.49468355       0.75487086 </v>
   <v>       0.61956148       0.49791102       0.74945997 </v>
   <v>       0.37108870       0.50201771       0.25474706 </v>
   <v>       0.24815553       0.12168211       0.99944595 </v>
   <v>       0.75258837       0.87539027       0.00421000 </v>
   <v>       0.74254740       0.36741840       0.00396521 </v>
   <v>       0.24552018       0.62926126       0.00660537 </v>
   <v>       0.25822564       0.87985932       0.49713279 </v>
   <v>       0.74907991       0.12976784       0.50316651 </v>
   <v>       0.74411302       0.61529293       0.50072968 </v>
   <v>       0.25484872       0.36974171       0.50378542 </v>
   <v>       0.99850940       0.24917873       0.12120786 </v>
   <v>       0.00239714       0.75052543       0.88771215 </v>
   <v>       0.99798407       0.74985045       0.36643714 </v>
   <v>       0.00312788       0.24933800       0.63482677 </v>
   <v>       0.50286317       0.24332856       0.87850690 </v>
   <v>       0.49500172       0.75303746       0.14107345 </v>
   <v>       0.49893056       0.75165792       0.62178927 </v>
   <v>       0.50468127       0.24828668       0.37483656 </v>
   <v>       0.00306565       0.99702986       0.00236888 </v>
   <v>       0.50560500       0.99953437       0.50047569 </v>
   <v>       0.00278637       0.49424570       0.50131491 </v>
   <v>       0.49808958       0.50361736       0.00467559 </v>
   <v>       0.74934088       0.24658773       0.25457388 </v>
   <v>       0.25079865       0.75750902       0.75065376 </v>
   <v>       0.74380939       0.74488576       0.74973406 </v>
   <v>       0.25061593       0.24633912       0.25154912 </v>
   <v>       0.24998586       0.25097828       0.75501247 </v>
   <v>       0.74865748       0.74802518       0.25222587 </v>
   <v>       0.24416951       0.74941247       0.24890123 </v>
   <v>       0.74634282       0.25247386       0.74788455 </v>
   <v>       0.50295251       0.50161076       0.49998952 </v>
   <v>       0.00247883       0.49928496       0.99802074 </v>
   <v>       0.50141417       0.00128286       0.00506827 </v>
   <v>       0.00038077       0.00539848       0.50414635 </v>
   <v>       0.82404261       0.83074722       0.54936940 </v>
   <v>       0.92258473       0.37888889       0.82544295 </v>
   <v>       0.85362720       0.18262264       0.93244707 </v>
   <v>       0.43359360       0.14394478       0.17615459 </v>
   <v>       0.43086581       0.65629702       0.82652779 </v>
   <v>       0.18268245       0.42425126       0.14512619 </v>
   <v>       0.42212026       0.17936646       0.58193848 </v>
   <v>       0.68573711       0.92825666       0.61890824 </v>
   <v>       0.80589250       0.08513130       0.09513580 </v>
   <v>       0.10769642       0.18340682       0.42102492 </v>
   <v>       0.92793671       0.58040481       0.70099195 </v>
   <v>       0.99048218       0.74788063       0.12614223 </v>
   <v>       0.17254382       0.56056645       0.38459133 </v>
   <v>       0.54698068       0.30108612       0.15304368 </v>
   <v>       0.33060939       0.42923412       0.89347437 </v>
   <v>       0.49118839       0.74461202       0.37677107 </v>
   <v>       0.31906318       0.08084142       0.37315798 </v>
   <v>       0.32270665       0.92874032       0.10924743 </v>
   <v>       0.93502877       0.11943882       0.31489868 </v>
   <v>       0.07457785       0.36600364       0.31704987 </v>
   <v>       0.57246889       0.87493999       0.82117383 </v>
   <v>       0.57698923       0.70580047       0.92499300 </v>
   <v>       0.15924892       0.67093225       0.55841875 </v>
   <v>       0.31509964       0.57734129       0.63051153 </v>
   <v>       0.58956891       0.29919152       0.58022625 </v>
   <v>       0.37776160       0.31565632       0.06794650 </v>
   <v>       0.81520543       0.93247380       0.39978572 </v>
   <v>       0.43810390       0.33696752       0.67594004 </v>
   <v>       0.40681482       0.81670812       0.93124079 </v>
   <v>       0.69072608       0.08558398       0.93196338 </v>
   <v>       0.08448009       0.91492851       0.68661329 </v>
   <v>       0.82649162       0.54887869       0.83924251 </v>
   <v>       0.08935150       0.55648234       0.21709612 </v>
   <v>       0.30720703       0.65242128       0.46194339 </v>
   <v>       0.23598278       0.11458257       0.53831814 </v>
   <v>       0.60735549       0.04489350       0.73415722 </v>
   <v>       0.82563532       0.43493484       0.66040794 </v>
   <v>       0.75251049       0.37608030       0.49125793 </v>
   <v>       0.89028652       0.96298039       0.22808825 </v>
   <v>       0.39490645       0.96204092       0.27330272 </v>
   <v>       0.38449120       0.49752678       0.74915970 </v>
   <v>       0.22270659       0.87548916       0.98041037 </v>
   <v>       0.65158779       0.82362865       0.43853597 </v>
   <v>       0.11620006       0.03918593       0.78373699 </v>
   <v>       0.20721005       0.35169943       0.97912545 </v>
   <v>       0.02176738       0.24098147       0.87720959 </v>
   <v>       0.93375210       0.28766037       0.41296541 </v>
   <v>       0.62202954       0.50016703       0.25281037 </v>
   <v>       0.99625866       0.75103705       0.62636114 </v>
   <v>       0.75018626       0.62305504       0.00997178 </v>
  </varray>
 </structure>
 <calculation>
  <scstep>
   <time name="dav">    1.93    1.96</time>
   <time name="total">    2.07    2.13</time>
   <energy>
    <i name="alphaZ">   3508.59650130 </i>
    <i name="ewald"> -65660.70218228 </i>
    <i name="hartreedc"> -19471.61809827 </i>
    <i name="XCdc">   3951.67484440 </i>
    <i name="pawpsdc">  65346.33952494 </i>
    <i name="pawaedc"> -64842.35312598 </i>
    <i name="eentropy">     -0.04401491 </i>
    <i name="bandstr">  21151.95682298 </i>
    <i name="atom">  83246.81458859 </i>
    <i name="e_fr_energy">  27230.66486078 </i>
    <i name="e_wo_entrp">  27230.70887568 </i>
    <i name="e_0_energy">  27230.68686823 </i>
   </energy>
  </scstep>
  <scstep>
   <time name="dav">    1.57    1.58</time>
   <time name="total">    1.57    1.59</time>
   <energy>
    <i name="e_fr_energy">  10084.26362376 </i>
    <i name="e_wo_entrp">  10084.58229432 </i>
    <i name="e_0_energy">  10084.42295904 </i>
   </energy>
  </scstep>
  <scstep>
   <time name="dav">    1.63    1.64</time>
   <time name="total">    1.63    1.64</time>
   <energy>
    <i name="e_fr_energy">   2803.81430700 </i>
    <i name="e_wo_entrp">   2805.85381495 </i>
    <i name="e_0_energy">   2804.83406098 </i>
   </energy>
  </scstep>
  <scstep>
   <time name="dav">    2.04    2.07</time>
   <time name="total">    2.04    2.07</time>
   <energy>
    <i name="e_fr_energy">   -391.54954244 </i>
    <i name="e_wo_entrp">   -390.16004443 </i>
    <i name="e_0_energy">   -390.85479343 </i>
   </energy>
  </scstep>
  <scstep>
   <time name="dav">    2.50    2.52</time>
   <time name="total">    2.55    2.58</time>
   <energy>
    <i name="e_fr_energy">  -1459.68557285 </i>
    <i name="e_wo_entrp">  -1459.68557285 </i>
    <i name="e_0_energy">  -1459.68557285 </i>
   </energy>
  </scstep>
  <scstep>
   <time name="dav">    2.41    2.43</time>
   <time name="total">    2.53    2.55</time>
   <energy>
    <i name="e_fr_energy">  -1338.20046277 </i>
    <i name="e_wo_entrp">  -1338.20046277 </i>
    <i name="e_0_energy">  -1338.20046277 </i>
   </energy>
  </scstep>
  <scstep>
   <time name="dav">    2.60    2.62</time>
   <time name="total">    2.72    2.75</time>
   <energy>
    <i name="e_fr_energy">  -1360.95914450 </i>
    <i name="e_wo_entrp">  -1360.95914450 </i>
    <i name="e_0_energy">  -1360.95914450 </i>
   </energy>
  </scstep>
  <scstep>
   <time name="dav">    2.41    2.43</time>
   <time name="total">    2.54    2.56</time>
   <energy>
    <i name="e_fr_energy">  -1374.35761475 </i>
    <i name="e_wo_entrp">  -1374.35761475 </i>
    <i name="e_0_energy">  -1374.35761475 </i>
   </energy>
  </scstep>
  <scstep>
   <time name="dav">    2.49    2.51</time>
   <time name="total">    2.61    2.63</time>
   <energy>
    <i name="e_fr_energy">  -1363.57353556 </i>
    <i name="e_wo_entrp">  -1363.57353556 </i>
    <i name="e_0_energy">  -1363.57353556 </i>
   </energy>
  </scstep>
  <scstep>
   <time name="dav">    2.59    2.62</time>
   <time name="total">    2.72    2.74</time>
   <energy>
    <i name="e_fr_energy">  -1365.37949432 </i>
    <i name="e_wo_entrp">  -1365.37949432 </i>
    <i name="e_0_energy">  -1365.37949432 </i>
   </energy>
  </scstep>
  <scstep>
   <time name="dav">    2.60    2.64</time>
   <time name="total">    2.73    2.77</time>
   <energy>
    <i name="e_fr_energy">  -1365.07420546 </i>
    <i name="e_wo_entrp">  -1365.07420546 </i>
    <i name="e_0_energy">  -1365.07420546 </i>
   </energy>
  </scstep>
  <scstep>
   <time name="dav">    2.53    2.55</time>
   <time name="total">    2.66    2.68</time>
   <energy>
    <i name="e_fr_energy">  -1365.06073086 </i>
    <i name="e_wo_entrp">  -1365.06073086 </i>
    <i name="e_0_energy">  -1365.06073086 </i>
   </energy>
  </scstep>
  <scstep>
   <time name="dav">    2.47    2.49</time>
   <time name="total">    2.59    2.62</time>
   <energy>
    <i name="e_fr_energy">  -1365.09864394 </i>
    <i name="e_wo_entrp">  -1365.09864394 </i>
    <i name="e_0_energy">  -1365.09864394 </i>
   </energy>
  </scstep>
  <scstep>
   <time name="dav">    2.46    2.48</time>
   <time name="total">    2.58    2.61</time>
   <energy>
    <i name="e_fr_energy">  -1365.09552915 </i>
    <i name="e_wo_entrp">  -1365.09552915 </i>
    <i name="e_0_energy">  -1365.09552915 </i>
   </energy>
  </scstep>
  <scstep>
   <time name="dav">    2.32    2.35</time>
   <time name="total">    2.45    2.47</time>
   <energy>
    <i name="e_fr_energy">  -1365.08897197 </i>
    <i name="e_wo_entrp">  -1365.08897197 </i>
    <i name="e_0_energy">  -1365.08897197 </i>
   </energy>
  </scstep>
  <scstep>
   <time name="dav">    2.47    2.49</time>
   <time name="total">    2.59    2.63</time>
   <energy>
    <i name="e_fr_energy">  -1365.09349753 </i>
    <i name="e_wo_entrp">  -1365.09349753 </i>
    <i name="e_0_energy">  -1365.09349753 </i>
   </energy>
  </scstep>
  <scstep>
   <time name="dav">    2.55    2.58</time>
   <time name="total">    2.67    2.70</time>
   <energy>
    <i name="e_fr_energy">  -1365.09104285 </i>
    <i name="e_wo_entrp">  -1365.09104285 </i>
    <i name="e_0_energy">  -1365.09104285 </i>
   </energy>
  </scstep>
  <scstep>
   <time name="dav">    2.52    2.54</time>
   <time name="total">    2.64    2.66</time>
   <energy>
    <i name="e_fr_energy">  -1365.09098603 </i>
    <i name="e_wo_entrp">  -1365.09098603 </i>
    <i name="e_0_energy">  -1365.09098603 </i>
   </energy>
  </scstep>
  <scstep>
   <time name="dav">    2.44    2.46</time>
   <time name="total">    2.56    2.59</time>
   <energy>
    <i name="e_fr_energy">  -1365.09116370 </i>
    <i name="e_wo_entrp">  -1365.09116370 </i>
    <i name="e_0_energy">  -1365.09116370 </i>
   </energy>
  </scstep>
  <scstep>
   <time name="dav">    2.93    2.95</time>
   <time name="total">    3.05    3.08</time>
   <energy>
    <i name="e_fr_energy">  -1365.09076567 </i>
    <i name="e_wo_entrp">  -1365.09076567 </i>
    <i name="e_0_energy">  -1365.09076567 </i>
   </energy>
  </scstep>
  <scstep>
   <time name="dav">    2.69    2.71</time>
   <time name="total">    2.82    2.84</time>
   <energy>
    <i name="e_fr_energy">  -1365.09060643 </i>
    <i name="e_wo_entrp">  -1365.09060643 </i>
    <i name="e_0_energy">  -1365.09060643 </i>
   </energy>
  </scstep>
  <scstep>
   <time name="dav">    2.61    2.63</time>
   <time name="total">    2.75    2.78</time>
   <energy>
    <i name="e_fr_energy">  -1365.09056288 </i>
    <i name="e_wo_entrp">  -1365.09056288 </i>
    <i name="e_0_energy">  -1365.09056288 </i>
   </energy>
  </scstep>
  <scstep>
   <time name="dav">    3.13    3.15</time>
   <time name="total">    3.25    3.27</time>
   <energy>
    <i name="e_fr_energy">  -1365.09056297 </i>
    <i name="e_wo_entrp">  -1365.09056297 </i>
    <i name="e_0_energy">  -1365.09056297 </i>
   </energy>
  </scstep>
  <scstep>
   <time name="dav">    2.39    2.41</time>
   <time name="total">    2.53    2.55</time>
   <energy>
    <i name="e_fr_energy">  -1365.09055922 </i>
    <i name="e_wo_entrp">  -1365.09055922 </i>
    <i name="e_0_energy">  -1365.09055922 </i>
   </energy>
  </scstep>
  <scstep>
   <time name="dav">    2.04    2.06</time>
   <time name="total">    2.22    2.24</time>
   <energy>
    <i name="e_fr_energy">  -1365.09055549 </i>
    <i name="e_wo_entrp">  -1365.09055549 </i>
    <i name="e_0_energy">  -1365.09055549 </i>
   </energy>
  </scstep>
  <scstep>
   <time name="dav">    1.27    1.28</time>
   <time name="total">    1.35    1.36</time>
   <energy>
    <i name="alphaZ">   3508.59650130 </i>
    <i name="ewald"> -65660.70218228 </i>
    <i name="hartreedc"> -20739.26415449 </i>
    <i name="XCdc">   4055.46615548 </i>
    <i name="pawpsdc"> 103556.06035243 </i>
    <i name="pawaedc">-103129.31076968 </i>
    <i name="eentropy">     -0.00000000 </i>
    <i name="bandstr">  -6202.75104701 </i>
    <i name="atom">  83246.81458859 </i>
    <i name="e_fr_energy">  -1365.09055565 </i>
    <i name="e_wo_entrp">  -1365.09055565 </i>
    <i name="e_0_energy">  -1365.09055565 </i>
   </energy>
  </scstep>
  <structure>
   <crystal>
    <varray name="basis" >
     <v>      12.96520042       0.00000000       0.00000000 </v>
     <v>       0.00000000      12.96500015       0.00000000 </v>
     <v>       0.00000000       0.00000000      12.96500015 </v>
    </varray>
    <i name="volume">   2179.33647298 </i>
    <varray name="rec_basis" >
     <v>       0.07712954       0.00000000       0.00000000 </v>
     <v>       0.00000000       0.07713074       0.00000000 </v>
     <v>       0.00000000       0.00000000       0.07713074 </v>
    </varray>
   </crystal>
   <varray name="positions" >
    <v>       0.09692844       0.19983115       0.27846787 </v>
    <v>       0.89944619       0.79779341       0.70851663 </v>
    <v>       0.39875876       0.80342144       0.78307435 </v>
    <v>       0.60065719       0.18931117       0.22605985 </v>
    <v>       0.89488729       0.68581220       0.22995191 </v>
    <v>       0.10172565       0.31393591       0.78265895 </v>
    <v>       0.59649866       0.31242014       0.72437678 </v>
    <v>       0.39245000       0.69016125       0.28194068 </v>
    <v>       0.28663347       0.09521616       0.20918392 </v>
    <v>       0.72408653       0.89388758       0.80345276 </v>
    <v>       0.77965669       0.40536646       0.80626363 </v>
    <v>       0.22087223       0.59733780       0.19085091 </v>
    <v>       0.22503285       0.90391735       0.69341443 </v>
    <v>       0.78797013       0.09889298       0.30203952 </v>
    <v>       0.71105385       0.59136590       0.30243333 </v>
    <v>       0.29231861       0.40003727       0.69779682 </v>
    <v>       0.20191857       0.28144880       0.10138362 </v>
    <v>       0.79639050       0.70060332       0.90418406 </v>
    <v>       0.79877261       0.78057710       0.40439416 </v>
    <v>       0.18696558       0.22720896       0.60723658 </v>
    <v>       0.69965808       0.22177748       0.89826366 </v>
    <v>       0.30463107       0.78443312       0.10208552 </v>
    <v>       0.29693983       0.71731646       0.59590545 </v>
    <v>       0.69475929       0.27514747       0.40314759 </v>
    <v>       0.94282329       0.34869263       0.96665773 </v>
    <v>       0.05119839       0.64677846       0.03090929 </v>
    <v>       0.56040266       0.65018602       0.47612286 </v>
    <v>       0.45280391       0.34645963       0.53180354 </v>
    <v>       0.43660666       0.14810049       0.03023248 </v>
    <v>       0.55334558       0.84789237       0.96832829 </v>
    <v>       0.05137559       0.84790688       0.54747645 </v>
    <v>       0.95414104       0.15226948       0.46703706 </v>
    <v>       0.84277164       0.53071771       0.04801104 </v>
    <v>       0.15239885       0.47644488       0.94230392 </v>
    <v>       0.15147792       0.03297413       0.44635713 </v>
    <v>       0.84939427       0.97092782       0.55093165 </v>
    <v>       0.64917844       0.46512524       0.56089963 </v>
    <v>       0.35258648       0.52063227       0.44242708 </v>
    <v>       0.35162538       0.95745916       0.95624941 </v>
    <v>       0.65354828       0.02339464       0.05978202 </v>
    <v>       0.03263850       0.44257703       0.14781741 </v>
    <v>       0.97094851       0.55174931       0.84563829 </v>
    <v>       0.53637549       0.05375773       0.85686380 </v>
    <v>       0.46803323       0.94353230       0.15315577 </v>
    <v>       0.96498557       0.94806009       0.35538559 </v>
    <v>       0.02807064       0.05115417       0.65686094 </v>
    <v>       0.46457883       0.55744102       0.64715139 </v>
    <v>       0.53612563       0.44844894       0.34627184 </v>
    <v>       0.59554983       0.69827391       0.78009180 </v>
    <v>       0.40427087       0.29683894       0.21614282 </v>
    <v>       0.89739090       0.31121192       0.27860361 </v>
    <v>       0.09481557       0.69974979       0.70469122 </v>
    <v>       0.39900855       0.19940137       0.72064009 </v>
    <v>       0.60074872       0.80340145       0.28879884 </v>
    <v>       0.09388741       0.80369193       0.22576932 </v>
    <v>       0.89925442       0.20536215       0.78922611 </v>
    <v>       0.78197631       0.59393636       0.69923157 </v>
    <v>       0.21724389       0.40087001       0.29861437 </v>
    <v>       0.27408704       0.89626098       0.30982156 </v>
    <v>       0.72818417       0.10301668       0.69017523 </v>
    <v>       0.70164589       0.40141153       0.19878665 </v>
    <v>       0.28949813       0.60179535       0.79032126 </v>
    <v>       0.23303987       0.10477241       0.81605438 </v>
    <v>       0.77392036       0.89218084       0.19411610 </v>
    <v>       0.69646740       0.78014440       0.60053422 </v>
    <v>       0.29759009       0.21886060       0.40526277 </v>
    <v>       0.31071380       0.28771730       0.90344827 </v>
    <v>       0.69578918       0.71172602       0.09760832 </v>
    <v>       0.18812123       0.71170831       0.40254032 </v>
    <v>       0.80841614       0.29122424       0.60362376 </v>
    <v>       0.80818437       0.22830399       0.10123936 </v>
    <v>       0.18795905       0.76690566       0.89520115 </v>
    <v>       0.44477643       0.85087404       0.47575418 </v>
    <v>       0.55786269       0.15100966       0.52985284 </v>
    <v>       0.05706973       0.14498367       0.97313463 </v>
    <v>       0.93757691       0.84909229       0.02472863 </v>
    <v>       0.95042558       0.65289341       0.54464260 </v>
    <v>       0.05528413       0.34906142       0.46629315 </v>
    <v>       0.55171416       0.35434711       0.02270115 </v>
    <v>       0.44448998       0.65553972       0.97425404 </v>
    <v>       0.35717089       0.03763045       0.55635039 </v>
    <v>       0.65584859       0.96989749       0.44759426 </v>
    <v>       0.65088173       0.54715486       0.95191458 </v>
    <v>       0.35010644       0.46616812       0.05020342 </v>
    <v>       0.15134811       0.97177465       0.06195521 </v>
    <v>       0.84602502       0.03653827       0.94975803 </v>
    <v>       0.85280016       0.47613555       0.44675000 </v>
    <v>       0.15588386       0.52903203       0.54680105 </v>
    <v>       0.53900778       0.94289999       0.65350150 </v>
    <v>       0.46730682       0.05720156       0.35335302 </v>
    <v>       0.03064248       0.55171659       0.35081827 </v>
    <v>       0.97278274       0.44777365       0.65264456 </v>
    <v>       0.46953046       0.45569965       0.85318431 </v>
    <v>       0.53383134       0.55012014       0.15899687 </v>
    <v>       0.96371984       0.05648912       0.14970380 </v>
    <v>       0.02775441       0.94047631       0.84876292 </v>
    <v>       0.12537381       0.99427269       0.24712175 </v>
    <v>       0.87386315       0.00665297       0.75847214 </v>
    <v>       0.37184153       0.00372196       0.75043577 </v>
    <v>       0.62730958       0.00071198       0.25032960 </v>
    <v>       0.87323872       0.49774531       0.25392487 </v>
    <v>       0.13126074       0.49468355       0.75487086 </v>
    <v>       0.61956148       0.49791102       0.74945997 </v>
    <v>       0.37108870       0.50201771       0.25474706 </v>
    <v>       0.24815553       0.12168211       0.99944595 </v>
    <v>       0.75258837       0.87539027       0.00421000 </v>
    <v>       0.74254740       0.36741840       0.00396521 </v>
    <v>       0.24552018       0.62926126       0.00660537 </v>
    <v>       0.25822564       0.87985932       0.49713279 </v>
    <v>       0.74907991       0.12976784       0.50316651 </v>
    <v>       0.74411302       0.61529293       0.50072968 </v>
    <v>       0.25484872       0.36974171       0.50378542 </v>
    <v>       0.99850940       0.24917873       0.12120786 </v>
    <v>       0.00239714       0.75052543       0.88771215 </v>
    <v>       0.99798407       0.74985045       0.36643714 </v>
    <v>       0.00312788       0.24933800       0.63482677 </v>
    <v>       0.50286317       0.24332856       0.87850690 </v>
    <v>       0.49500172       0.75303746       0.14107345 </v>
    <v>       0.49893056       0.75165792       0.62178927 </v>
    <v>       0.50468127       0.24828668       0.37483656 </v>
    <v>       0.00306565       0.99702986       0.00236888 </v>
    <v>       0.50560500       0.99953437       0.50047569 </v>
    <v>       0.00278637       0.49424570       0.50131491 </v>
    <v>       0.49808958       0.50361736       0.00467559 </v>
    <v>       0.74934088       0.24658773       0.25457388 </v>
    <v>       0.25079865       0.75750902       0.75065376 </v>
    <v>       0.74380939       0.74488576       0.74973406 </v>
    <v>       0.25061593       0.24633912       0.25154912 </v>
    <v>       0.24998586       0.25097828       0.75501247 </v>
    <v>       0.74865748       0.74802518       0.25222587 </v>
    <v>       0.24416951       0.74941247       0.24890123 </v>
    <v>       0.74634282       0.25247386       0.74788455 </v>
    <v>       0.50295251       0.50161076       0.49998952 </v>
    <v>       0.00247883       0.49928496       0.99802074 </v>
    <v>       0.50141417       0.00128286       0.00506827 </v>
    <v>       0.00038077       0.00539848       0.50414635 </v>
    <v>       0.82404261       0.83074722       0.54936940 </v>
    <v>       0.92258473       0.37888889       0.82544295 </v>
    <v>       0.85362720       0.18262264       0.93244707 </v>
    <v>       0.43359360       0.14394478       0.17615459 </v>
    <v>       0.43086581       0.65629702       0.82652779 </v>
    <v>       0.18268245       0.42425126       0.14512619 </v>
    <v>       0.42212026       0.17936646       0.58193848 </v>
    <v>       0.68573711       0.92825666       0.61890824 </v>
    <v>       0.80589250       0.08513130       0.09513580 </v>
    <v>       0.10769642       0.18340682       0.42102492 </v>
    <v>       0.92793671       0.58040481       0.70099195 </v>
    <v>       0.99048218       0.74788063       0.12614223 </v>
    <v>       0.17254382       0.56056645       0.38459133 </v>
    <v>       0.54698068       0.30108612       0.15304368 </v>
    <v>       0.33060939       0.42923412       0.89347437 </v>
    <v>       0.49118839       0.74461202       0.37677107 </v>
    <v>       0.31906318       0.08084142       0.37315798 </v>
    <v>       0.32270665       0.92874032       0.10924743 </v>
    <v>       0.93502877       0.11943882       0.31489868 </v>
    <v>       0.07457785       0.36600364       0.31704987 </v>
    <v>       0.57246889       0.87493999       0.82117383 </v>
    <v>       0.57698923       0.70580047       0.92499300 </v>
    <v>       0.15924892       0.67093225       0.55841875 </v>
    <v>       0.31509964       0.57734129       0.63051153 </v>
    <v>       0.58956891       0.29919152       0.58022625 </v>
    <v>       0.37776160       0.31565632       0.06794650 </v>
    <v>       0.81520543       0.93247380       0.39978572 </v>
    <v>       0.43810390       0.33696752       0.67594004 </v>
    <v>       0.40681482       0.81670812       0.93124079 </v>
    <v>       0.69072608       0.08558398       0.93196338 </v>
    <v>       0.08448009       0.91492851       0.68661329 </v>
    <v>       0.82649162       0.54887869       0.83924251 </v>
    <v>       0.08935150       0.55648234       0.21709612 </v>
    <v>       0.30720703       0.65242128       0.46194339 </v>
    <v>       0.23598278       0.11458257       0.53831814 </v>
    <v>       0.60735549       0.04489350       0.73415722 </v>
    <v>       0.82563532       0.43493484       0.66040794 </v>
    <v>       0.75251049       0.37608030       0.49125793 </v>
    <v>       0.89028652       0.96298039       0.22808825 </v>
    <v>       0.39490645       0.96204092       0.27330272 </v>
    <v>       0.38449120       0.49752678       0.74915970 </v>
    <v>       0.22270659       0.87548916       0.98041037 </v>
    <v>       0.65158779       0.82362865       0.43853597 </v>
    <v>       0.11620006       0.03918593       0.78373699 </v>
    <v>       0.20721005       0.35169943       0.97912545 </v>
    <v>       0.02176738       0.24098147       0.87720959 </v>
    <v>       0.93375210       0.28766037       0.41296541 </v>
    <v>       0.62202954       0.50016703       0.25281037 </v>
    <v>       0.99625866       0.75103705       0.62636114 </v>
    <v>       0.75018626       0.62305504       0.00997178 </v>
   </varray>
  </structure>
  <varray name="forces" >
   <v>       0.02225321      -0.08684391      -0.00718882 </v>
   <v>       0.01360182      -0.03137548       0.04878834 </v>
   <v>      -0.02851955      -0.02855018       0.01775215 </v>
   <v>       0.01334667      -0.02091264      -0.00210100 </v>
   <v>       0.06934964       0.00230854       0.00815433 </v>
   <v>       0.01528539       0.01843060       0.03149316 </v>
   <v>      -0.02022347       0.01257066       0.03407689 </v>
   <v>      -0.00199652       0.01691932       0.09163244 </v>
   <v>       0.03384239      -0.01877701      -0.03301385 </v>
   <v>       0.02727291      -0.03313605       0.06823818 </v>
   <v>      -0.00719669       0.02811179      -0.06472654 </v>
   <v>       0.00271830      -0.01646735       0.05422310 </v>
   <v>       0.05128544      -0.04764595      -0.06688228 </v>
   <v>      -0.02605667      -0.02232705       0.05561753 </v>
   <v>       0.05340051      -0.05087658      -0.02903903 </v>
   <v>      -0.00494855      -0.01576859      -0.03576984 </v>
   <v>      -0.00198150       0.03132079       0.01159662 </v>
   <v>       0.01748360      -0.01429803       0.00530158 </v>
   <v>       0.01310020      -0.03679824      -0.00815230 </v>
   <v>       0.06005072      -0.01471810       0.01984222 </v>
   <v>       0.03605513       0.01819154       0.00894878 </v>
   <v>       0.01991558      -0.01659299       0.02409253 </v>
   <v>       0.10377517       0.01876063      -0.03966557 </v>
   <v>       0.02299407       0.01157643      -0.04677757 </v>
   <v>      -0.00115235       0.03409529      -0.03380866 </v>
   <v>       0.02984519       0.00374553       0.08494323 </v>
   <v>       0.00036222      -0.00695816      -0.03482569 </v>
   <v>       0.01136188      -0.00895639      -0.01228724 </v>
   <v>       0.03055830      -0.01841837       0.01975050 </v>
   <v>       0.01477377      -0.01108779      -0.00204730 </v>
   <v>      -0.03194872      -0.00459287       0.03533750 </v>
   <v>      -0.05282721       0.01161866       0.03349311 </v>
   <v>       0.00051467       0.03419624       0.04955093 </v>
   <v>      -0.00385867       0.03036238       0.02255151 </v>
   <v>      -0.02990566       0.00469882       0.02818727 </v>
   <v>      -0.02556800      -0.04024060       0.02421995 </v>
   <v>      -0.00811638      -0.00945911      -0.01051439 </v>
   <v>      -0.01720811       0.09035477       0.04743744 </v>
   <v>       0.00518637      -0.00762446       0.03546353 </v>
   <v>       0.02260973      -0.00397255      -0.01578857 </v>
   <v>      -0.02441309       0.03067567       0.02634137 </v>
   <v>      -0.03806914       0.00490353      -0.00351694 </v>
   <v>       0.02778185      -0.02619633       0.01711779 </v>
   <v>       0.03090904      -0.03452809       0.02411081 </v>
   <v>      -0.01943507      -0.02175718       0.01670296 </v>
   <v>      -0.01667749       0.03204529       0.01531069 </v>
   <v>      -0.00648465      -0.01609997      -0.00733321 </v>
   <v>       0.01214499       0.01685728      -0.01624316 </v>
   <v>       0.00671671      -0.03430764      -0.01817072 </v>
   <v>      -0.00823438       0.00774896       0.00205962 </v>
   <v>       0.02621384      -0.04442780       0.01713557 </v>
   <v>       0.06574343      -0.03325828      -0.00077446 </v>
   <v>       0.02161869       0.00414028       0.07682919 </v>
   <v>       0.04589915      -0.06934977      -0.05814998 </v>
   <v>       0.05347850      -0.00028564       0.04966518 </v>
   <v>       0.00998382       0.03237892      -0.03201870 </v>
   <v>      -0.02331156       0.02829387      -0.08167906 </v>
   <v>       0.02181102      -0.04451168       0.05897522 </v>
[...]
       <r>    3.6574    1.0000 </r>
       <r>    3.6762    1.0000 </r>
       <r>    3.6887    1.0000 </r>
       <r>    3.7017    1.0000 </r>
       <r>    3.7124    1.0000 </r>
       <r>    3.7213    1.0000 </r>
       <r>    3.7395    1.0000 </r>
       <r>    3.7410    1.0000 </r>
       <r>    3.7426    1.0000 </r>
       <r>    3.7527    1.0000 </r>
       <r>    3.7570    1.0000 </r>
       <r>    3.7703    1.0000 </r>
       <r>    3.7862    1.0000 </r>
       <r>    3.7925    1.0000 </r>
       <r>    3.8142    1.0000 </r>
       <r>    3.8190    1.0000 </r>
       <r>    3.8252    1.0000 </r>
       <r>    3.8315    1.0000 </r>
       <r>    3.8423    1.0000 </r>
       <r>    3.8487    1.0000 </r>
       <r>    3.8528    1.0000 </r>
       <r>    3.8635    1.0000 </r>
       <r>    3.8699    1.0000 </r>
       <r>    3.8782    1.0000 </r>
       <r>    3.8845    1.0000 </r>
       <r>    3.8984    1.0000 </r>
       <r>    3.9067    1.0000 </r>
       <r>    3.9136    1.0000 </r>
       <r>    3.9200    1.0000 </r>
       <r>    3.9243    1.0000 </r>
       <r>    3.9390    1.0000 </r>
       <r>    3.9509    1.0000 </r>
       <r>    3.9543    1.0000 </r>
       <r>    3.9656    1.0000 </r>
       <r>    3.9691    1.0000 </r>
       <r>    3.9842    1.0000 </r>
       <r>    3.9949    1.0000 </r>
       <r>    4.0066    1.0000 </r>
       <r>    4.0170    1.0000 </r>
       <r>    4.0197    1.0000 </r>
       <r>    4.0309    1.0000 </r>
       <r>    4.0376    1.0000 </r>
       <r>    4.0401    1.0000 </r>
       <r>    4.0480    1.0000 </r>
       <r>    4.0611    1.0000 </r>
       <r>    4.0776    1.0000 </r>
       <r>    4.0909    1.0000 </r>
       <r>    4.0979    1.0000 </r>
       <r>    4.1062    1.0000 </r>
       <r>    4.1146    1.0000 </r>
       <r>    4.1261    1.0000 </r>
       <r>    4.1272    1.0000 </r>
       <r>    4.1490    1.0000 </r>
       <r>    4.1502    1.0000 </r>
       <r>    4.1577    1.0000 </r>
       <r>    4.1713    1.0000 </r>
       <r>    4.1825    1.0000 </r>
       <r>    4.1875    1.0000 </r>
       <r>    4.1943    1.0000 </r>
       <r>    4.1966    1.0000 </r>
       <r>    4.2121    1.0000 </r>
       <r>    4.2270    1.0000 </r>
       <r>    4.2302    1.0000 </r>
       <r>    4.2373    1.0000 </r>
       <r>    4.2431    1.0000 </r>
       <r>    4.2550    1.0000 </r>
       <r>    4.2648    1.0000 </r>
       <r>    4.2733    1.0000 </r>
       <r>    4.2775    1.0000 </r>
       <r>    4.2963    1.0000 </r>
       <r>    4.3030    1.0000 </r>
       <r>    4.3108    1.0000 </r>
       <r>    4.3135    1.0000 </r>
       <r>    4.3331    1.0000 </r>
       <r>    4.3392    1.0000 </r>
       <r>    4.3446    1.0000 </r>
       <r>    4.3604    1.0000 </r>
       <r>    4.3728    1.0000 </r>
       <r>    4.3747    1.0000 </r>
       <r>    4.3834    1.0000 </r>
       <r>    4.3969    1.0000 </r>
       <r>    4.4076    1.0000 </r>
       <r>    4.4171    1.0000 </r>
       <r>    4.4279    1.0000 </r>
       <r>    4.4453    1.0000 </r>
       <r>    4.4518    1.0000 </r>
       <r>    4.4626    1.0000 </r>
       <r>    4.4721    1.0000 </r>
       <r>    4.4851    1.0000 </r>
       <r>    4.4985    1.0000 </r>
       <r>    4.5267    1.0000 </r>
       <r>    4.5441    1.0000 </r>
       <r>    4.5483    1.0000 </r>
       <r>    4.5629    1.0000 </r>
       <r>    8.9303    0.0000 </r>
       <r>    9.0487    0.0000 </r>
       <r>    9.0674    0.0000 </r>
       <r>    9.0836    0.0000 </r>
       <r>    9.0937    0.0000 </r>
       <r>    9.1234    0.0000 </r>
       <r>    9.1309    0.0000 </r>
       <r>    9.1725    0.0000 </r>
       <r>    9.1820    0.0000 </r>
       <r>    9.1950    0.0000 </r>
       <r>    9.2150    0.0000 </r>
       <r>    9.2312    0.0000 </r>
       <r>    9.2474    0.0000 </r>
       <r>    9.2604    0.0000 </r>
       <r>    9.2683    0.0000 </r>
       <r>    9.2891    0.0000 </r>
       <r>    9.3024    0.0000 </r>
       <r>    9.3119    0.0000 </r>
       <r>    9.3224    0.0000 </r>
       <r>    9.3323    0.0000 </r>
       <r>    9.3380    0.0000 </r>
       <r>    9.3605    0.0000 </r>
       <r>    9.3735    0.0000 </r>
       <r>    9.3776    0.0000 </r>
       <r>    9.3880    0.0000 </r>
       <r>    9.3926    0.0000 </r>
       <r>    9.4042    0.0000 </r>
       <r>    9.4126    0.0000 </r>
       <r>    9.4189    0.0000 </r>
       <r>    9.4368    0.0000 </r>
       <r>    9.4413    0.0000 </r>
       <r>    9.4457    0.0000 </r>
       <r>    9.4545    0.0000 </r>
       <r>    9.4619    0.0000 </r>
       <r>    9.4681    0.0000 </r>
       <r>    9.4857    0.0000 </r>
       <r>    9.4929    0.0000 </r>
       <r>    9.5102    0.0000 </r>
       <r>    9.5212    0.0000 </r>
       <r>    9.5352    0.0000 </r>
       <r>    9.5396    0.0000 </r>
       <r>    9.5552    0.0000 </r>
       <r>    9.5764    0.0000 </r>
       <r>    9.5802    0.0000 </r>
       <r>    9.5881    0.0000 </r>
       <r>    9.5982    0.0000 </r>
       <r>    9.6774    0.0000 </r>
       <r>    9.6862    0.0000 </r>
       <r>    9.7038    0.0000 </r>
       <r>    9.7153    0.0000 </r>
       <r>    9.7176    0.0000 </r>
       <r>    9.7345    0.0000 </r>
       <r>    9.7492    0.0000 </r>
       <r>    9.7595    0.0000 </r>
       <r>    9.7617    0.0000 </r>
       <r>    9.7690    0.0000 </r>
       <r>    9.7719    0.0000 </r>
       <r>    9.7843    0.0000 </r>
       <r>    9.7861    0.0000 </r>
       <r>    9.7974    0.0000 </r>
       <r>    9.8030    0.0000 </r>
       <r>    9.8082    0.0000 </r>
       <r>    9.8133    0.0000 </r>
       <r>    9.8216    0.0000 </r>
       <r>    9.8231    0.0000 </r>
       <r>    9.8321    0.0000 </r>
       <r>    9.8361    0.0000 </r>
       <r>    9.8400    0.0000 </r>
       <r>    9.8443    0.0000 </r>
       <r>    9.8525    0.0000 </r>
       <r>    9.8570    0.0000 </r>
       <r>    9.8605    0.0000 </r>
       <r>    9.8671    0.0000 </r>
       <r>    9.8699    0.0000 </r>
       <r>    9.8745    0.0000 </r>
       <r>    9.8786    0.0000 </r>
       <r>    9.8850    0.0000 </r>
       <r>    9.8874    0.0000 </r>
       <r>    9.8900    0.0000 </r>
       <r>    9.8914    0.0000 </r>
       <r>    9.8975    0.0000 </r>
       <r>    9.9051    0.0000 </r>
       <r>    9.9066    0.0000 </r>
       <r>    9.9073    0.0000 </r>
       <r>    9.9130    0.0000 </r>
       <r>    9.9152    0.0000 </r>
       <r>    9.9182    0.0000 </r>
       <r>    9.9206    0.0000 </r>
       <r>    9.9215    0.0000 </r>
       <r>    9.9289    0.0000 </r>
       <r>    9.9298    0.0000 </r>
       <r>    9.9334    0.0000 </r>
       <r>    9.9366    0.0000 </r>
       <r>    9.9422    0.0000 </r>
       <r>    9.9423    0.0000 </r>
       <r>    9.9470    0.0000 </r>
       <r>    9.9481    0.0000 </r>
       <r>    9.9513    0.0000 </r>
       <r>    9.9561    0.0000 </r>
       <r>    9.9573    0.0000 </r>
       <r>    9.9605    0.0000 </r>
       <r>    9.9626    0.0000 </r>
       <r>    9.9701    0.0000 </r>
       <r>    9.9739    0.0000 </r>
       <r>    9.9775    0.0000 </r>
       <r>    9.9804    0.0000 </r>
       <r>    9.9836    0.0000 </r>
       <r>    9.9869    0.0000 </r>
       <r>    9.9895    0.0000 </r>
       <r>    9.9900    0.0000 </r>
       <r>    9.9961    0.0000 </r>
       <r>    9.9991    0.0000 </r>
      </set>
     </set>
    </set>
   </array>
  </eigenvalues>
  <separator name="orbital magnetization" >
   <v name="MAGDIPOLOUT">      0.00000000      0.00000000      0.00000000</v>
  </separator>
 </calculation>
 <structure name="finalpos" >
  <crystal>
   <varray name="basis" >
    <v>      12.96520042       0.00000000       0.00000000 </v>
    <v>       0.00000000      12.96500015       0.00000000 </v>
    <v>       0.00000000       0.00000000      12.96500015 </v>
   </varray>
   <i name="volume">   2179.33647298 </i>
   <varray name="rec_basis" >
    <v>       0.07712954       0.00000000       0.00000000 </v>
    <v>       0.00000000       0.07713074       0.00000000 </v>
    <v>       0.00000000       0.00000000       0.07713074 </v>
   </varray>
  </crystal>
  <varray name="positions" >
   <v>       0.09426713       0.19498038       0.27826509 </v>
   <v>       0.90377321       0.79318782       0.70943047 </v>
   <v>       0.40024633       0.79409505       0.78229455 </v>
   <v>       0.60044267       0.18563119       0.22451998 </v>
   <v>       0.90039450       0.68424633       0.22973006 </v>
   <v>       0.10556185       0.30770737       0.79102647 </v>
   <v>       0.59452772       0.30589372       0.72563226 </v>
   <v>       0.39500930       0.69311415       0.28707613 </v>
   <v>       0.27998742       0.09405066       0.20107441 </v>
   <v>       0.73097005       0.88897095       0.80856743 </v>
   <v>       0.77938573       0.40614615       0.80040723 </v>
   <v>       0.21740330       0.59709595       0.19734933 </v>
   <v>       0.23199302       0.89535418       0.68753803 </v>
   <v>       0.78918687       0.09986023       0.30372518 </v>
   <v>       0.71383816       0.58980980       0.30408294 </v>
   <v>       0.29296553       0.39253810       0.69714390 </v>
   <v>       0.19639312       0.28441248       0.10108826 </v>
   <v>       0.79680827       0.69732591       0.90286549 </v>
   <v>       0.80088019       0.77615039       0.40618460 </v>
   <v>       0.19084919       0.22465788       0.60465153 </v>
   <v>       0.70347980       0.22183033       0.89864510 </v>
   <v>       0.30788556       0.78636590       0.10403806 </v>
   <v>       0.30472199       0.71407319       0.59325945 </v>
   <v>       0.68951182       0.27278019       0.40188500 </v>
   <v>       0.94275599       0.35410901       0.96402309 </v>
   <v>       0.05440192       0.64868293       0.03705640 </v>
   <v>       0.56331567       0.64574701       0.47800835 </v>
   <v>       0.45187866       0.34199185       0.52912180 </v>
   <v>       0.44233030       0.14600247       0.03987954 </v>
   <v>       0.55541393       0.84930759       0.96877766 </v>
   <v>       0.05396116       0.84578543       0.54019312 </v>
   <v>       0.95075390       0.15333698       0.47160892 </v>
   <v>       0.84398612       0.53213282       0.05107672 </v>
   <v>       0.15308104       0.47373927       0.94831587 </v>
   <v>       0.14826032       0.03029551       0.44559102 </v>
   <v>       0.84992910       0.96751297       0.55589355 </v>
   <v>       0.64954371       0.46105824       0.56193829 </v>
   <v>       0.35405058       0.52467559       0.44629111 </v>
   <v>       0.35535618       0.96128770       0.94845663 </v>
   <v>       0.65626906       0.02336238       0.05783322 </v>
   <v>       0.02759860       0.44832346       0.15064281 </v>
   <v>       0.97088383       0.55322915       0.84619449 </v>
   <v>       0.54158824       0.05624828       0.85693688 </v>
   <v>       0.47129851       0.94475999       0.15782711 </v>
   <v>       0.96253484       0.94440737       0.35971601 </v>
   <v>       0.02554438       0.05893158       0.65767466 </v>
   <v>       0.46289568       0.55022872       0.64614479 </v>
   <v>       0.53698085       0.44673855       0.34490667 </v>
   <v>       0.59857414       0.68674084       0.77451163 </v>
   <v>       0.39721493       0.30008476       0.21600236 </v>
   <v>       0.89753852       0.30472114       0.28543846 </v>
   <v>       0.09906488       0.69517433       0.70842929 </v>
   <v>       0.40102838       0.19133063       0.72460690 </v>
   <v>       0.60385443       0.80180399       0.28723154 </v>
   <v>       0.09513636       0.80258749       0.22778946 </v>
   <v>       0.90032754       0.20151931       0.78813878 </v>
   <v>       0.78291122       0.59339721       0.69370222 </v>
   <v>       0.21795453       0.39892249       0.30437455 </v>
   <v>       0.28007058       0.90099825       0.30498022 </v>
   <v>       0.72501676       0.10268334       0.69069629 </v>
   <v>       0.71088019       0.40334039       0.20140407 </v>
   <v>       0.28612003       0.59787497       0.80332701 </v>
   <v>       0.22009084       0.09585788       0.80952915 </v>
   <v>       0.77830376       0.89175946       0.19715076 </v>
   <v>       0.69664037       0.78119169       0.60137219 </v>
   <v>       0.30124257       0.21001511       0.40096253 </v>
   <v>       0.30574071       0.28089088       0.90742315 </v>
   <v>       0.69906640       0.71147535       0.09800041 </v>
   <v>       0.19509944       0.71137415       0.40071122 </v>
   <v>       0.80711969       0.28751271       0.59950540 </v>
   <v>       0.80985788       0.22974548       0.10226654 </v>
   <v>       0.19113556       0.77111912       0.89583072 </v>
   <v>       0.44885371       0.84865675       0.46558989 </v>
   <v>       0.55664930       0.14702155       0.53821708 </v>
   <v>       0.05478247       0.14960916       0.96759986 </v>
   <v>       0.93893306       0.84962821       0.02201682 </v>
   <v>       0.95763281       0.65260573       0.54766768 </v>
   <v>       0.05542897       0.34795439       0.46752475 </v>
   <v>       0.55720871       0.35283965       0.02362035 </v>
   <v>       0.44962529       0.65572026       0.97575956 </v>
   <v>       0.35653122       0.03410164       0.55533178 </v>
   <v>       0.65745375       0.96863776       0.45004585 </v>
   <v>       0.65407996       0.54254174       0.95207933 </v>
   <v>       0.35362486       0.47180215       0.05724035 </v>
   <v>       0.14748759       0.97279697       0.06348165 </v>
   <v>       0.84463971       0.03552868       0.94940526 </v>
   <v>       0.85586168       0.46737549       0.45537789 </v>
   <v>       0.15878670       0.52084297       0.56155839 </v>
   <v>       0.53710917       0.94504400       0.65535296 </v>
   <v>       0.47017932       0.05003156       0.35091263 </v>
   <v>       0.03146606       0.54967297       0.35480042 </v>
   <v>       0.97307169       0.44425755       0.65700079 </v>
   <v>       0.46511778       0.45520830       0.85648592 </v>
   <v>       0.53756886       0.55138463       0.16006091 </v>
   <v>       0.96280237       0.05979467       0.15002818 </v>
   <v>       0.02793553       0.95230715       0.85099100 </v>
   <v>       0.11535596       0.99637776       0.25049420 </v>
   <v>       0.87339775       0.00146745       0.75395109 </v>
   <v>       0.36890306      -0.00194612       0.75434604 </v>
   <v>       0.63202407      -0.00125471       0.25115576 </v>
   <v>       0.87572381       0.49586498       0.25604653 </v>
   <v>       0.13592532       0.49328277       0.75360416 </v>
   <v>       0.61828960       0.49559618       0.74880767 </v>
   <v>       0.37431615       0.49670877       0.25197626 </v>
   <v>       0.25070742       0.11518536       1.00246999 </v>
   <v>       0.75373010       0.87444378       0.00311587 </v>
   <v>       0.74438875       0.36808431       0.00433021 </v>
   <v>       0.24751751       0.63028667       0.00585598 </v>
   <v>       0.25406179       0.88064992       0.50198076 </v>
   <v>       0.75179119       0.12869499       0.50293810 </v>
   <v>       0.74592718       0.61390475       0.50167979 </v>
   <v>       0.25476608       0.36650387       0.50132613 </v>
   <v>       0.99759833       0.24953534       0.12360228 </v>
   <v>       0.00772501       0.75365561       0.88608119 </v>
   <v>       0.99927164       0.75072986       0.37124097 </v>
   <v>       0.00406277       0.24705493       0.63536388 </v>
   <v>       0.50203194       0.24419356       0.88268847 </v>
   <v>       0.49792952       0.75083897       0.13626455 </v>
   <v>       0.49886938       0.74908177       0.62388492 </v>
   <v>       0.50131318       0.24501980       0.36873446 </v>
   <v>      -0.00046355       0.99811627       0.00478328 </v>
   <v>       0.50461924       0.99799166       0.50136499 </v>
   <v>       0.00861962       0.49573231       0.50518207 </v>
   <v>       0.50208682       0.50121732       0.00551501 </v>
   <v>       0.74598422       0.24728027       0.25319412 </v>
   <v>       0.25229233       0.74974810       0.74827464 </v>
   <v>       0.74481335       0.74198413       0.74900423 </v>
   <v>       0.24743045       0.24488452       0.25166966 </v>
   <v>       0.25078779       0.24440475       0.75370250 </v>
   <v>       0.75378945       0.74665058       0.25135434 </v>
   <v>       0.24522361       0.75165040       0.24933600 </v>
   <v>       0.74847212       0.25231474       0.74791350 </v>
   <v>       0.50454662       0.49684117       0.49982753 </v>
   <v>       0.00126635       0.50141932       0.99795272 </v>
   <v>       0.50416445      -0.00042229       0.00608549 </v>
   <v>       0.00183228       0.00399360       0.50825392 </v>
   <v>       0.82757275       0.82642220       0.55507461 </v>
   <v>       0.92457873       0.40106839       0.81427491 </v>
   <v>       0.85024618       0.17850994       0.92904750 </v>
   <v>       0.42616214       0.09750656       0.18766929 </v>
   <v>       0.42797712       0.64729963       0.83031930 </v>
   <v>       0.17432874       0.43183622       0.14594451 </v>
   <v>       0.41651471       0.17681838       0.58141163 </v>
   <v>       0.68306918       0.93115857       0.61605981 </v>
   <v>       0.79475034       0.08871107       0.08426162 </v>
   <v>       0.09003938       0.19585926       0.42191204 </v>
   <v>       0.92856090       0.58219671       0.69642245 </v>
   <v>       0.98982720       0.75993084       0.12666112 </v>
   <v>       0.17521701       0.55851262       0.34741234 </v>
   <v>       0.51792339       0.25400856       0.12525130 </v>
   <v>       0.32074147       0.42646325       0.91068201 </v>
   <v>       0.50778838       0.73056793       0.37315638 </v>
   <v>       0.32225466       0.06301708       0.34982948 </v>
   <v>       0.32403059       0.93555735       0.15685598 </v>
   <v>       0.93330135       0.15128290       0.32324255 </v>
   <v>       0.07227678       0.38098278       0.31939470 </v>
   <v>       0.58982547       0.92226855       0.80505389 </v>
   <v>       0.57426239       0.71458814       0.91401944 </v>
   <v>       0.17624156       0.66094176       0.53836734 </v>
   <v>       0.31997593       0.56885665       0.59388293 </v>
   <v>       0.58840204       0.29521889       0.57995351 </v>
   <v>       0.34254192       0.32411464       0.06985008 </v>
   <v>       0.81666786       0.92729060       0.40694137 </v>
   <v>       0.43678978       0.33536404       0.67581842 </v>
   <v>       0.41115711       0.81904036       0.92532885 </v>
   <v>       0.68621375       0.08191849       0.91712068 </v>
   <v>       0.12400833       0.97384580       0.73420278 </v>
   <v>       0.82460279       0.55154041       0.83537853 </v>
   <v>       0.07174262       0.59683009       0.18454079 </v>
   <v>       0.33771007       0.66879361       0.43131683 </v>
   <v>       0.24162898       0.11952217       0.51818549 </v>
   <v>       0.58014502       0.09477944       0.69534238 </v>
   <v>       0.82518373       0.43162556       0.64575298 </v>
   <v>       0.74256716       0.37513003       0.48766874 </v>
   <v>       0.87831703       0.98626784       0.24132867 </v>
   <v>       0.42666271       0.90233595       0.31832936 </v>
   <v>       0.37665087       0.49605643       0.74950092 </v>
   <v>       0.23237241       0.87393945       0.99434261 </v>
   <v>       0.65489824       0.82411190       0.43790222 </v>
   <v>       0.07697331       0.09988432       0.82995850 </v>
   <v>       0.16953029       0.32957176       0.95532816 </v>
   <v>       0.00581933       0.25536111       0.88062716 </v>
   <v>       0.91337093       0.31063872       0.42902391 </v>
   <v>       0.62508196       0.49786419       0.25241633 </v>
   <v>       1.00656098       0.75391918       0.62827937 </v>
   <v>       0.75092622       0.62194425       0.00957721 </v>
  </varray>
 </structure>
</modeling>
