unknown system                          
           1
    12.965200    0.000000    0.000000
     0.000000   12.965000    0.000000
     0.000000    0.000000   12.965000
   O    La   Zr   Li   Al
  96  24  16  47   3
Direct configuration=     1
   0.09692844  0.19983115  0.27846787
   0.89944619  0.79779341  0.70851663
   0.39875876  0.80342144  0.78307435
   0.60065719  0.18931117  0.22605985
   0.89488729  0.68581220  0.22995191
   0.10172565  0.31393591  0.78265895
   0.59649866  0.31242014  0.72437678
   0.39245000  0.69016125  0.28194068
   0.28663347  0.09521616  0.20918392
   0.72408653  0.89388758  0.80345276
   0.77965669  0.40536646  0.80626363
   0.22087223  0.59733780  0.19085091
   0.22503285  0.90391735  0.69341443
   0.78797013  0.09889298  0.30203952
   0.71105385  0.59136590  0.30243333
   0.29231861  0.40003727  0.69779682
   0.20191857  0.28144880  0.10138362
   0.79639050  0.70060332  0.90418406
   0.79877261  0.78057710  0.40439416
   0.18696558  0.22720896  0.60723658
   0.69965808  0.22177748  0.89826366
   0.30463107  0.78443312  0.10208552
   0.29693983  0.71731646  0.59590545
   0.69475929  0.27514747  0.40314759
   0.94282329  0.34869263  0.96665773
   0.05119839  0.64677846  0.03090929
   0.56040266  0.65018602  0.47612286
   0.45280391  0.34645963  0.53180354
   0.43660666  0.14810049  0.03023248
   0.55334558  0.84789237  0.96832829
   0.05137559  0.84790688  0.54747645
   0.95414104  0.15226948  0.46703706
   0.84277164  0.53071771  0.04801104
   0.15239885  0.47644488  0.94230392
   0.15147792  0.03297413  0.44635713
   0.84939427  0.97092782  0.55093165
   0.64917844  0.46512524  0.56089963
   0.35258648  0.52063227  0.44242708
   0.35162538  0.95745916  0.95624941
   0.65354828  0.02339464  0.05978202
   0.03263850  0.44257703  0.14781741
   0.97094851  0.55174931  0.84563829
   0.53637549  0.05375773  0.85686380
   0.46803323  0.94353230  0.15315577
   0.96498557  0.94806009  0.35538559
   0.02807064  0.05115417  0.65686094
   0.46457883  0.55744102  0.64715139
   0.53612563  0.44844894  0.34627184
   0.59554983  0.69827391  0.78009180
   0.40427087  0.29683894  0.21614282
   0.89739090  0.31121192  0.27860361
   0.09481557  0.69974979  0.70469122
   0.39900855  0.19940137  0.72064009
   0.60074872  0.80340145  0.28879884
   0.09388741  0.80369193  0.22576932
   0.89925442  0.20536215  0.78922611
   0.78197631  0.59393636  0.69923157
   0.21724389  0.40087001  0.29861437
   0.27408704  0.89626098  0.30982156
   0.72818417  0.10301668  0.69017523
   0.70164589  0.40141153  0.19878665
   0.28949813  0.60179535  0.79032126
   0.23303987  0.10477241  0.81605438
   0.77392036  0.89218084  0.19411610
   0.69646740  0.78014440  0.60053422
   0.29759009  0.21886060  0.40526277
   0.31071380  0.28771730  0.90344827
   0.69578918  0.71172602  0.09760832
   0.18812123  0.71170831  0.40254032
   0.80841614  0.29122424  0.60362376
   0.80818437  0.22830399  0.10123936
   0.18795905  0.76690566  0.89520115
   0.44477643  0.85087404  0.47575418
   0.55786269  0.15100966  0.52985284
   0.05706973  0.14498367  0.97313463
   0.93757691  0.84909229  0.02472863
   0.95042558  0.65289341  0.54464260
   0.05528413  0.34906142  0.46629315
   0.55171416  0.35434711  0.02270115
   0.44448998  0.65553972  0.97425404
   0.35717089  0.03763045  0.55635039
   0.65584859  0.96989749  0.44759426
   0.65088173  0.54715486  0.95191458
   0.35010644  0.46616812  0.05020342
   0.15134811  0.97177465  0.06195521
   0.84602502  0.03653827  0.94975803
   0.85280016  0.47613555  0.44675000
   0.15588386  0.52903203  0.54680105
   0.53900778  0.94289999  0.65350150
   0.46730682  0.05720156  0.35335302
   0.03064248  0.55171659  0.35081827
   0.97278274  0.44777365  0.65264456
   0.46953046  0.45569965  0.85318431
   0.53383134  0.55012014  0.15899687
   0.96371984  0.05648912  0.14970380
   0.02775441  0.94047631  0.84876292
   0.12537381  0.99427269  0.24712175
   0.87386315  0.00665297  0.75847214
   0.37184153  0.00372196  0.75043577
   0.62730958  0.00071198  0.25032960
   0.87323872  0.49774531  0.25392487
   0.13126074  0.49468355  0.75487086
   0.61956148  0.49791102  0.74945997
   0.37108870  0.50201771  0.25474706
   0.24815553  0.12168211  0.99944595
   0.75258837  0.87539027  0.00421000
   0.74254740  0.36741840  0.00396521
   0.24552018  0.62926126  0.00660537
   0.25822564  0.87985932  0.49713279
   0.74907991  0.12976784  0.50316651
   0.74411302  0.61529293  0.50072968
   0.25484872  0.36974171  0.50378542
   0.99850940  0.24917873  0.12120786
   0.00239714  0.75052543  0.88771215
   0.99798407  0.74985045  0.36643714
   0.00312788  0.24933800  0.63482677
   0.50286317  0.24332856  0.87850690
   0.49500172  0.75303746  0.14107345
   0.49893056  0.75165792  0.62178927
   0.50468127  0.24828668  0.37483656
   0.00306565  0.99702986  0.00236888
   0.50560500  0.99953437  0.50047569
   0.00278637  0.49424570  0.50131491
   0.49808958  0.50361736  0.00467559
   0.74934088  0.24658773  0.25457388
   0.25079865  0.75750902  0.75065376
   0.74380939  0.74488576  0.74973406
   0.25061593  0.24633912  0.25154912
   0.24998586  0.25097828  0.75501247
   0.74865748  0.74802518  0.25222587
   0.24416951  0.74941247  0.24890123
   0.74634282  0.25247386  0.74788455
   0.50295251  0.50161076  0.49998952
   0.00247883  0.49928496  0.99802074
   0.50141417  0.00128286  0.00506827
   0.00038077  0.00539848  0.50414635
   0.82404261  0.83074722  0.54936940
   0.92258473  0.37888889  0.82544295
   0.85362720  0.18262264  0.93244707
   0.43359360  0.14394478  0.17615459
   0.43086581  0.65629702  0.82652779
   0.18268245  0.42425126  0.14512619
   0.42212026  0.17936646  0.58193848
   0.68573711  0.92825666  0.61890824
   0.80589250  0.08513130  0.09513580
   0.10769642  0.18340682  0.42102492
   0.92793671  0.58040481  0.70099195
   0.99048218  0.74788063  0.12614223
   0.17254382  0.56056645  0.38459133
   0.54698068  0.30108612  0.15304368
   0.33060939  0.42923412  0.89347437
   0.49118839  0.74461202  0.37677107
   0.31906318  0.08084142  0.37315798
   0.32270665  0.92874032  0.10924743
   0.93502877  0.11943882  0.31489868
   0.07457785  0.36600364  0.31704987
   0.57246889  0.87493999  0.82117383
   0.57698923  0.70580047  0.92499300
   0.15924892  0.67093225  0.55841875
   0.31509964  0.57734129  0.63051153
   0.58956891  0.29919152  0.58022625
   0.37776160  0.31565632  0.06794650
   0.81520543  0.93247380  0.39978572
   0.43810390  0.33696752  0.67594004
   0.40681482  0.81670812  0.93124079
   0.69072608  0.08558398  0.93196338
   0.08448009  0.91492851  0.68661329
   0.82649162  0.54887869  0.83924251
   0.08935150  0.55648234  0.21709612
   0.30720703  0.65242128  0.46194339
   0.23598278  0.11458257  0.53831814
   0.60735549  0.04489350  0.73415722
   0.82563532  0.43493484  0.66040794
   0.75251049  0.37608030  0.49125793
   0.89028652  0.96298039  0.22808825
   0.39490645  0.96204092  0.27330272
   0.38449120  0.49752678  0.74915970
   0.22270659  0.87548916  0.98041037
   0.65158779  0.82362865  0.43853597
   0.11620006  0.03918593  0.78373699
   0.20721005  0.35169943  0.97912545
   0.02176738  0.24098147  0.87720959
   0.93375210  0.28766037  0.41296541
   0.62202954  0.50016703  0.25281037
   0.99625866  0.75103705  0.62636114
   0.75018626  0.62305504  0.00997178
Direct configuration=     2
   0.09701125  0.19950801  0.27844112
   0.89949680  0.79767666  0.70869817
   0.39865265  0.80331520  0.78314040
   0.60070685  0.18923336  0.22605203
   0.89514534  0.68582079  0.22998225
   0.10178253  0.31400449  0.78277613
   0.59642341  0.31246691  0.72450358
   0.39244257  0.69022421  0.28228164
   0.28675940  0.09514629  0.20906107
   0.72418801  0.89376428  0.80370667
   0.77962991  0.40547107  0.80602278
   0.22088234  0.59727653  0.19105267
   0.22522368  0.90374006  0.69316557
   0.78787317  0.09880991  0.30224647
   0.71125255  0.59117659  0.30232528
   0.29230019  0.39997859  0.69766372
   0.20191120  0.28156535  0.10142677
   0.79645555  0.70055012  0.90420379
   0.79882135  0.78044018  0.40436383
   0.18718902  0.22715419  0.60731042
   0.69979224  0.22184517  0.89829696
   0.30470517  0.78437138  0.10217516
   0.29732597  0.71738627  0.59575785
   0.69484485  0.27519055  0.40297353
   0.94281900  0.34881950  0.96653192
   0.05130944  0.64679240  0.03122536
   0.56040401  0.65016013  0.47599327
   0.45284619  0.34642630  0.53175782
   0.43672037  0.14803195  0.03030597
   0.55340055  0.84785111  0.96832067
   0.05125671  0.84788979  0.54760794
   0.95394448  0.15231271  0.46716169
   0.84277355  0.53084495  0.04819542
   0.15238449  0.47655786  0.94238783
   0.15136665  0.03299162  0.44646202
   0.84929913  0.97077809  0.55102177
   0.64914824  0.46509004  0.56086050
   0.35252245  0.52096848  0.44260359
   0.35164468  0.95743079  0.95638137
   0.65363241  0.02337985  0.05972327
   0.03254767  0.44269117  0.14791543
   0.97080685  0.55176755  0.84562520
   0.53647886  0.05366025  0.85692749
   0.46814824  0.94340382  0.15324548
   0.96491325  0.94797913  0.35544774
   0.02800859  0.05127341  0.65691791
   0.46455470  0.55738111  0.64712410
   0.53617082  0.44851166  0.34621140
   0.59557482  0.69814625  0.78002419
   0.40424023  0.29686777  0.21615049
   0.89748844  0.31104661  0.27866737
   0.09506020  0.69962604  0.70468834
   0.39908899  0.19941678  0.72092597
   0.60091951  0.80314340  0.28858246
   0.09408640  0.80369087  0.22595412
   0.89929157  0.20548263  0.78910696
   0.78188957  0.59404164  0.69892764
   0.21732505  0.40070438  0.29883382
   0.27404017  0.89636669  0.30983040
   0.72819355  0.10308394  0.69023820
   0.70171666  0.40123697  0.19877068
   0.28929622  0.60177236  0.79026716
   0.23297796  0.10473266  0.81611038
   0.77374975  0.89220720  0.19424191
   0.69646407  0.78011339  0.60059435
   0.29776928  0.21882907  0.40524343
   0.31060819  0.28774760  0.90363652
   0.69585059  0.71171183  0.09755671
   0.18831040  0.71168251  0.40270489
   0.80818389  0.29104677  0.60337177
   0.80833777  0.22825037  0.10123466
   0.18788581  0.76690566  0.89518710
   0.44495607  0.85085627  0.47558705
   0.55806839  0.15098782  0.52988078
   0.05699979  0.14508619  0.97313689
   0.93761901  0.84911200  0.02490261
   0.95044252  0.65294541  0.54460081
   0.05524245  0.34886982  0.46633489
   0.55193998  0.35445403  0.02260251
   0.44460267  0.65564676  0.97433440
   0.35727833  0.03773994  0.55634440
   0.65586499  0.96968178  0.44767369
   0.65103607  0.54713224  0.95184026
   0.35029325  0.46639121  0.05031513
   0.15127333  0.97180407  0.06196338
   0.84605304  0.03653325  0.94967139
   0.85275357  0.47588399  0.44691271
   0.15569119  0.52870854  0.54735230
   0.53894921  0.94292258  0.65360950
   0.46736662  0.05715095  0.35342506
   0.03070388  0.55161502  0.35089931
   0.97262220  0.44754887  0.65268986
   0.46939231  0.45596324  0.85324043
   0.53390176  0.55013320  0.15901079
   0.96360724  0.05644942  0.14973022
   0.02765702  0.94044386  0.84878972
   0.12531830  0.99439803  0.24724325
   0.87369292  0.00650128  0.75830626
   0.37175493  0.00361835  0.75053979
   0.62728878  0.00063270  0.25037381
   0.87332164  0.49762332  0.25406153
   0.13128316  0.49476294  0.75472198
   0.61952255  0.49793640  0.74934924
   0.37111423  0.50189359  0.25478861
   0.24822710  0.12159434  0.99950735
   0.75257946  0.87541526  0.00424514
   0.74261701  0.36738925  0.00402140
   0.24548395  0.62925393  0.00673992
   0.25821682  0.87994520  0.49722624
   0.74908933  0.12980326  0.50322273
   0.74411074  0.61536876  0.50070284
   0.25488399  0.36967578  0.50377862
   0.99853848  0.24914328  0.12129567
   0.00232768  0.75055604  0.88781097
   0.99797978  0.74990010  0.36661745
   0.00317109  0.24916378  0.63489472
   0.50286303  0.24332596  0.87858765
   0.49502420  0.75293505  0.14099824
   0.49892323  0.75164184  0.62172760
   0.50472095  0.24826929  0.37487054
   0.00301128  0.99714752  0.00238655
   0.50563355  0.99956457  0.50052842
   0.00280728  0.49417009  0.50128171
   0.49819245  0.50362290  0.00465511
   0.74930665  0.24643861  0.25458677
   0.25086201  0.75743646  0.75044035
   0.74384411  0.74490147  0.74974287
   0.25066509  0.24630781  0.25161970
   0.25005519  0.25095916  0.75510671
   0.74879594  0.74791381  0.25213537
   0.24419896  0.74949079  0.24908889
   0.74635142  0.25253655  0.74786733
   0.50288587  0.50155569  0.49991925
   0.00239377  0.49925603  0.99808222
   0.50151145  0.00126972  0.00510013
   0.00031139  0.00527169  0.50419113
   0.82391127  0.83060684  0.54923255
   0.92272577  0.37921325  0.82507371
   0.85376197  0.18259918  0.93240932
   0.43341729  0.14359949  0.17620326
   0.43078336  0.65625369  0.82662506
   0.18247378  0.42446119  0.14537834
   0.42206821  0.17939685  0.58212699
   0.68542606  0.92810192  0.61854087
   0.80588523  0.08511062  0.09508209
   0.10730213  0.18361961  0.42111954
   0.92765465  0.58014121  0.70062409
   0.99077934  0.74813250  0.12609699
   0.17280150  0.56064132  0.38458557
   0.54676040  0.30066650  0.15275610
   0.33052672  0.42927336  0.89418099
   0.49119055  0.74437155  0.37658003
   0.31921734  0.08083113  0.37337381
   0.32275386  0.92875263  0.10952590
   0.93485215  0.11948577  0.31506525
   0.07449673  0.36623027  0.31701273
   0.57265898  0.87525803  0.82115706
   0.57706558  0.70585647  0.92482218
   0.15958282  0.67071209  0.55777400
   0.31508264  0.57717117  0.62967375
   0.58972313  0.29934960  0.58034694
   0.37718882  0.31578037  0.06802186
   0.81497307  0.93253875  0.39979818
   0.43808779  0.33705838  0.67593612
   0.40690118  0.81677519  0.93115077
   0.69079974  0.08560302  0.93186073
   0.08469323  0.91503591  0.68667615
   0.82638103  0.54871628  0.83920335
   0.08878462  0.55757943  0.21653833
   0.30872847  0.65353336  0.46083383
   0.23597300  0.11452354  0.53823180
   0.60721434  0.04522064  0.73398367
   0.82573243  0.43470499  0.65985316
   0.75210063  0.37615992  0.49086285
   0.89013450  0.96292975  0.22818923
   0.39487492  0.96204338  0.27337553
   0.38424173  0.49756952  0.74918212
   0.22271436  0.87548545  0.98051861
   0.65174636  0.82376801  0.43807502
   0.11572197  0.03966152  0.78406445
   0.20626051  0.35124713  0.97871240
   0.02159352  0.24131929  0.87735785
   0.93329537  0.28795081  0.41329091
   0.62199426  0.50001325  0.25283907
   0.99617960  0.75106471  0.62610591
   0.75032208  0.62296699  0.01002619
Direct configuration=     3
   0.09710657  0.19920237  0.27840303
   0.89959808  0.79755498  0.70876750
   0.39865131  0.80326807  0.78318646
   0.60071744  0.18913316  0.22604559
   0.89541023  0.68582958  0.23004363
   0.10185944  0.31401755  0.78289317
   0.59634565  0.31248509  0.72461162
   0.39239041  0.69023625  0.28263218
   0.28686761  0.09509508  0.20896210
   0.72428237  0.89368365  0.80394301
   0.77961955  0.40553094  0.80578992
   0.22089095  0.59722411  0.19129029
   0.22539185  0.90367901  0.69286560
   0.78778682  0.09869188  0.30244316
   0.71141417  0.59099918  0.30222998
   0.29230172  0.39987308  0.69751840
   0.20191702  0.28166851  0.10149431
   0.79651114  0.70050726  0.90421291
   0.79887784  0.78034138  0.40435649
   0.18737531  0.22708571  0.60736584
   0.69990055  0.22189000  0.89830839
   0.30475960  0.78432596  0.10232718
   0.29768563  0.71745401  0.59553628
   0.69486569  0.27521468  0.40284025
   0.94282982  0.34891350  0.96643627
   0.05138498  0.64675328  0.03152485
   0.56038793  0.65009872  0.47588895
   0.45287541  0.34638672  0.53170454
   0.43682309  0.14799098  0.03038243
   0.55346194  0.84785607  0.96831567
   0.05122287  0.84803254  0.54758186
   0.95378936  0.15225137  0.46728288
   0.84288673  0.53083125  0.04841732
   0.15235881  0.47663388  0.94250003
   0.15125158  0.03298861  0.44657391
   0.84923924  0.97064367  0.55110559
   0.64909123  0.46504669  0.56079168
   0.35242994  0.52123654  0.44277234
   0.35167267  0.95743355  0.95649453
   0.65370669  0.02338734  0.05969546
   0.03246989  0.44278873  0.14803574
   0.97069742  0.55176502  0.84565285
   0.53657940  0.05358483  0.85695962
   0.46824955  0.94331644  0.15333309
   0.96484595  0.94789787  0.35553130
   0.02795545  0.05133978  0.65693376
   0.46454051  0.55730228  0.64704273
   0.53610794  0.44848668  0.34626279
   0.59559687  0.69805206  0.77993966
   0.40422905  0.29688196  0.21615871
   0.89757702  0.31088236  0.27872901
   0.09501813  0.69965330  0.70443900
   0.39918913  0.19941121  0.72115102
   0.60103871  0.80291453  0.28844206
   0.09419418  0.80368803  0.22614555
   0.89931751  0.20558833  0.78900702
   0.78180496  0.59411071  0.69865669
   0.21741845  0.40054411  0.29905712
   0.27400537  0.89648229  0.30987956
   0.72818937  0.10311324  0.69029730
   0.70175529  0.40111512  0.19879063
   0.28914446  0.60174369  0.79021242
   0.23292634  0.10466628  0.81616268
   0.77363769  0.89223157  0.19436464
   0.69645605  0.78010994  0.60059765
   0.29795211  0.21878776  0.40523784
   0.31051422  0.28775386  0.90382192
   0.69593339  0.71170866  0.09753720
   0.18846779  0.71167118  0.40288494
   0.80795298  0.29088383  0.60314691
   0.80847988  0.22818875  0.10124233
   0.18786614  0.76691646  0.89512867
   0.44507219  0.85086569  0.47544317
   0.55822056  0.15099163  0.52991349
   0.05694765  0.14520625  0.97312416
   0.93765407  0.84917214  0.02506337
   0.95040666  0.65287837  0.54444658
   0.05520708  0.34873531  0.46635245
   0.55214810  0.35449889  0.02251647
   0.44471533  0.65572814  0.97441009
   0.35733808  0.03783307  0.55633987
   0.65588260  0.96951956  0.44775394
   0.65117933  0.54708628  0.95178285
   0.35044879  0.46656743  0.05046916
   0.15121294  0.97185429  0.06199955
   0.84606959  0.03654483  0.94958990
   0.85274082  0.47567857  0.44705467
   0.15551493  0.52840154  0.54781533
   0.53889211  0.94295020  0.65369188
   0.46741501  0.05712924  0.35347835
   0.03079971  0.55153638  0.35097535
   0.97247777  0.44734188  0.65267463
   0.46924628  0.45618268  0.85329785
   0.53396314  0.55014327  0.15907013
   0.96349791  0.05641953  0.14977255
   0.02756671  0.94045927  0.84880742
   0.12527491  0.99451860  0.24730498
   0.87355545  0.00634208  0.75821127
   0.37168170  0.00351023  0.75065720
   0.62726457  0.00053419  0.25039296
   0.87334073  0.49748662  0.25415511
   0.13131027  0.49490453  0.75460003
   0.61949124  0.49799480  0.74928311
   0.37112134  0.50181694  0.25475536
   0.24828908  0.12150178  0.99958578
   0.75259315  0.87538100  0.00425075
   0.74268166  0.36739199  0.00405557
   0.24543779  0.62930467  0.00679481
   0.25825366  0.88002432  0.49733153
   0.74912598  0.12984725  0.50327987
   0.74406062  0.61538731  0.50070408
   0.25487085  0.36961226  0.50381508
   0.99854321  0.24911567  0.12140168
   0.00233425  0.75054143  0.88783965
   0.99796023  0.74993504  0.36669525
   0.00322413  0.24904664  0.63496705
   0.50288225  0.24335468  0.87867800
   0.49505346  0.75283133  0.14089977
   0.49893881  0.75159060  0.62172015
   0.50476972  0.24823328  0.37487023
   0.00293379  0.99715763  0.00237396
   0.50566691  0.99953006  0.50056990
   0.00285429  0.49400420  0.50135025
   0.49834359  0.50373046  0.00461847
   0.74933022  0.24637136  0.25452403
   0.25076783  0.75717503  0.75042796
   0.74387615  0.74482028  0.74979844
   0.25067082  0.24625628  0.25165317
   0.25007295  0.25104286  0.75518324
   0.74891162  0.74776078  0.25197270
   0.24428198  0.74953052  0.24914107
   0.74639336  0.25265800  0.74788003
   0.50290248  0.50158902  0.49995771
   0.00235996  0.49934511  0.99804190
   0.50159668  0.00119153  0.00514489
   0.00018372  0.00528519  0.50424822
   0.82377168  0.83049191  0.54911205
   0.92284977  0.37955337  0.82472603
   0.85388074  0.18257931  0.93235877
   0.43324778  0.14327922  0.17625505
   0.43069613  0.65619139  0.82671656
   0.18227617  0.42466471  0.14561754
   0.42205276  0.17941970  0.58230160
   0.68515371  0.92795554  0.61817954
   0.80588077  0.08509016  0.09501539
   0.10690269  0.18383032  0.42119992
   0.92741504  0.57993419  0.70033846
   0.99104683  0.74837289  0.12608072
   0.17306472  0.56070227  0.38456691
   0.54654313  0.30025041  0.15245963
   0.33043921  0.42933343  0.89484805
   0.49129709  0.74419941  0.37642879
   0.31936903  0.08081908  0.37356915
   0.32280008  0.92874850  0.10977289
   0.93468974  0.11955389  0.31522849
   0.07442051  0.36645690  0.31699362
   0.57284223  0.87557253  0.82114929
   0.57714231  0.70589966  0.92467490
   0.15996298  0.67050009  0.55719554
   0.31506235  0.57700036  0.62885622
   0.58986936  0.29950397  0.58046228
   0.37659697  0.31592158  0.06808264
   0.81476384  0.93259805  0.39981305
   0.43806847  0.33715520  0.67595354
   0.40697639  0.81681640  0.93107836
   0.69087355  0.08561492  0.93176146
   0.08488939  0.91513712  0.68677855
   0.82627507  0.54859505  0.83913100
   0.08823194  0.55865109  0.21597497
   0.31020241  0.65461386  0.45975962
   0.23595675  0.11449865  0.53816764
   0.60705968  0.04553926  0.73380800
   0.82575750  0.43446737  0.65932193
   0.75173488  0.37623660  0.49053380
   0.89000940  0.96289863  0.22826878
   0.39487049  0.96203788  0.27344196
   0.38398333  0.49762767  0.74920732
   0.22272022  0.87544893  0.98060720
   0.65184006  0.82383971  0.43765008
   0.11523228  0.04013538  0.78439984
   0.20530674  0.35080669  0.97829504
   0.02143112  0.24163774  0.87748398
   0.93284012  0.28822658  0.41361338
   0.62215171  0.49993128  0.25271849
   0.99633962  0.75091016  0.62644738
   0.75033817  0.62301401  0.00999817
Direct configuration=     4
   0.09757812  0.19753033  0.27817365
   0.89993046  0.79689216  0.70949895
   0.39836706  0.80283417  0.78344399
   0.60086537  0.18856990  0.22595390
   0.89669404  0.68582594  0.23024390
   0.10225882  0.31422082  0.78354842
   0.59598749  0.31267700  0.72521313
   0.39213189  0.69026063  0.28450595
   0.28742380  0.09479787  0.20839795
   0.72483485  0.89308614  0.80523230
   0.77962548  0.40593797  0.80453807
   0.22089876  0.59698606  0.19242349
   0.22635359  0.90296060  0.69143060
   0.78732425  0.09814524  0.30344061
   0.71235162  0.59016228  0.30171053
   0.29228039  0.39942752  0.69678947
   0.20193558  0.28226102  0.10179281
   0.79687147  0.70027643  0.90422642
   0.79904254  0.77976589  0.40415292
   0.18823246  0.22676706  0.60774919
   0.70049439  0.22215788  0.89838994
   0.30509160  0.78406201  0.10297611
   0.29955371  0.71773677  0.59458137
   0.69498203  0.27533116  0.40205691
   0.94292355  0.34946772  0.96586031
   0.05185984  0.64671288  0.03303604
   0.56032217  0.64986520  0.47537348
   0.45301577  0.34621832  0.53150513
   0.43739846  0.14770416  0.03077269
   0.55382488  0.84778370  0.96830571
   0.05079780  0.84823444  0.54795119
   0.95288507  0.15220972  0.46786980
   0.84311332  0.53106751  0.04945799
   0.15232004  0.47711645  0.94300860
   0.15062871  0.03305156  0.44715264
   0.84882071  0.96999400  0.55163343
   0.64887165  0.46479511  0.56052437
   0.35188256  0.52267520  0.44375309
   0.35181708  0.95735434  0.95712484
   0.65413304  0.02337498  0.05954749
   0.03202774  0.44337594  0.14856508
   0.97016501  0.55187343  0.84566884
   0.53713048  0.05314266  0.85721822
   0.46876960  0.94280031  0.15376969
   0.96445081  0.94752594  0.35589795
   0.02763543  0.05175633  0.65719164
   0.46443200  0.55691002  0.64684096
   0.53607932  0.44853788  0.34617251
   0.59576078  0.69749094  0.77955655
   0.40413497  0.29692767  0.21613055
   0.89803752  0.30997509  0.27906752
   0.09572817  0.69932190  0.70398105
   0.39965353  0.19942883  0.72238059
   0.60163446  0.80161294  0.28767325
   0.09477408  0.80364433  0.22700338
   0.89949065  0.20619363  0.78848819
   0.78136176  0.59442605  0.69733004
   0.21795109  0.39965668  0.30025778
   0.27384506  0.89703857  0.31006046
   0.72821774  0.10330706  0.69068821
   0.70210284  0.40039367  0.19878918
   0.28828314  0.60162321  0.78997118
   0.23265782  0.10440501  0.81643644
   0.77309627  0.89220891  0.19492678
   0.69641392  0.78001061  0.60076413
   0.29891102  0.21857449  0.40519541
   0.30996412  0.28785425  0.90481270
   0.69632635  0.71168614  0.09736291
   0.18938266  0.71161720  0.40375294
   0.80672017  0.29008758  0.60197108
   0.80921112  0.22791602  0.10125571
   0.18766152  0.76694084  0.89489556
   0.44572271  0.85082915  0.47470329
   0.55898436  0.15095056  0.53011571
   0.05664267  0.14575097  0.97304996
   0.93787396  0.84934302  0.02578535
   0.95042252  0.65284534  0.54416949
   0.05502955  0.34785740  0.46643156
   0.55331570  0.35491184  0.02201018
   0.44530840  0.65621459  0.97477149
   0.35769769  0.03830124  0.55631356
   0.65597605  0.96864208  0.44819309
   0.65197893  0.54690902  0.95145681
   0.35136810  0.46766112  0.05128181
   0.15087124  0.97205725  0.06212631
   0.84614929  0.03656835  0.94919261
   0.85262759  0.47452347  0.44780185
   0.15461333  0.52675921  0.55049865
   0.53861244  0.94303823  0.65413067
   0.46769431  0.05697602  0.35371968
   0.03131726  0.55104149  0.35138413
   0.97170878  0.44622016  0.65282357
   0.46843567  0.45743296  0.85362366
   0.53434007  0.55030182  0.15928028
   0.96290499  0.05625270  0.14989046
   0.02712050  0.94041137  0.84892024
   0.12502728  0.99513212  0.24780624
   0.87275257  0.00556877  0.75759285
   0.37121256  0.00298140  0.75120731
   0.62716778  0.00010910  0.25057200
   0.87364455  0.49674987  0.25471425
   0.13144430  0.49540245  0.75384556
   0.61924416  0.49817415  0.74889132
   0.37121188  0.50124456  0.25474106
   0.24863181  0.12104424  0.99999216
   0.75266094  0.87540460  0.00429421
   0.74309185  0.36732715  0.00422174
   0.24526381  0.62940442  0.00732653
   0.25824943  0.88052756  0.49793147
   0.74923907  0.13005620  0.50357815
   0.74395918  0.61551691  0.50062947
   0.25495240  0.36920782  0.50384154
   0.99861374  0.24896968  0.12197024
   0.00223465  0.75062274  0.88813917
   0.99791916  0.75017323  0.36746530
   0.00354374  0.24832243  0.63534153
   0.50294870  0.24341795  0.87916696
   0.49521531  0.75233748  0.14057207
   0.49894071  0.75145131  0.62165228
   0.50498476  0.24810577  0.37490093
   0.00258541  0.99746737  0.00244024
   0.50577475  0.99948319  0.50078223
   0.00305242  0.49341934  0.50141966
   0.49905671  0.50401768  0.00456557
   0.74930259  0.24579702  0.25432975
   0.25079976  0.75635655  0.74974948
   0.74399792  0.74460003  0.74980732
   0.25081107  0.24601655  0.25198379
   0.25035419  0.25119121  0.75561241
   0.74972028  0.74705945  0.25139832
   0.24452533  0.74985452  0.24979833
   0.74655606  0.25309518  0.74788393
   0.50273678  0.50147496  0.49983637
   0.00207140  0.49946153  0.99815204
   0.50207182  0.00101636  0.00533613
  -0.00028848  0.00493764  0.50451825
   0.82316675  0.82986126  0.54844582
   0.92350989  0.38142325  0.82288252
   0.85452544  0.18248504  0.93205701
   0.43232647  0.14158059  0.17656791
   0.43025198  0.65584992  0.82718166
   0.18118889  0.42576002  0.14696802
   0.42205369  0.17952256  0.58320367
   0.68372954  0.92720014  0.61617197
   0.80585716  0.08495732  0.09464153
   0.10471450  0.18494803  0.42160211
   0.92609070  0.57880335  0.69880597
   0.99246238  0.74971015  0.12611548
   0.17453409  0.56104617  0.38442834
   0.54527608  0.29789065  0.15083550
   0.32995840  0.42961732  0.89854232
   0.49205806  0.74338356  0.37566650
   0.32018974  0.08074527  0.37464237
   0.32305058  0.92875938  0.11111238
   0.93381802  0.11992258  0.31612367
   0.07403617  0.36778257  0.31691058
   0.57383754  0.87737963  0.82108504
   0.57751820  0.70618940  0.92385488
   0.16216264  0.66939709  0.55389242
   0.31498485  0.57606030  0.62417511
   0.59060967  0.30031512  0.58103415
   0.37325306  0.31671875  0.06842668
   0.81368234  0.93290443  0.39990313
   0.43797795  0.33764508  0.67602606
   0.40740790  0.81705813  0.93066749
   0.69124895  0.08565490  0.93120802
   0.08597293  0.91581495  0.68725792
   0.82568968  0.54795031  0.83867648
   0.08515170  0.56453711  0.21290403
   0.31828018  0.66050693  0.45378192
   0.23586357  0.11436912  0.53781348
   0.60615690  0.04731998  0.73278651
   0.82575130  0.43313341  0.65637563
   0.74978280  0.37663376  0.48879720
   0.88939505  0.96278819  0.22875421
   0.39486987  0.96200403  0.27385504
   0.38259232  0.49790631  0.74929720
   0.22276696  0.87532933  0.98111665
   0.65228360  0.82413323  0.43536902
   0.11253766  0.04283294  0.78624074
   0.19999739  0.34828125  0.97600264
   0.02052589  0.24334005  0.87818083
   0.93029935  0.28971380  0.41540648
   0.62239596  0.49927987  0.25253138
   0.99665120  0.75058536  0.62626001
   0.75082003  0.62280603  0.01000797
Direct configuration=     5
   0.09776928  0.19681272  0.27807273
   0.90024125  0.79647086  0.70961295
   0.39831278  0.80264759  0.78352517
   0.60093432  0.18827107  0.22584785
   0.89719948  0.68571640  0.23029630
   0.10249882  0.31427359  0.78392178
   0.59590036  0.31277110  0.72543375
   0.39196127  0.69014436  0.28544834
   0.28757301  0.09467665  0.20817320
   0.72507668  0.89277088  0.80572306
   0.77970033  0.40605876  0.80401944
   0.22075949  0.59693419  0.19288892
   0.22675458  0.90263890  0.69083622
   0.78716905  0.09794068  0.30374690
   0.71263448  0.58982062  0.30153279
   0.29230362  0.39918826  0.69650576
   0.20193897  0.28255850  0.10193565
   0.79705445  0.70013196  0.90420653
   0.79904060  0.77957792  0.40404522
   0.18836924  0.22663655  0.60794745
   0.70070639  0.22222785  0.89840753
   0.30523077  0.78397538  0.10329164
   0.30025818  0.71784445  0.59421729
   0.69488556  0.27531060  0.40174836
   0.94305354  0.34968350  0.96567352
   0.05204373  0.64670724  0.03361935
   0.56028788  0.64977634  0.47523503
   0.45304041  0.34617274  0.53145722
   0.43764082  0.14759116  0.03093349
   0.55399793  0.84780134  0.96833684
   0.05066502  0.84834649  0.54803959
   0.95253701  0.15218968  0.46806527
   0.84318545  0.53106009  0.04986338
   0.15235953  0.47724782  0.94325596
   0.15035847  0.03310988  0.44737477
   0.84867803  0.96981972  0.55187476