 # LLZO_Ia3d_Al25_partial_00.vasp
 
        1496  atoms
           5  atom types
 
      0.000000000000      26.087109390400  xlo xhi
      0.000000000000      26.087109390400  ylo yhi
      0.000000000000      26.087109390400  zlo zhi
 
Masses
 
            1   15.99900000             # O
            2   138.90547000            # La
            3   91.22400000             # Zr
            4   6.94000000              # Li
            5   26.98153860             # Al
 
Atoms # atomic
 
         1    1        1.309307016113       2.561004537186       3.687008494318
         2    1       11.783762712946      10.532065100222       9.406061535882
         3    1        5.237228090638      10.532065100222      10.233543509418
         4    1        7.855842332354       2.561004537186       2.859526520782
         5    1       11.783762712946       9.107539945078       2.859526520782
         6    1        1.309307016113       3.985530477914      10.233543509418
         7    1        7.855842332354       3.985530477914       9.406061535882
         8    1        5.237228090638       9.107539945078       3.687008494318
         9    1        3.687008494318       1.309307016113       2.561004537186
        10    1        9.406061535882      11.783762712946      10.532065100222
        11    1       10.233543509418       5.237228090638      10.532065100222
        12    1        2.859526520782       7.855842332354       2.561004537186
        13    1        2.859526520782      11.783762712946       9.107539945078
        14    1       10.233543509418       1.309307016113       3.985530477914
        15    1        9.406061535882       7.855842332354       3.985530477914
        16    1        3.687008494318       5.237228090638       9.107539945078
        17    1        2.561004537186       3.687008494318       1.309307016113
        18    1       10.532065100222       9.406061535882      11.783762712946
        19    1       10.532065100222      10.233543509418       5.237228090638
        20    1        2.561004537186       2.859526520782       7.855842332354
        21    1        9.107539945078       2.859526520782      11.783762712946
        22    1        3.985530477914      10.233543509418       1.309307016113
        23    1        3.985530477914       9.406061535882       7.855842332354
        24    1        9.107539945078       3.687008494318       5.237228090638
        25    1       12.380807452628       4.582574432012      12.679329043432
        26    1        0.712262970364       8.510495205396       0.413740986768
        27    1        7.258797592672       8.510495205396       6.132794028332
        28    1        5.834272044736       4.582574432012       6.960276001868
        29    1        5.834272044736       1.963960583088       0.413740986768
        30    1        7.258797592672      11.129109839904      12.679329043432
        31    1        0.712262970364      11.129109839904       6.960276001868
        32    1       12.380807452628       1.963960583088       6.132794028332
        33    1       11.129109839904       6.960276001868       0.712262970364
        34    1        1.963960583088       6.132794028332      12.380807452628
        35    1        1.963960583088       0.413740986768       5.834272044736
        36    1       11.129109839904      12.679329043432       7.258797592672
        37    1        8.510495205396       6.132794028332       7.258797592672
        38    1        4.582574432012       6.960276001868       5.834272044736
        39    1        4.582574432012      12.679329043432      12.380807452628
        40    1        8.510495205396       0.413740986768       0.712262970364
        41    1        0.413740986768       5.834272044736       1.963960583088
        42    1       12.679329043432       7.258797592672      11.129109839904
        43    1        6.960276001868       0.712262970364      11.129109839904
        44    1        6.132794028332      12.380807452628       1.963960583088
        45    1       12.679329043432      12.380807452628       4.582574432012
        46    1        0.413740986768       0.712262970364       8.510495205396
        47    1        6.132794028332       7.258797592672       8.510495205396
        48    1        6.960276001868       5.834272044736       4.582574432012
        49    1        7.855842332354       9.107539945078      10.233543509418
        50    1        5.237228090638       3.985530477914       2.859526520782
        51    1       11.783762712946       3.985530477914       3.687008494318
        52    1        1.309307016113       9.107539945078       9.406061535882
        53    1        5.237228090638       2.561004537186       9.406061535882
        54    1        7.855842332354      10.532065100222       3.687008494318
        55    1        1.309307016113      10.532065100222       2.859526520782
        56    1       11.783762712946       2.561004537186      10.233543509418
        57    1       10.233543509418       7.855842332354       9.107539945078
        58    1        2.859526520782       5.237228090638       3.985530477914
        59    1        3.687008494318      11.783762712946       3.985530477914
        60    1        9.406061535882       1.309307016113       9.107539945078
        61    1        9.406061535882       5.237228090638       2.561004537186
        62    1        3.687008494318       7.855842332354      10.532065100222
        63    1        2.859526520782       1.309307016113      10.532065100222
        64    1       10.233543509418      11.783762712946       2.561004537186
        65    1        9.107539945078      10.233543509418       7.855842332354
        66    1        3.985530477914       2.859526520782       5.237228090638
        67    1        3.985530477914       3.687008494318      11.783762712946
        68    1        9.107539945078       9.406061535882       1.309307016113
        69    1        2.561004537186       9.406061535882       5.237228090638
        70    1       10.532065100222       3.687008494318       7.855842332354
        71    1       10.532065100222       2.859526520782       1.309307016113
        72    1        2.561004537186      10.233543509418      11.783762712946
        73    1        5.834272044736      11.129109839904       6.132794028332
        74    1        7.258797592672       1.963960583088       6.960276001868
        75    1        0.712262970364       1.963960583088      12.679329043432
        76    1       12.380807452628      11.129109839904       0.413740986768
        77    1       12.380807452628       8.510495205396       6.960276001868
        78    1        0.712262970364       4.582574432012       6.132794028332
        79    1        7.258797592672       4.582574432012       0.413740986768
        80    1        5.834272044736       8.510495205396      12.679329043432
        81    1        4.582574432012       0.413740986768       7.258797592672
        82    1        8.510495205396      12.679329043432       5.834272044736
        83    1        8.510495205396       6.960276001868      12.380807452628
        84    1        4.582574432012       6.132794028332       0.712262970364
        85    1        1.963960583088      12.679329043432       0.712262970364
        86    1       11.129109839904       0.413740986768      12.380807452628
        87    1       11.129109839904       6.132794028332       5.834272044736
        88    1        1.963960583088       6.960276001868       7.258797592672
        89    1        6.960276001868      12.380807452628       8.510495205396
        90    1        6.132794028332       0.712262970364       4.582574432012
        91    1        0.413740986768       7.258797592672       4.582574432012
        92    1       12.679329043432       5.834272044736       8.510495205396
        93    1        6.132794028332       5.834272044736      11.129109839904
        94    1        6.960276001868       7.258797592672       1.963960583088
        95    1       12.679329043432       0.712262970364       1.963960583088
        96    1        0.413740986768      12.380807452628      11.129109839904
        97    1        1.309307016113       2.561004537186      16.780078524518
        98    1       11.783762712946      10.532065100222      22.499131566082
        99    1        5.237228090638      10.532065100222      23.326613539618
       100    1        7.855842332354       2.561004537186      15.952596550982
       101    1       11.783762712946       9.107539945078      15.952596550982
       102    1        1.309307016113       3.985530477914      23.326613539618
       103    1        7.855842332354       3.985530477914      22.499131566082
       104    1        5.237228090638       9.107539945078      16.780078524518
       105    1        3.687008494318       1.309307016113      15.654074567386
       106    1        9.406061535882      11.783762712946      23.625135130422
       107    1       10.233543509418       5.237228090638      23.625135130422
       108    1        2.859526520782       7.855842332354      15.654074567386
       109    1        2.859526520782      11.783762712946      22.200609975278
       110    1       10.233543509418       1.309307016113      17.078600508114
       111    1        9.406061535882       7.855842332354      17.078600508114
       112    1        3.687008494318       5.237228090638      22.200609975278
       113    1        2.561004537186       3.687008494318      14.402377046313
       114    1       10.532065100222       9.406061535882      24.876832743146
       115    1       10.532065100222      10.233543509418      18.330298120838
       116    1        2.561004537186       2.859526520782      20.948912362554
       117    1        9.107539945078       2.859526520782      24.876832743146
       118    1        3.985530477914      10.233543509418      14.402377046313
       119    1        3.985530477914       9.406061535882      20.948912362554
       120    1        9.107539945078       3.687008494318      18.330298120838
       121    1       12.380807452628       4.582574432012      25.772399073632
       122    1        0.712262970364       8.510495205396      13.506811016968
       123    1        7.258797592672       8.510495205396      19.225864058532
       124    1        5.834272044736       4.582574432012      20.053346032068
       125    1        5.834272044736       1.963960583088      13.506811016968
       126    1        7.258797592672      11.129109839904      25.772399073632
       127    1        0.712262970364      11.129109839904      20.053346032068
       128    1       12.380807452628       1.963960583088      19.225864058532
       129    1       11.129109839904       6.960276001868      13.805333000564
       130    1        1.963960583088       6.132794028332      25.473877482828
       131    1        1.963960583088       0.413740986768      18.927342074936
       132    1       11.129109839904      12.679329043432      20.351867622872
       133    1        8.510495205396       6.132794028332      20.351867622872
       134    1        4.582574432012       6.960276001868      18.927342074936
       135    1        4.582574432012      12.679329043432      25.473877482828
       136    1        8.510495205396       0.413740986768      13.805333000564
       137    1        0.413740986768       5.834272044736      15.057030613288
       138    1       12.679329043432       7.258797592672      24.222179870104
       139    1        6.960276001868       0.712262970364      24.222179870104
       140    1        6.132794028332      12.380807452628      15.057030613288
       141    1       12.679329043432      12.380807452628      17.675644462212
       142    1        0.413740986768       0.712262970364      21.603565235596
       143    1        6.132794028332       7.258797592672      21.603565235596
       144    1        6.960276001868       5.834272044736      17.675644462212
       145    1        7.855842332354       9.107539945078      23.326613539618
       146    1        5.237228090638       3.985530477914      15.952596550982
       147    1       11.783762712946       3.985530477914      16.780078524518
       148    1        1.309307016113       9.107539945078      22.499131566082
       149    1        5.237228090638       2.561004537186      22.499131566082
       150    1        7.855842332354      10.532065100222      16.780078524518
       151    1        1.309307016113      10.532065100222      15.952596550982
       152    1       11.783762712946       2.561004537186      23.326613539618
       153    1       10.233543509418       7.855842332354      22.200609975278
       154    1        2.859526520782       5.237228090638      17.078600508114
       155    1        3.687008494318      11.783762712946      17.078600508114
       156    1        9.406061535882       1.309307016113      22.200609975278
       157    1        9.406061535882       5.237228090638      15.654074567386
       158    1        3.687008494318       7.855842332354      23.625135130422
       159    1        2.859526520782       1.309307016113      23.625135130422
       160    1       10.233543509418      11.783762712946      15.654074567386
       161    1        9.107539945078      10.233543509418      20.948912362554
       162    1        3.985530477914       2.859526520782      18.330298120838
       163    1        3.985530477914       3.687008494318      24.876832743146
       164    1        9.107539945078       9.406061535882      14.402377046313
       165    1        2.561004537186       9.406061535882      18.330298120838
       166    1       10.532065100222       3.687008494318      20.948912362554
       167    1       10.532065100222       2.859526520782      14.402377046313
       168    1        2.561004537186      10.233543509418      24.876832743146
       169    1        5.834272044736      11.129109839904      19.225864058532
       170    1        7.258797592672       1.963960583088      20.053346032068
       171    1        0.712262970364       1.963960583088      25.772399073632
       172    1       12.380807452628      11.129109839904      13.506811016968
       173    1       12.380807452628       8.510495205396      20.053346032068
       174    1        0.712262970364       4.582574432012      19.225864058532
       175    1        7.258797592672       4.582574432012      13.506811016968
       176    1        5.834272044736       8.510495205396      25.772399073632
       177    1        4.582574432012       0.413740986768      20.351867622872
       178    1        8.510495205396      12.679329043432      18.927342074936
       179    1        8.510495205396       6.960276001868      25.473877482828
       180    1        4.582574432012       6.132794028332      13.805333000564
       181    1        1.963960583088      12.679329043432      13.805333000564
       182    1       11.129109839904       0.413740986768      25.473877482828
       183    1       11.129109839904       6.132794028332      18.927342074936
       184    1        1.963960583088       6.960276001868      20.351867622872
       185    1        6.960276001868      12.380807452628      21.603565235596
       186    1        6.132794028332       0.712262970364      17.675644462212
       187    1        0.413740986768       7.258797592672      17.675644462212
       188    1       12.679329043432       5.834272044736      21.603565235596
       189    1        6.132794028332       5.834272044736      24.222179870104
       190    1        6.960276001868       7.258797592672      15.057030613288
       191    1       12.679329043432       0.712262970364      15.057030613288
       192    1        0.413740986768      12.380807452628      24.222179870104
       193    1        1.309307016113      15.654074567386       3.687008494318
       194    1       11.783762712946      23.625135130422       9.406061535882
       195    1        5.237228090638      23.625135130422      10.233543509418
       196    1        7.855842332354      15.654074567386       2.859526520782
       197    1       11.783762712946      22.200609975278       2.859526520782
       198    1        1.309307016113      17.078600508114      10.233543509418
       199    1        7.855842332354      17.078600508114       9.406061535882
       200    1        5.237228090638      22.200609975278       3.687008494318
       201    1        3.687008494318      14.402377046313       2.561004537186
       202    1        9.406061535882      24.876832743146      10.532065100222
       203    1       10.233543509418      18.330298120838      10.532065100222
       204    1        2.859526520782      20.948912362554       2.561004537186
       205    1        2.859526520782      24.876832743146       9.107539945078
       206    1       10.233543509418      14.402377046313       3.985530477914
       207    1        9.406061535882      20.948912362554       3.985530477914
       208    1        3.687008494318      18.330298120838       9.107539945078
       209    1        2.561004537186      16.780078524518       1.309307016113
       210    1       10.532065100222      22.499131566082      11.783762712946
       211    1       10.532065100222      23.326613539618       5.237228090638
       212    1        2.561004537186      15.952596550982       7.855842332354
       213    1        9.107539945078      15.952596550982      11.783762712946
       214    1        3.985530477914      23.326613539618       1.309307016113
       215    1        3.985530477914      22.499131566082       7.855842332354
       216    1        9.107539945078      16.780078524518       5.237228090638
       217    1       12.380807452628      17.675644462212      12.679329043432
       218    1        0.712262970364      21.603565235596       0.413740986768
       219    1        7.258797592672      21.603565235596       6.132794028332
       220    1        5.834272044736      17.675644462212       6.960276001868
       221    1        5.834272044736      15.057030613288       0.413740986768
       222    1        7.258797592672      24.222179870104      12.679329043432
       223    1        0.712262970364      24.222179870104       6.960276001868
       224    1       12.380807452628      15.057030613288       6.132794028332
       225    1       11.129109839904      20.053346032068       0.712262970364
       226    1        1.963960583088      19.225864058532      12.380807452628
       227    1        1.963960583088      13.506811016968       5.834272044736
       228    1       11.129109839904      25.772399073632       7.258797592672
       229    1        8.510495205396      19.225864058532       7.258797592672
       230    1        4.582574432012      20.053346032068       5.834272044736
       231    1        4.582574432012      25.772399073632      12.380807452628
       232    1        8.510495205396      13.506811016968       0.712262970364
       233    1        0.413740986768      18.927342074936       1.963960583088
       234    1       12.679329043432      20.351867622872      11.129109839904
       235    1        6.960276001868      13.805333000564      11.129109839904
       236    1        6.132794028332      25.473877482828       1.963960583088
       237    1       12.679329043432      25.473877482828       4.582574432012
       238    1        0.413740986768      13.805333000564       8.510495205396
       239    1        6.132794028332      20.351867622872       8.510495205396
       240    1        6.960276001868      18.927342074936       4.582574432012
       241    1        7.855842332354      22.200609975278      10.233543509418
       242    1        5.237228090638      17.078600508114       2.859526520782
       243    1       11.783762712946      17.078600508114       3.687008494318
       244    1        1.309307016113      22.200609975278       9.406061535882
       245    1        5.237228090638      15.654074567386       9.406061535882
       246    1        7.855842332354      23.625135130422       3.687008494318
       247    1        1.309307016113      23.625135130422       2.859526520782
       248    1       11.783762712946      15.654074567386      10.233543509418
       249    1       10.233543509418      20.948912362554       9.107539945078
       250    1        2.859526520782      18.330298120838       3.985530477914
       251    1        3.687008494318      24.876832743146       3.985530477914
       252    1        9.406061535882      14.402377046313       9.107539945078
       253    1        9.406061535882      18.330298120838       2.561004537186
       254    1        3.687008494318      20.948912362554      10.532065100222
       255    1        2.859526520782      14.402377046313      10.532065100222
       256    1       10.233543509418      24.876832743146       2.561004537186
       257    1        9.107539945078      23.326613539618       7.855842332354
       258    1        3.985530477914      15.952596550982       5.237228090638
       259    1        3.985530477914      16.780078524518      11.783762712946
       260    1        9.107539945078      22.499131566082       1.309307016113
       261    1        2.561004537186      22.499131566082       5.237228090638
       262    1       10.532065100222      16.780078524518       7.855842332354
       263    1       10.532065100222      15.952596550982       1.309307016113
       264    1        2.561004537186      23.326613539618      11.783762712946
       265    1        5.834272044736      24.222179870104       6.132794028332
       266    1        7.258797592672      15.057030613288       6.960276001868
       267    1        0.712262970364      15.057030613288      12.679329043432
       268    1       12.380807452628      24.222179870104       0.413740986768
       269    1       12.380807452628      21.603565235596       6.960276001868
       270    1        0.712262970364      17.675644462212       6.132794028332
       271    1        7.258797592672      17.675644462212       0.413740986768
       272    1        5.834272044736      21.603565235596      12.679329043432
       273    1        4.582574432012      13.506811016968       7.258797592672
       274    1        8.510495205396      25.772399073632       5.834272044736
       275    1        8.510495205396      20.053346032068      12.380807452628
       276    1        4.582574432012      19.225864058532       0.712262970364
       277    1        1.963960583088      25.772399073632       0.712262970364
       278    1       11.129109839904      13.506811016968      12.380807452628
       279    1       11.129109839904      19.225864058532       5.834272044736
       280    1        1.963960583088      20.053346032068       7.258797592672
       281    1        6.960276001868      25.473877482828       8.510495205396
       282    1        6.132794028332      13.805333000564       4.582574432012
       283    1        0.413740986768      20.351867622872       4.582574432012
       284    1       12.679329043432      18.927342074936       8.510495205396
       285    1        6.132794028332      18.927342074936      11.129109839904
       286    1        6.960276001868      20.351867622872       1.963960583088
       287    1       12.679329043432      13.805333000564       1.963960583088
       288    1        0.413740986768      25.473877482828      11.129109839904
       289    1        1.309307016113      15.654074567386      16.780078524518
       290    1       11.783762712946      23.625135130422      22.499131566082
       291    1        5.237228090638      23.625135130422      23.326613539618
       292    1        7.855842332354      15.654074567386      15.952596550982
       293    1       11.783762712946      22.200609975278      15.952596550982
       294    1        1.309307016113      17.078600508114      23.326613539618
       295    1        7.855842332354      17.078600508114      22.499131566082
       296    1        5.237228090638      22.200609975278      16.780078524518
       297    1        3.687008494318      14.402377046313      15.654074567386
       298    1        9.406061535882      24.876832743146      23.625135130422
       299    1       10.233543509418      18.330298120838      23.625135130422
       300    1        2.859526520782      20.948912362554      15.654074567386
       301    1        2.859526520782      24.876832743146      22.200609975278
       302    1       10.233543509418      14.402377046313      17.078600508114
       303    1        9.406061535882      20.948912362554      17.078600508114
       304    1        3.687008494318      18.330298120838      22.200609975278
       305    1        2.561004537186      16.780078524518      14.402377046313
       306    1       10.532065100222      22.499131566082      24.876832743146
       307    1       10.532065100222      23.326613539618      18.330298120838
       308    1        2.561004537186      15.952596550982      20.948912362554
       309    1        9.107539945078      15.952596550982      24.876832743146
       310    1        3.985530477914      23.326613539618      14.402377046313
       311    1        3.985530477914      22.499131566082      20.948912362554
       312    1        9.107539945078      16.780078524518      18.330298120838
       313    1       12.380807452628      17.675644462212      25.772399073632
       314    1        0.712262970364      21.603565235596      13.506811016968
       315    1        7.258797592672      21.603565235596      19.225864058532
       316    1        5.834272044736      17.675644462212      20.053346032068
       317    1        5.834272044736      15.057030613288      13.506811016968
       318    1        7.258797592672      24.222179870104      25.772399073632
       319    1        0.712262970364      24.222179870104      20.053346032068
       320    1       12.380807452628      15.057030613288      19.225864058532
       321    1       11.129109839904      20.053346032068      13.805333000564
       322    1        1.963960583088      19.225864058532      25.473877482828
       323    1        1.963960583088      13.506811016968      18.927342074936
       324    1       11.129109839904      25.772399073632      20.351867622872
       325    1        8.510495205396      19.225864058532      20.351867622872
       326    1        4.582574432012      20.053346032068      18.927342074936
       327    1        4.582574432012      25.772399073632      25.473877482828
       328    1        8.510495205396      13.506811016968      13.805333000564
       329    1        0.413740986768      18.927342074936      15.057030613288
       330    1       12.679329043432      20.351867622872      24.222179870104
       331    1        6.960276001868      13.805333000564      24.222179870104
       332    1        6.132794028332      25.473877482828      15.057030613288
       333    1       12.679329043432      25.473877482828      17.675644462212
       334    1        0.413740986768      13.805333000564      21.603565235596
       335    1        6.132794028332      20.351867622872      21.603565235596
       336    1        6.960276001868      18.927342074936      17.675644462212
       337    1        7.855842332354      22.200609975278      23.326613539618
       338    1        5.237228090638      17.078600508114      15.952596550982
       339    1       11.783762712946      17.078600508114      16.780078524518
       340    1        1.309307016113      22.200609975278      22.499131566082
       341    1        5.237228090638      15.654074567386      22.499131566082
       342    1        7.855842332354      23.625135130422      16.780078524518
       343    1        1.309307016113      23.625135130422      15.952596550982
       344    1       11.783762712946      15.654074567386      23.326613539618
       345    1       10.233543509418      20.948912362554      22.200609975278
       346    1        2.859526520782      18.330298120838      17.078600508114
       347    1        3.687008494318      24.876832743146      17.078600508114
       348    1        9.406061535882      14.402377046313      22.200609975278
       349    1        9.406061535882      18.330298120838      15.654074567386
       350    1        3.687008494318      20.948912362554      23.625135130422
       351    1        2.859526520782      14.402377046313      23.625135130422
       352    1       10.233543509418      24.876832743146      15.654074567386
       353    1        9.107539945078      23.326613539618      20.948912362554
       354    1        3.985530477914      15.952596550982      18.330298120838
       355    1        3.985530477914      16.780078524518      24.876832743146
       356    1        9.107539945078      22.499131566082      14.402377046313
       357    1        2.561004537186      22.499131566082      18.330298120838
       358    1       10.532065100222      16.780078524518      20.948912362554
       359    1       10.532065100222      15.952596550982      14.402377046313
       360    1        2.561004537186      23.326613539618      24.876832743146
       361    1        5.834272044736      24.222179870104      19.225864058532
       362    1        7.258797592672      15.057030613288      20.053346032068
       363    1        0.712262970364      15.057030613288      25.772399073632
       364    1       12.380807452628      24.222179870104      13.506811016968
       365    1       12.380807452628      21.603565235596      20.053346032068
       366    1        0.712262970364      17.675644462212      19.225864058532
       367    1        7.258797592672      17.675644462212      13.506811016968
       368    1        5.834272044736      21.603565235596      25.772399073632