 # LLZO_Ia3d_Al25_partial_1.vasp
 
        1496  atoms
           5  atom types
 
      0.000000000000      26.285169601400  xlo xhi
      0.000000000000      26.285169601400  ylo yhi
      0.000000000000      26.285169601400  zlo zhi
 
Masses
 
            1   15.99900000             # O
            2   138.90547000            # La
            3   91.22400000             # Zr
            4   6.94000000              # Li
            5   26.98153860             # Al
 
Atoms # atomic
 
         1    1        1.296520055385       2.535954068744       3.650944017042
         2    1       11.668680070615      10.429045694906       9.314056135558
         3    1        5.186080247471      10.429045694906      10.133444093342
         4    1        7.779120565685       2.535954068744       2.831556059258
         5    1       11.668680070615       9.018454533994       2.831556059258
         6    1        1.296520055385       3.946546007556      10.133444093342
         7    1        7.779120565685       3.946546007556       9.314056135558
         8    1        5.186080247471       9.018454533994       3.650944017042
         9    1        3.651000413524       1.296500028225       2.535954068744
        10    1        9.314200010676      11.668499826180      10.429045694906
        11    1       10.133600625624       5.186000138830      10.429045694906
        12    1        2.831599798576       7.779000402720       2.535954068744
        13    1        2.831599798576      11.668499826180       9.018454533994
        14    1       10.133600625624       1.296500028225       3.946546007556
        15    1        9.314200010676       7.779000402720       3.946546007556
        16    1        3.651000413524       5.186000138830       9.018454533994
        17    1        2.535993241869       3.650944017042       1.296500028225
        18    1       10.429206793375       9.314056135558      11.668499826180
        19    1       10.429206793375      10.133444093342       5.186000138830
        20    1        2.535993241869       2.831556059258       7.779000402720
        21    1        9.018593842925       2.831556059258      11.668499826180
        22    1        3.946606970231      10.133444093342       1.296500028225
        23    1        3.946606970231       9.314056135558       7.779000402720
        24    1        9.018593842925       3.650944017042       5.186000138830
        25    1       12.259893948975       4.537749975620      12.555306173708
        26    1        0.705306864181       8.427249788030       0.409693978892
        27    1        7.187906687325       8.427249788030       6.072806097408
        28    1        5.777293347919       4.537749975620       6.892194055192
        29    1        5.777293347919       1.944750100680       0.409693978892
        30    1        7.187906687325      11.020250440870      12.555306173708
        31    1        0.705306864181      11.020250440870       6.892194055192
        32    1       12.259893948975       1.944750100680       6.072806097408
        33    1       11.020420671735       6.892194055192       0.705295969406
        34    1        1.944780141421       6.072806097408      12.259704572144
        35    1        1.944780141421       0.409693978892       5.777204106894
        36    1       11.020420671735      12.555306173708       7.187795656756
        37    1        8.427379964565       6.072806097408       7.187795656756
        38    1        4.537820070679       6.892194055192       5.777204106894
        39    1        4.537820070679      12.555306173708      12.259704572144
        40    1        8.427379964565       0.409693978892       0.705295969406
        41    1        0.409700307474       5.777204106894       1.944750100680
        42    1       12.555500116726       7.187795656756      11.020250440870
        43    1        6.892300519574       0.705295969406      11.020250440870
        44    1        6.072899904626      12.259704572144       1.944750100680
        45    1       12.555500116726      12.259704572144       4.537749975620
        46    1        0.409700307474       0.705295969406       8.427249788030
        47    1        6.072899904626       7.187795656756       8.427249788030
        48    1        6.892300519574       5.777204106894       4.537749975620
        49    1        7.779120565685       9.018454533994      10.133444093342
        50    1        5.186080247471       3.946546007556       2.831556059258
        51    1       11.668680070615       3.946546007556       3.650944017042
        52    1        1.296520055385       9.018454533994       9.314056135558
        53    1        5.186080247471       2.535954068744       9.314056135558
        54    1        7.779120565685      10.429045694906       3.650944017042
        55    1        1.296520055385      10.429045694906       2.831556059258
        56    1       11.668680070615       2.535954068744      10.133444093342
        57    1       10.133600625624       7.779000402720       9.018454533994
        58    1        2.831599798576       5.186000138830       3.946546007556
        59    1        3.651000413524      11.668499826180       3.946546007556
        60    1        9.314200010676       1.296500028225       9.018454533994
        61    1        9.314200010676       5.186000138830       2.535954068744
        62    1        3.651000413524       7.779000402720      10.429045694906
        63    1        2.831599798576       1.296500028225      10.429045694906
        64    1       10.133600625624      11.668499826180       2.535954068744
        65    1        9.018593842925      10.133444093342       7.779000402720
        66    1        3.946606970231       2.831556059258       5.186000138830
        67    1        3.946606970231       3.650944017042      11.668499826180
        68    1        9.018593842925       9.314056135558       1.296500028225
        69    1        2.535993241869       9.314056135558       5.186000138830
        70    1       10.429206793375       3.650944017042       7.779000402720
        71    1       10.429206793375       2.831556059258       1.296500028225
        72    1        2.535993241869      10.133444093342      11.668499826180
        73    1        5.777293347919      11.020250440870       6.072806097408
        74    1        7.187906687325       1.944750100680       6.892194055192
        75    1        0.705306864181       1.944750100680      12.555306173708
        76    1       12.259893948975      11.020250440870       0.409693978892
        77    1       12.259893948975       8.427249788030       6.892194055192
        78    1        0.705306864181       4.537749975620       6.072806097408
        79    1        7.187906687325       4.537749975620       0.409693978892
        80    1        5.777293347919       8.427249788030      12.555306173708
        81    1        4.537820070679       0.409693978892       7.187795656756
        82    1        8.427379964565      12.555306173708       5.777204106894
        83    1        8.427379964565       6.892194055192      12.259704572144
        84    1        4.537820070679       6.072806097408       0.705295969406
        85    1        1.944780141421      12.555306173708       0.705295969406
        86    1       11.020420671735       0.409693978892      12.259704572144
        87    1       11.020420671735       6.072806097408       5.777204106894
        88    1        1.944780141421       6.892194055192       7.187795656756
        89    1        6.892300519574      12.259704572144       8.427249788030
        90    1        6.072899904626       0.705295969406       4.537749975620
        91    1        0.409700307474       7.187795656756       4.537749975620
        92    1       12.555500116726       5.777204106894       8.427249788030
        93    1        6.072899904626       5.777204106894      11.020250440870
        94    1        6.892300519574       7.187795656756       1.944750100680
        95    1       12.555500116726       0.705295969406       1.944750100680
        96    1        0.409700307474      12.259704572144      11.020250440870
        97    1        1.296520055385       2.535954068744      16.615944169642
        98    1       11.668680070615      10.429045694906      22.279056288158
        99    1        5.186080247471      10.429045694906      23.098444245942
       100    1        7.779120565685       2.535954068744      15.796556211858
       101    1       11.668680070615       9.018454533994      15.796556211858
       102    1        1.296520055385       3.946546007556      23.098444245942
       103    1        7.779120565685       3.946546007556      22.279056288158
       104    1        5.186080247471       9.018454533994      16.615944169642
       105    1        3.651000413524       1.296500028225      15.500954221344
       106    1        9.314200010676      11.668499826180      23.394045847506
       107    1       10.133600625624       5.186000138830      23.394045847506
       108    1        2.831599798576       7.779000402720      15.500954221344
       109    1        2.831599798576      11.668499826180      21.983454686594
       110    1       10.133600625624       1.296500028225      16.911546160156
       111    1        9.314200010676       7.779000402720      16.911546160156
       112    1        3.651000413524       5.186000138830      21.983454686594
       113    1        2.535993241869       3.650944017042      14.261500180825
       114    1       10.429206793375       9.314056135558      24.633499978780
       115    1       10.429206793375      10.133444093342      18.151000291430
       116    1        2.535993241869       2.831556059258      20.744000555320
       117    1        9.018593842925       2.831556059258      24.633499978780
       118    1        3.946606970231      10.133444093342      14.261500180825
       119    1        3.946606970231       9.314056135558      20.744000555320
       120    1        9.018593842925       3.650944017042      18.151000291430
       121    1       12.259893948975       4.537749975620      25.520306326308
       122    1        0.705306864181       8.427249788030      13.374694131492
       123    1        7.187906687325       8.427249788030      19.037806250008
       124    1        5.777293347919       4.537749975620      19.857194207792
       125    1        5.777293347919       1.944750100680      13.374694131492
       126    1        7.187906687325      11.020250440870      25.520306326308
       127    1        0.705306864181      11.020250440870      19.857194207792
       128    1       12.259893948975       1.944750100680      19.037806250008
       129    1       11.020420671735       6.892194055192      13.670296122006
       130    1        1.944780141421       6.072806097408      25.224704724744
       131    1        1.944780141421       0.409693978892      18.742204259494
       132    1       11.020420671735      12.555306173708      20.152795809356
       133    1        8.427379964565       6.072806097408      20.152795809356
       134    1        4.537820070679       6.892194055192      18.742204259494
       135    1        4.537820070679      12.555306173708      25.224704724744
       136    1        8.427379964565       0.409693978892      13.670296122006
       137    1        0.409700307474       5.777204106894      14.909750253280
       138    1       12.555500116726       7.187795656756      23.985250593470
       139    1        6.892300519574       0.705295969406      23.985250593470
       140    1        6.072899904626      12.259704572144      14.909750253280
       141    1       12.555500116726      12.259704572144      17.502750128220
       142    1        0.409700307474       0.705295969406      21.392249940630
       143    1        6.072899904626       7.187795656756      21.392249940630
       144    1        6.892300519574       5.777204106894      17.502750128220
       145    1        7.779120565685       9.018454533994      23.098444245942
       146    1        5.186080247471       3.946546007556      15.796556211858
       147    1       11.668680070615       3.946546007556      16.615944169642
       148    1        1.296520055385       9.018454533994      22.279056288158
       149    1        5.186080247471       2.535954068744      22.279056288158
       150    1        7.779120565685      10.429045694906      16.615944169642
       151    1        1.296520055385      10.429045694906      15.796556211858
       152    1       11.668680070615       2.535954068744      23.098444245942
       153    1       10.133600625624       7.779000402720      21.983454686594
       154    1        2.831599798576       5.186000138830      16.911546160156
       155    1        3.651000413524      11.668499826180      16.911546160156
       156    1        9.314200010676       1.296500028225      21.983454686594
       157    1        9.314200010676       5.186000138830      15.500954221344
       158    1        3.651000413524       7.779000402720      23.394045847506
       159    1        2.831599798576       1.296500028225      23.394045847506
       160    1       10.133600625624      11.668499826180      15.500954221344
       161    1        9.018593842925      10.133444093342      20.744000555320
       162    1        3.946606970231       2.831556059258      18.151000291430
       163    1        3.946606970231       3.650944017042      24.633499978780
       164    1        9.018593842925       9.314056135558      14.261500180825
       165    1        2.535993241869       9.314056135558      18.151000291430
       166    1       10.429206793375       3.650944017042      20.744000555320
       167    1       10.429206793375       2.831556059258      14.261500180825
       168    1        2.535993241869      10.133444093342      24.633499978780
       169    1        5.777293347919      11.020250440870      19.037806250008
       170    1        7.187906687325       1.944750100680      19.857194207792
       171    1        0.705306864181       1.944750100680      25.520306326308
       172    1       12.259893948975      11.020250440870      13.374694131492
       173    1       12.259893948975       8.427249788030      19.857194207792
       174    1        0.705306864181       4.537749975620      19.037806250008
       175    1        7.187906687325       4.537749975620      13.374694131492
       176    1        5.777293347919       8.427249788030      25.520306326308
       177    1        4.537820070679       0.409693978892      20.152795809356
       178    1        8.427379964565      12.555306173708      18.742204259494
       179    1        8.427379964565       6.892194055192      25.224704724744
       180    1        4.537820070679       6.072806097408      13.670296122006
       181    1        1.944780141421      12.555306173708      13.670296122006
       182    1       11.020420671735       0.409693978892      25.224704724744
       183    1       11.020420671735       6.072806097408      18.742204259494
       184    1        1.944780141421       6.892194055192      20.152795809356
       185    1        6.892300519574      12.259704572144      21.392249940630
       186    1        6.072899904626       0.705295969406      17.502750128220
       187    1        0.409700307474       7.187795656756      17.502750128220
       188    1       12.555500116726       5.777204106894      21.392249940630
       189    1        6.072899904626       5.777204106894      23.985250593470
       190    1        6.892300519574       7.187795656756      14.909750253280
       191    1       12.555500116726       0.705295969406      14.909750253280
       192    1        0.409700307474      12.259704572144      23.985250593470
       193    1        1.296520055385      15.500954221344       3.650944017042
       194    1       11.668680070615      23.394045847506       9.314056135558
       195    1        5.186080247471      23.394045847506      10.133444093342
       196    1        7.779120565685      15.500954221344       2.831556059258
       197    1       11.668680070615      21.983454686594       2.831556059258
       198    1        1.296520055385      16.911546160156      10.133444093342
       199    1        7.779120565685      16.911546160156       9.314056135558
       200    1        5.186080247471      21.983454686594       3.650944017042
       201    1        3.651000413524      14.261500180825       2.535954068744
       202    1        9.314200010676      24.633499978780      10.429045694906
       203    1       10.133600625624      18.151000291430      10.429045694906
       204    1        2.831599798576      20.744000555320       2.535954068744
       205    1        2.831599798576      24.633499978780       9.018454533994
       206    1       10.133600625624      14.261500180825       3.946546007556
       207    1        9.314200010676      20.744000555320       3.946546007556
       208    1        3.651000413524      18.151000291430       9.018454533994
       209    1        2.535993241869      16.615944169642       1.296500028225
       210    1       10.429206793375      22.279056288158      11.668499826180
       211    1       10.429206793375      23.098444245942       5.186000138830
       212    1        2.535993241869      15.796556211858       7.779000402720
       213    1        9.018593842925      15.796556211858      11.668499826180
       214    1        3.946606970231      23.098444245942       1.296500028225
       215    1        3.946606970231      22.279056288158       7.779000402720
       216    1        9.018593842925      16.615944169642       5.186000138830
       217    1       12.259893948975      17.502750128220      12.555306173708
       218    1        0.705306864181      21.392249940630       0.409693978892
       219    1        7.187906687325      21.392249940630       6.072806097408
       220    1        5.777293347919      17.502750128220       6.892194055192
       221    1        5.777293347919      14.909750253280       0.409693978892
       222    1        7.187906687325      23.985250593470      12.555306173708
       223    1        0.705306864181      23.985250593470       6.892194055192
       224    1       12.259893948975      14.909750253280       6.072806097408
       225    1       11.020420671735      19.857194207792       0.705295969406
       226    1        1.944780141421      19.037806250008      12.259704572144
       227    1        1.944780141421      13.374694131492       5.777204106894
       228    1       11.020420671735      25.520306326308       7.187795656756
       229    1        8.427379964565      19.037806250008       7.187795656756
       230    1        4.537820070679      19.857194207792       5.777204106894
       231    1        4.537820070679      25.520306326308      12.259704572144
       232    1        8.427379964565      13.374694131492       0.705295969406
       233    1        0.409700307474      18.742204259494       1.944750100680
       234    1       12.555500116726      20.152795809356      11.020250440870
       235    1        6.892300519574      13.670296122006      11.020250440870
       236    1        6.072899904626      25.224704724744       1.944750100680
       237    1       12.555500116726      25.224704724744       4.537749975620
       238    1        0.409700307474      13.670296122006       8.427249788030
       239    1        6.072899904626      20.152795809356       8.427249788030
       240    1        6.892300519574      18.742204259494       4.537749975620
       241    1        7.779120565685      21.983454686594      10.133444093342
       242    1        5.186080247471      16.911546160156       2.831556059258
       243    1       11.668680070615      16.911546160156       3.650944017042
       244    1        1.296520055385      21.983454686594       9.314056135558
       245    1        5.186080247471      15.500954221344       9.314056135558
       246    1        7.779120565685      23.394045847506       3.650944017042
       247    1        1.296520055385      23.394045847506       2.831556059258
       248    1       11.668680070615      15.500954221344      10.133444093342
       249    1       10.133600625624      20.744000555320       9.018454533994
       250    1        2.831599798576      18.151000291430       3.946546007556
       251    1        3.651000413524      24.633499978780       3.946546007556
       252    1        9.314200010676      14.261500180825       9.018454533994
       253    1        9.314200010676      18.151000291430       2.535954068744
       254    1        3.651000413524      20.744000555320      10.429045694906
       255    1        2.831599798576      14.261500180825      10.429045694906
       256    1       10.133600625624      24.633499978780       2.535954068744
       257    1        9.018593842925      23.098444245942       7.779000402720
       258    1        3.946606970231      15.796556211858       5.186000138830
       259    1        3.946606970231      16.615944169642      11.668499826180
       260    1        9.018593842925      22.279056288158       1.296500028225
       261    1        2.535993241869      22.279056288158       5.186000138830
       262    1       10.429206793375      16.615944169642       7.779000402720
       263    1       10.429206793375      15.796556211858       1.296500028225
       264    1        2.535993241869      23.098444245942      11.668499826180
       265    1        5.777293347919      23.985250593470       6.072806097408
       266    1        7.187906687325      14.909750253280       6.892194055192
       267    1        0.705306864181      14.909750253280      12.555306173708
       268    1       12.259893948975      23.985250593470       0.409693978892
       269    1       12.259893948975      21.392249940630       6.892194055192
       270    1        0.705306864181      17.502750128220       6.072806097408
       271    1        7.187906687325      17.502750128220       0.409693978892
       272    1        5.777293347919      21.392249940630      12.555306173708
       273    1        4.537820070679      13.374694131492       7.187795656756
       274    1        8.427379964565      25.520306326308       5.777204106894
       275    1        8.427379964565      19.857194207792      12.259704572144
       276    1        4.537820070679      19.037806250008       0.705295969406
       277    1        1.944780141421      25.520306326308       0.705295969406
       278    1       11.020420671735      13.374694131492      12.259704572144
       279    1       11.020420671735      19.037806250008       5.777204106894
       280    1        1.944780141421      19.857194207792       7.187795656756
       281    1        6.892300519574      25.224704724744       8.427249788030
       282    1        6.072899904626      13.670296122006       4.537749975620
       283    1        0.409700307474      20.152795809356       4.537749975620
       284    1       12.555500116726      18.742204259494       8.427249788030
       285    1        6.072899904626      18.742204259494      11.020250440870
       286    1        6.892300519574      20.152795809356       1.944750100680
       287    1       12.555500116726      13.670296122006       1.944750100680
       288    1        0.409700307474      25.224704724744      11.020250440870
       289    1        1.296520055385      15.500954221344      16.615944169642
       290    1       11.668680070615      23.394045847506      22.279056288158
       291    1        5.186080247471      23.394045847506      23.098444245942
       292    1        7.779120565685      15.500954221344      15.796556211858
       293    1       11.668680070615      21.983454686594      15.796556211858
       294    1        1.296520055385      16.911546160156      23.098444245942
       295    1        7.779120565685      16.911546160156      22.279056288158
       296    1        5.186080247471      21.983454686594      16.615944169642
       297    1        3.651000413524      14.261500180825      15.500954221344
       298    1        9.314200010676      24.633499978780      23.394045847506
       299    1       10.133600625624      18.151000291430      23.394045847506
       300    1        2.831599798576      20.744000555320      15.500954221344
       301    1        2.831599798576      24.633499978780      21.983454686594
       302    1       10.133600625624      14.261500180825      16.911546160156
       303    1        9.314200010676      20.744000555320      16.911546160156
       304    1        3.651000413524      18.151000291430      21.983454686594
       305    1        2.535993241869      16.615944169642      14.261500180825
       306    1       10.429206793375      22.279056288158      24.633499978780
       307    1       10.429206793375      23.098444245942      18.151000291430
       308    1        2.535993241869      15.796556211858      20.744000555320
       309    1        9.018593842925      15.796556211858      24.633499978780
       310    1        3.946606970231      23.098444245942      14.261500180825
       311    1        3.946606970231      22.279056288158      20.744000555320
       312    1        9.018593842925      16.615944169642      18.151000291430
       313    1       12.259893948975      17.502750128220      25.520306326308
       314    1        0.705306864181      21.392249940630      13.374694131492
       315    1        7.187906687325      21.392249940630      19.037806250008
       316    1        5.777293347919      17.502750128220      19.857194207792
       317    1        5.777293347919      14.909750253280      13.374694131492
       318    1        7.187906687325      23.985250593470      25.520306326308
       319    1        0.705306864181      23.985250593470      19.857194207792
       320    1       12.259893948975      14.909750253280      19.037806250008
       321    1       11.020420671735      19.857194207792      13.670296122006
       322    1        1.944780141421      19.037806250008      25.224704724744
       323    1        1.944780141421      13.374694131492      18.742204259494
       324    1       11.020420671735      25.520306326308      20.152795809356
       325    1        8.427379964565      19.037806250008      20.152795809356
       326    1        4.537820070679      19.857194207792      18.742204259494
       327    1        4.537820070679      25.520306326308      25.224704724744
       328    1        8.427379964565      13.374694131492      13.670296122006
       329    1        0.409700307474      18.742204259494      14.909750253280
       330    1       12.555500116726      20.152795809356      23.985250593470
       331    1        6.892300519574      13.670296122006      23.985250593470
       332    1        6.072899904626      25.224704724744      14.909750253280
       333    1       12.555500116726      25.224704724744      17.502750128220
       334    1        0.409700307474      13.670296122006      21.392249940630
       335    1        6.072899904626      20.152795809356      21.392249940630
       336    1        6.892300519574      18.742204259494      17.502750128220
       337    1        7.779120565685      21.983454686594      23.098444245942
       338    1        5.186080247471      16.911546160156      15.796556211858
       339    1       11.668680070615      16.911546160156      16.615944169642
       340    1        1.296520055385      21.983454686594      22.279056288158
       341    1        5.186080247471      15.500954221344      22.279056288158
       342    1        7.779120565685      23.394045847506      16.615944169642
       343    1        1.296520055385      23.394045847506      15.796556211858
       344    1       11.668680070615      15.500954221344      23.098444245942
       345    1       10.133600625624      20.744000555320      21.983454686594
       346    1        2.831599798576      18.151000291430      16.911546160156
       347    1        3.651000413524      24.633499978780      16.911546160156
       348    1        9.314200010676      14.261500180825      21.983454686594
       349    1        9.314200010676      18.151000291430      15.500954221344
       350    1        3.651000413524      20.744000555320      23.394045847506
       351    1        2.831599798576      14.261500180825      23.394045847506
       352    1       10.133600625624      24.633499978780      15.500954221344
       353    1        9.018593842925      23.098444245942      20.744000555320
       354    1        3.946606970231      15.796556211858      18.151000291430
       355    1        3.946606970231      16.615944169642      24.633499978780
       356    1        9.018593842925      22.279056288158      14.261500180825
       357    1        2.535993241869      22.279056288158      18.151000291430
       358    1       10.429206793375      16.615944169642      20.744000555320
       359    1       10.429206793375      15.796556211858      14.261500180825
       360    1        2.535993241869      23.098444245942      24.633499978780
       361    1        5.777293347919      23.985250593470      19.037806250008
       362    1        7.187906687325      14.909750253280      19.857194207792
       363    1        0.705306864181      14.909750253280      25.520306326308
       364    1       12.259893948975      23.985250593470      13.374694131492
       365    1       12.259893948975      21.392249940630      19.857194207792
       366    1        0.705306864181      17.502750128220      19.037806250008
       367    1        7.187906687325      17.502750128220      13.374694131492
       368    1        5.777293347919      21.392249940630      25.520306326308