 running on  160 total cores
 distrk:  each k-point on  160 cores,    1 groups
 distr:  one band on   20 cores,    8 groups
 using from now: INCAR     
 vasp.5.4.4.18Apr17-6-g9f103f2a35 (build May 01 2020 14:22:42) gamma-only       
  
 POSCAR found type information on POSCAR  O  La Zr Li Al
 POSCAR found :  5 types and     190 ions
 scaLAPACK will be used
 LDA part: xc-table for Pade appr. of Perdew
 POSCAR, INCAR and KPOINTS ok, starting setup
 FFT: planning ...
 WAVECAR not read
 WARNING: random wavefunctions but no delay for mixing, default for NELMDL
 entering main loop
       N       E                     dE             d eps       ncg     rms          rms(c)
DAV:   1     0.252749187071E+05    0.25275E+05   -0.42150E+05  1584   0.253E+03
DAV:   2     0.942848044056E+04   -0.15846E+05   -0.14652E+05  1432   0.709E+02
DAV:   3     0.273270573977E+04   -0.66958E+04   -0.60853E+04  1496   0.355E+02
DAV:   4    -0.361657598541E+03   -0.30944E+04   -0.28833E+04  2048   0.221E+02
DAV:   5    -0.142330736246E+04   -0.10616E+04   -0.10200E+04  2536   0.141E+02    0.116E+02
DAV:   6    -0.131239791445E+04    0.11091E+03   -0.14559E+03  2440   0.654E+01    0.505E+01
DAV:   7    -0.133431627249E+04   -0.21918E+02   -0.38354E+02  2544   0.333E+01    0.250E+01
DAV:   8    -0.134601613515E+04   -0.11700E+02   -0.30438E+02  2520   0.281E+01    0.290E+01
DAV:   9    -0.133541797782E+04    0.10598E+02   -0.71799E+01  2432   0.161E+01    0.772E+00
DAV:  10    -0.133679775433E+04   -0.13798E+01   -0.15438E+01  2616   0.880E+00    0.835E+00
DAV:  11    -0.133685278721E+04   -0.55033E-01   -0.88515E+00  2624   0.490E+00    0.404E+00
DAV:  12    -0.133669568260E+04    0.15710E+00   -0.29320E+00  2560   0.387E+00    0.261E+00
DAV:  13    -0.133677604806E+04   -0.80365E-01   -0.89301E-01  2536   0.180E+00    0.196E+00
DAV:  14    -0.133675935517E+04    0.16693E-01   -0.32820E-01  2624   0.116E+00    0.125E+00
DAV:  15    -0.133677003068E+04   -0.10676E-01   -0.11201E-01  2520   0.669E-01    0.112E+00
DAV:  16    -0.133676857612E+04    0.14546E-02   -0.38612E-02  2624   0.384E-01    0.708E-01
DAV:  17    -0.133676367057E+04    0.49055E-02   -0.30963E-02  2472   0.334E-01    0.331E-01
DAV:  18    -0.133676412629E+04   -0.45572E-03   -0.62197E-03  2480   0.174E-01    0.200E-01
DAV:  19    -0.133676391001E+04    0.21628E-03   -0.27303E-03  2488   0.976E-02    0.139E-01
DAV:  20    -0.133676392900E+04   -0.18987E-04   -0.71331E-04  2560   0.572E-02    0.508E-02
DAV:  21    -0.133676393737E+04   -0.83641E-05   -0.18378E-04  2624   0.282E-02    0.450E-02
DAV:  22    -0.133676395055E+04   -0.13182E-04   -0.71336E-05  2552   0.182E-02    0.230E-02
DAV:  23    -0.133676395111E+04   -0.56269E-06   -0.19882E-05  1872   0.932E-03    0.158E-02
DAV:  24    -0.133676395393E+04   -0.28171E-05   -0.90038E-06  1408   0.732E-03    0.869E-03
DAV:  25    -0.133676395399E+04   -0.66007E-07   -0.29413E-06  1040   0.475E-03
   1 F= -.13367640E+04 E0= -.13367640E+04  d E =-.133676E+04
 BRION: g(F)=  0.449E+02 g(S)=  0.000E+00
 bond charge predicted
       N       E                     dE             d eps       ncg     rms          rms(c)
DAV:   1    -0.132194631289E+04    0.14818E+02   -0.45640E+03  1712   0.103E+02    0.169E+01
DAV:   2    -0.135305704385E+04   -0.31111E+02   -0.36074E+02  2568   0.474E+01    0.110E+01
DAV:   3    -0.135244185169E+04    0.61519E+00   -0.22163E+01  2616   0.121E+01    0.782E+00
DAV:   4    -0.135133835330E+04    0.11035E+01   -0.63014E+00  2560   0.514E+00    0.415E+00
DAV:   5    -0.135107132126E+04    0.26703E+00   -0.17326E+00  2512   0.312E+00    0.237E+00
DAV:   6    -0.135100882425E+04    0.62497E-01   -0.15724E+00  2480   0.256E+00    0.102E+00
DAV:   7    -0.135103923200E+04   -0.30408E-01   -0.50116E-01  2336   0.145E+00    0.111E+00
DAV:   8    -0.135103368271E+04    0.55493E-02   -0.10864E-01  2608   0.577E-01    0.662E-01
DAV:   9    -0.135103123336E+04    0.24493E-02   -0.54812E-02  2600   0.442E-01    0.289E-01
DAV:  10    -0.135103113642E+04    0.96944E-04   -0.14688E-02  2416   0.271E-01    0.203E-01
DAV:  11    -0.135103119388E+04   -0.57469E-04   -0.84707E-03  2608   0.176E-01    0.135E-01
DAV:  12    -0.135103120930E+04   -0.15415E-04   -0.23788E-03  2624   0.913E-02    0.683E-02
DAV:  13    -0.135103122682E+04   -0.17517E-04   -0.75035E-04  2608   0.538E-02    0.356E-02
DAV:  14    -0.135103122955E+04   -0.27327E-05   -0.16604E-04  2624   0.283E-02    0.255E-02
DAV:  15    -0.135103122571E+04    0.38428E-05   -0.11989E-04  2448   0.207E-02    0.121E-02
DAV:  16    -0.135103122789E+04   -0.21822E-05   -0.38751E-05  2624   0.121E-02    0.784E-03
DAV:  17    -0.135103122744E+04    0.45288E-06   -0.42370E-06  1368   0.664E-03
   2 F= -.13510312E+04 E0= -.13510312E+04  d E =-.142673E+02
 BRION: g(F)=  0.969E+02 g(S)=  0.000E+00 retain N=  1 mean eig= 0.36
 eig:   0.358
 bond charge predicted
       N       E                     dE             d eps       ncg     rms          rms(c)
DAV:   1    -0.134095802830E+04    0.10073E+02   -0.13940E+03  1320   0.399E+01    0.170E+01
DAV:   2    -0.135943313746E+04   -0.18475E+02   -0.24878E+02  2552   0.225E+01    0.160E+01
DAV:   3    -0.135668738998E+04    0.27457E+01   -0.28851E+01  2488   0.871E+00    0.101E+01
DAV:   4    -0.135485568456E+04    0.18317E+01   -0.17105E+01  2168   0.448E+00    0.319E+00
DAV:   5    -0.135515224875E+04   -0.29656E+00   -0.38143E+00  2520   0.314E+00    0.376E+00
DAV:   6    -0.135489270105E+04    0.25955E+00   -0.21204E+00  2496   0.211E+00    0.119E+00
DAV:   7    -0.135494816178E+04   -0.55461E-01   -0.56871E-01  2496   0.142E+00    0.138E+00
DAV:   8    -0.135491060230E+04    0.37559E-01   -0.18354E-01  2520   0.809E-01    0.510E-01
DAV:   9    -0.135491240466E+04   -0.18024E-02   -0.67460E-02  2480   0.448E-01    0.193E-01
DAV:  10    -0.135491306649E+04   -0.66183E-03   -0.94201E-03  2568   0.205E-01    0.132E-01
DAV:  11    -0.135491294865E+04    0.11784E-03   -0.22317E-03  2592   0.101E-01    0.115E-01
DAV:  12    -0.135491283532E+04    0.11333E-03   -0.24074E-03  2424   0.770E-02    0.355E-02
DAV:  13    -0.135491287088E+04   -0.35560E-04   -0.48637E-04  2336   0.439E-02    0.252E-02
DAV:  14    -0.135491288113E+04   -0.10249E-04   -0.90985E-05  2448   0.172E-02    0.226E-02
DAV:  15    -0.135491287354E+04    0.75811E-05   -0.39040E-05  2512   0.132E-02    0.108E-02
DAV:  16    -0.135491287425E+04   -0.70797E-06   -0.29444E-05  2360   0.925E-03    0.371E-03
DAV:  17    -0.135491287430E+04   -0.50932E-07   -0.24623E-06  1160   0.510E-03
   3 F= -.13549129E+04 E0= -.13549129E+04  d E =-.388165E+01
 BRION: g(F)=  0.268E+02 g(S)=  0.000E+00 retain N=  2 mean eig= 1.11
 eig:   0.156  2.065
 bond charge predicted
       N       E                     dE             d eps       ncg     rms          rms(c)
DAV:   1    -0.135280188399E+04    0.21110E+01   -0.70262E+02  1376   0.291E+01    0.942E+00
DAV:   2    -0.135870648585E+04   -0.59046E+01   -0.72611E+01  2488   0.156E+01    0.615E+00
DAV:   3    -0.135822294038E+04    0.48355E+00   -0.49765E+00  2336   0.514E+00    0.469E+00
DAV:   4    -0.135795968151E+04    0.26326E+00   -0.49416E+00  2136   0.298E+00    0.217E+00
DAV:   5    -0.135797755505E+04   -0.17874E-01   -0.76774E-01  2256   0.180E+00    0.235E+00
DAV:   6    -0.135788217618E+04    0.95379E-01   -0.52340E-01  2320   0.129E+00    0.821E-01
DAV:   7    -0.135789056227E+04   -0.83861E-02   -0.32906E-01  2368   0.891E-01    0.686E-01
DAV:   8    -0.135789145361E+04   -0.89134E-03   -0.61670E-02  2496   0.452E-01    0.620E-01
DAV:   9    -0.135788551142E+04    0.59422E-02   -0.18788E-02  2424   0.253E-01    0.308E-01
DAV:  10    -0.135788531609E+04    0.19533E-03   -0.21514E-02  2464   0.206E-01    0.108E-01
DAV:  11    -0.135788525556E+04    0.60526E-04   -0.21249E-03  2456   0.984E-02    0.678E-02
DAV:  12    -0.135788526779E+04   -0.12227E-04   -0.98507E-04  2536   0.511E-02    0.317E-02
DAV:  13    -0.135788527436E+04   -0.65726E-05   -0.15146E-04  2616   0.289E-02    0.276E-02
DAV:  14    -0.135788526840E+04    0.59625E-05   -0.83993E-05  2600   0.166E-02    0.113E-02
DAV:  15    -0.135788526904E+04   -0.64325E-06   -0.22743E-05  2288   0.963E-03    0.390E-03
DAV:  16    -0.135788526902E+04    0.23123E-07   -0.20920E-06  1080   0.459E-03
   4 F= -.13578853E+04 E0= -.13578853E+04  d E =-.297239E+01
 BRION: g(F)=  0.594E+01 g(S)=  0.000E+00 retain N=  2 mean eig= 0.27
 eig:   0.270  0.270
 bond charge predicted
       N       E                     dE             d eps       ncg     rms          rms(c)
DAV:   1    -0.135944380233E+04   -0.15585E+01   -0.19492E+02  1376   0.197E+01    0.379E+00
DAV:   2    -0.136047022084E+04   -0.10264E+01   -0.11184E+01  2312   0.737E+00    0.186E+00
DAV:   3    -0.136048710966E+04   -0.16889E-01   -0.84134E-01  2616   0.171E+00    0.156E+00
DAV:   4    -0.136045224476E+04    0.34865E-01   -0.25592E-01  2512   0.994E-01    0.748E-01
DAV:   5    -0.136044981511E+04    0.24296E-02   -0.68718E-02  2440   0.588E-01    0.514E-01
DAV:   6    -0.136044867952E+04    0.11356E-02   -0.56517E-02  2544   0.419E-01    0.247E-01
DAV:   7    -0.136044870534E+04   -0.25822E-04   -0.13005E-02  2368   0.223E-01    0.211E-01
DAV:   8    -0.136044852692E+04    0.17842E-03   -0.46308E-03  2408   0.118E-01    0.116E-01
DAV:   9    -0.136044840403E+04    0.12288E-03   -0.20590E-03  2560   0.812E-02    0.580E-02
DAV:  10    -0.136044848880E+04   -0.84769E-04   -0.10318E-03  2480   0.580E-02    0.732E-02
DAV:  11    -0.136044842340E+04    0.65406E-04   -0.37287E-04  2504   0.376E-02    0.305E-02
DAV:  12    -0.136044842546E+04   -0.20609E-05   -0.18820E-04  2400   0.236E-02    0.174E-02
DAV:  13    -0.136044842695E+04   -0.14887E-05   -0.38952E-05  2392   0.127E-02    0.111E-02
DAV:  14    -0.136044842612E+04    0.82320E-06   -0.91389E-06  1728   0.648E-03
   5 F= -.13604484E+04 E0= -.13604484E+04  d E =-.256316E+01
 BRION: g(F)=  0.257E+01 g(S)=  0.000E+00 retain N=  3 mean eig= 0.26
 eig:   0.095  0.004  0.671
 bond charge predicted
       N       E                     dE             d eps       ncg     rms          rms(c)
DAV:   1    -0.136103475350E+04   -0.58633E+00   -0.16354E+02  1368   0.171E+01    0.280E+00
DAV:   2    -0.136182487897E+04   -0.79013E+00   -0.84154E+00  2296   0.639E+00    0.139E+00
DAV:   3    -0.136183817844E+04   -0.13299E-01   -0.53259E-01  2608   0.130E+00    0.116E+00
DAV:   4    -0.136181222439E+04    0.25954E-01   -0.13452E-01  2504   0.744E-01    0.593E-01
DAV:   5    -0.136180851109E+04    0.37133E-02   -0.56003E-02  2504   0.453E-01    0.384E-01
DAV:   6    -0.136180811899E+04    0.39211E-03   -0.26299E-02  2592   0.304E-01    0.207E-01
DAV:   7    -0.136180785891E+04    0.26008E-03   -0.87085E-03  2456   0.180E-01    0.136E-01
DAV:   8    -0.136180788663E+04   -0.27724E-04   -0.30976E-03  2496   0.977E-02    0.780E-02
DAV:   9    -0.136180782312E+04    0.63508E-04   -0.10046E-03  2624   0.591E-02    0.427E-02
DAV:  10    -0.136180784910E+04   -0.25980E-04   -0.39553E-04  2520   0.376E-02    0.390E-02
DAV:  11    -0.136180782910E+04    0.20005E-04   -0.16120E-04  2528   0.259E-02    0.139E-02
DAV:  12    -0.136180783328E+04   -0.41819E-05   -0.74925E-05  2384   0.162E-02    0.920E-03
DAV:  13    -0.136180783302E+04    0.25846E-06   -0.11775E-05  1824   0.801E-03    0.599E-03
DAV:  14    -0.136180783296E+04    0.55894E-07   -0.57164E-06  1448   0.535E-03
   6 F= -.13618078E+04 E0= -.13618078E+04  d E =-.135941E+01
 BRION: g(F)=  0.163E+01 g(S)=  0.000E+00 retain N=  4 mean eig= 0.58
 eig:   0.537  0.098  0.847  0.847
 bond charge predicted
       N       E                     dE             d eps       ncg     rms          rms(c)
DAV:   1    -0.136165211868E+04    0.15571E+00   -0.31648E+02  1368   0.245E+01    0.344E+00
DAV:   2    -0.136330174364E+04   -0.16496E+01   -0.17358E+01  2312   0.905E+00    0.184E+00
DAV:   3    -0.136334216915E+04   -0.40426E-01   -0.11423E+00  2600   0.193E+00    0.158E+00
DAV:   4    -0.136330303280E+04    0.39136E-01   -0.20161E-01  2576   0.906E-01    0.941E-01
DAV:   5    -0.136328016244E+04    0.22870E-01   -0.93237E-02  2400   0.589E-01    0.411E-01
DAV:   6    -0.136328251317E+04   -0.23507E-02   -0.61518E-02  2464   0.458E-01    0.421E-01
DAV:   7    -0.136328054129E+04    0.19719E-02   -0.23593E-02  2464   0.296E-01    0.269E-01
DAV:   8    -0.136328041248E+04    0.12881E-03   -0.13075E-02  2488   0.186E-01    0.115E-01
DAV:   9    -0.136328035759E+04    0.54893E-04   -0.17705E-03  2432   0.835E-02    0.828E-02
DAV:  10    -0.136328036418E+04   -0.65928E-05   -0.77204E-04  2432   0.485E-02    0.510E-02
DAV:  11    -0.136328034464E+04    0.19535E-04   -0.26645E-04  2520   0.360E-02    0.230E-02
DAV:  12    -0.136328035039E+04   -0.57471E-05   -0.16833E-04  2472   0.244E-02    0.206E-02
DAV:  13    -0.136328034774E+04    0.26537E-05   -0.71325E-05  2336   0.154E-02    0.108E-02
DAV:  14    -0.136328034758E+04    0.15763E-06   -0.15773E-05  1856   0.864E-03    0.701E-03
DAV:  15    -0.136328034766E+04   -0.83193E-07   -0.10303E-05  1624   0.617E-03    0.421E-03
DAV:  16    -0.136328034743E+04    0.23727E-06   -0.13539E-06  1032   0.461E-03
   7 F= -.13632803E+04 E0= -.13632803E+04  d E =-.147251E+01
 BRION: g(F)=  0.156E+01 g(S)=  0.000E+00 retain N=  5 mean eig= 0.73
 eig:   1.888  0.351  0.351  0.309  0.743
 bond charge predicted
       N       E                     dE             d eps       ncg     rms          rms(c)
DAV:   1    -0.136363160236E+04   -0.35125E+00   -0.51805E+01  1384   0.100E+01    0.145E+00
DAV:   2    -0.136389058847E+04   -0.25899E+00   -0.28155E+00  2280   0.385E+00    0.752E-01
DAV:   3    -0.136390163359E+04   -0.11045E-01   -0.22693E-01  2608   0.832E-01    0.615E-01
DAV:   4    -0.136389546268E+04    0.61709E-02   -0.29677E-02  2576   0.392E-01    0.369E-01
DAV:   5    -0.136389255763E+04    0.29050E-02   -0.18004E-02  2256   0.257E-01    0.167E-01
DAV:   6    -0.136389282814E+04   -0.27051E-03   -0.80646E-03  2488   0.177E-01    0.151E-01
DAV:   7    -0.136389274801E+04    0.80130E-04   -0.36746E-03  2536   0.108E-01    0.952E-02
DAV:   8    -0.136389268518E+04    0.62828E-04   -0.99556E-04  2600   0.612E-02    0.489E-02
DAV:   9    -0.136389267678E+04    0.84001E-05   -0.18038E-04  2584   0.294E-02    0.326E-02
DAV:  10    -0.136389268785E+04   -0.11067E-04   -0.22176E-04  2248   0.250E-02    0.275E-02
DAV:  11    -0.136389267577E+04    0.12077E-04   -0.54012E-05  2408   0.186E-02    0.134E-02
DAV:  12    -0.136389267835E+04   -0.25806E-05   -0.63681E-05  2288   0.123E-02    0.103E-02
DAV:  13    -0.136389267669E+04    0.16624E-05   -0.64536E-06  1480   0.686E-03    0.558E-03
DAV:  14    -0.136389267716E+04   -0.46745E-06   -0.10433E-05  1560   0.588E-03    0.214E-03
DAV:  15    -0.136389267713E+04    0.24942E-07   -0.87790E-07  1000   0.414E-03
   8 F= -.13638927E+04 E0= -.13638927E+04  d E =-.612330E+00
 BRION: g(F)=  0.398E+00 g(S)=  0.000E+00 retain N=  6 mean eig= 1.74
 eig:   3.980  3.980  1.088  0.181  0.595  0.595
 bond charge predicted
       N       E                     dE             d eps       ncg     rms          rms(c)
DAV:   1    -0.136399554936E+04   -0.10287E+00   -0.10378E+02  1376   0.145E+01    0.178E+00
DAV:   2    -0.136451789967E+04   -0.52235E+00   -0.54993E+00  2280   0.555E+00    0.890E-01
DAV:   3    -0.136454475328E+04   -0.26854E-01   -0.41815E-01  2616   0.109E+00    0.703E-01
DAV:   4    -0.136453602876E+04    0.87245E-02   -0.44548E-02  2592   0.502E-01    0.452E-01
DAV:   5    -0.136453113112E+04    0.48976E-02   -0.22372E-02  2344   0.303E-01    0.177E-01
DAV:   6    -0.136453171807E+04   -0.58694E-03   -0.12368E-02  2488   0.211E-01    0.144E-01
DAV:   7    -0.136453172248E+04   -0.44136E-05   -0.44894E-03  2464   0.130E-01    0.107E-01
DAV:   8    -0.136453170551E+04    0.16973E-04   -0.20109E-03  2600   0.812E-02    0.604E-02
DAV:   9    -0.136453167516E+04    0.30351E-04   -0.35610E-04  2560   0.419E-02    0.415E-02
DAV:  10    -0.136453167733E+04   -0.21728E-05   -0.28723E-04  2544   0.304E-02    0.245E-02
DAV:  11    -0.136453167522E+04    0.21099E-05   -0.82453E-05  2440   0.204E-02    0.106E-02
DAV:  12    -0.136453167758E+04   -0.23591E-05   -0.35271E-05  2336   0.121E-02    0.110E-02
DAV:  13    -0.136453167623E+04    0.13500E-05   -0.13526E-05  1784   0.747E-03    0.519E-03
DAV:  14    -0.136453167631E+04   -0.78740E-07   -0.62928E-06  1504   0.574E-03
   9 F= -.13645317E+04 E0= -.13645317E+04  d E =-.638999E+00
 BRION: g(F)=  0.473E+00 g(S)=  0.000E+00 retain N=  5 mean eig= 1.58
 eig:   4.895  1.052  1.052  0.426  0.452
 bond charge predicted
       N       E                     dE             d eps       ncg     rms          rms(c)
DAV:   1    -0.136431850250E+04    0.21317E+00   -0.28302E+01  1360   0.680E+00    0.106E+00
DAV:   2    -0.136444949601E+04   -0.13099E+00   -0.14068E+00  2272   0.259E+00    0.547E-01
DAV:   3    -0.136445148391E+04   -0.19879E-02   -0.95443E-02  2624   0.572E-01    0.413E-01
DAV:   4    -0.136444719638E+04    0.42875E-02   -0.14616E-02  2488   0.244E-01    0.227E-01
DAV:   5    -0.136444587146E+04    0.13249E-02   -0.87037E-03  2216   0.162E-01    0.113E-01
DAV:   6    -0.136444592072E+04   -0.49251E-04   -0.35253E-03  2472   0.104E-01    0.793E-02
DAV:   7    -0.136444591739E+04    0.33241E-05   -0.10151E-03  2456   0.563E-02    0.551E-02
DAV:   8    -0.136444589468E+04    0.22712E-04   -0.28002E-04  2512   0.317E-02    0.294E-02
DAV:   9    -0.136444589266E+04    0.20148E-05   -0.10604E-04  2448   0.194E-02    0.146E-02
DAV:  10    -0.136444589403E+04   -0.13630E-05   -0.36636E-05  2280   0.119E-02    0.126E-02
DAV:  11    -0.136444589196E+04    0.20625E-05   -0.16375E-05  1744   0.805E-03    0.463E-03
DAV:  12    -0.136444589223E+04   -0.26524E-06   -0.54164E-06  1392   0.557E-03
  10 F= -.13644459E+04 E0= -.13644459E+04  d E =0.857841E-01
 BRION: g(F)=  0.326E+00 g(S)=  0.000E+00 retain N=  6 mean eig= 2.54
 eig:   7.560  4.780  0.973  0.973  0.427  0.543
 bond charge predicted
       N       E                     dE             d eps       ncg     rms          rms(c)
DAV:   1    -0.136434853067E+04    0.97361E-01   -0.17692E+02  1376   0.189E+01    0.228E+00
DAV:   2    -0.136524359215E+04   -0.89506E+00   -0.94028E+00  2280   0.723E+00    0.111E+00
DAV:   3    -0.136529254543E+04   -0.48953E-01   -0.70762E-01  2584   0.142E+00    0.897E-01
DAV:   4    -0.136528156948E+04    0.10976E-01   -0.71923E-02  2576   0.631E-01    0.615E-01
DAV:   5    -0.136527234392E+04    0.92256E-02   -0.32560E-02  2368   0.382E-01    0.253E-01
DAV:   6    -0.136527287968E+04   -0.53576E-03   -0.22750E-02  2432   0.285E-01    0.175E-01
DAV:   7    -0.136527302635E+04   -0.14668E-03   -0.87991E-03  2432   0.179E-01    0.141E-01
DAV:   8    -0.136527299717E+04    0.29187E-04   -0.32341E-03  2592   0.107E-01    0.819E-02
DAV:   9    -0.136527294094E+04    0.56227E-04   -0.80756E-04  2568   0.575E-02    0.505E-02
DAV:  10    -0.136527295420E+04   -0.13260E-04   -0.35942E-04  2576   0.357E-02    0.319E-02
DAV:  11    -0.136527295319E+04    0.10139E-05   -0.13088E-04  2504   0.245E-02    0.180E-02
DAV:  12    -0.136527295241E+04    0.77218E-06   -0.58078E-05  2400   0.173E-02    0.159E-02
DAV:  13    -0.136527295106E+04    0.13571E-05   -0.45274E-05  2224   0.115E-02    0.809E-03
DAV:  14    -0.136527295102E+04    0.40789E-07   -0.12334E-05  1768   0.677E-03    0.358E-03
DAV:  15    -0.136527295110E+04   -0.88083E-07   -0.11511E-06   992   0.406E-03
  11 F= -.13652730E+04 E0= -.13652730E+04  d E =-.827059E+00
 BRION: g(F)=  0.237E+00 g(S)=  0.000E+00 retain N=  5 mean eig= 3.59
 eig:   6.884  6.884  2.418  1.130  0.635
 bond charge predicted
       N       E                     dE             d eps       ncg     rms          rms(c)
DAV:   1    -0.136545136357E+04   -0.17841E+00   -0.49219E+01  1376   0.101E+01    0.122E+00
DAV:   2    -0.136570682918E+04   -0.25547E+00   -0.27080E+00  2288   0.397E+00    0.596E-01
DAV:   3    -0.136572161237E+04   -0.14783E-01   -0.21181E-01  2584   0.773E-01    0.477E-01
DAV:   4    -0.136571833274E+04    0.32796E-02   -0.20963E-02  2592   0.348E-01    0.326E-01
DAV:   5    -0.136571592269E+04    0.24101E-02   -0.10986E-02  2344   0.209E-01    0.124E-01
DAV:   6    -0.136571624357E+04   -0.32089E-03   -0.58870E-03  2480   0.144E-01    0.101E-01
DAV:   7    -0.136571624773E+04   -0.41548E-05   -0.23044E-03  2496   0.902E-02    0.693E-02
DAV:   8    -0.136571624093E+04    0.67956E-05   -0.83220E-04  2608   0.560E-02    0.403E-02
DAV:   9    -0.136571623187E+04    0.90636E-05   -0.16345E-04  2536   0.281E-02    0.280E-02
DAV:  10    -0.136571623431E+04   -0.24370E-05   -0.10461E-04  2552   0.189E-02    0.147E-02
DAV:  11    -0.136571623436E+04   -0.56287E-07   -0.32324E-05  2376   0.126E-02    0.683E-03
DAV:  12    -0.136571623489E+04   -0.53203E-06   -0.10352E-05  1832   0.796E-03    0.604E-03
DAV:  13    -0.136571623447E+04    0.42429E-06   -0.35884E-06  1200   0.516E-03
  12 F= -.13657162E+04 E0= -.13657162E+04  d E =-.443283E+00
 BRION: g(F)=  0.170E+00 g(S)=  0.000E+00 retain N=  5 mean eig= 3.74
 eig:   7.770  7.770  1.535  1.535  0.111
 bond charge predicted
       N       E                     dE             d eps       ncg     rms          rms(c)
DAV:   1    -0.136588593339E+04   -0.16970E+00   -0.44063E+01  1376   0.953E+00    0.110E+00
DAV:   2    -0.136611653454E+04   -0.23060E+00   -0.24454E+00  2304   0.379E+00    0.550E-01
DAV:   3    -0.136613042128E+04   -0.13887E-01   -0.19274E-01  2576   0.725E-01    0.438E-01
DAV:   4    -0.136612786417E+04    0.25571E-02   -0.18135E-02  2592   0.324E-01    0.314E-01
DAV:   5    -0.136612534533E+04    0.25188E-02   -0.88518E-03  2344   0.198E-01    0.125E-01
DAV:   6    -0.136612550373E+04   -0.15840E-03   -0.61572E-03  2432   0.150E-01    0.942E-02
DAV:   7    -0.136612555013E+04   -0.46404E-04   -0.26638E-03  2440   0.948E-02    0.720E-02
DAV:   8    -0.136612553601E+04    0.14126E-04   -0.81656E-04  2616   0.569E-02    0.407E-02
DAV:   9    -0.136612552490E+04    0.11112E-04   -0.21266E-04  2472   0.297E-02    0.263E-02
DAV:  10    -0.136612552872E+04   -0.38271E-05   -0.95482E-05  2480   0.189E-02    0.162E-02
DAV:  11    -0.136612552841E+04    0.31122E-06   -0.31816E-05  2368   0.127E-02    0.887E-03
DAV:  12    -0.136612552879E+04   -0.38095E-06   -0.16918E-05  2096   0.893E-03    0.827E-03
DAV:  13    -0.136612552811E+04    0.68058E-06   -0.89515E-06  1664   0.642E-03
  13 F= -.13661255E+04 E0= -.13661255E+04  d E =-.409294E+00
 BRION: g(F)=  0.150E+00 g(S)=  0.000E+00 retain N=  5 mean eig= 4.16
 eig:   7.383  7.383  2.244  2.244  1.535
 bond charge predicted
       N       E                     dE             d eps       ncg     rms          rms(c)
DAV:   1    -0.136620593864E+04   -0.80410E-01   -0.75686E+01  1376   0.124E+01    0.143E+00
DAV:   2    -0.136659367448E+04   -0.38774E+00   -0.41052E+00  2288   0.487E+00    0.719E-01
DAV:   3    -0.136661694775E+04   -0.23273E-01   -0.32794E-01  2592   0.960E-01    0.575E-01
DAV:   4    -0.136661248385E+04    0.44639E-02   -0.30647E-02  2584   0.417E-01    0.409E-01
DAV:   5    -0.136660817764E+04    0.43062E-02   -0.14862E-02  2352   0.244E-01    0.169E-01
DAV:   6    -0.136660829934E+04   -0.12170E-03   -0.96885E-03  2368   0.185E-01    0.118E-01
DAV:   7    -0.136660839441E+04   -0.95076E-04   -0.45182E-03  2448   0.125E-01    0.909E-02
DAV:   8    -0.136660837942E+04    0.14996E-04   -0.14078E-03  2600   0.741E-02    0.579E-02
DAV:   9    -0.136660835811E+04    0.21301E-04   -0.37374E-04  2552   0.392E-02    0.364E-02
DAV:  10    -0.136660836372E+04   -0.56062E-05   -0.16933E-04  2584   0.243E-02    0.207E-02
DAV:  11    -0.136660836526E+04   -0.15428E-05   -0.50767E-05  2456   0.159E-02    0.131E-02
DAV:  12    -0.136660836459E+04    0.67291E-06   -0.31227E-05  2320   0.119E-02    0.109E-02
DAV:  13    -0.136660836377E+04    0.81990E-06   -0.17354E-05  1984   0.800E-03    0.587E-03
DAV:  14    -0.136660836378E+04   -0.14261E-07   -0.76787E-06  1712   0.571E-03
  14 F= -.13666084E+04 E0= -.13666084E+04  d E =-.482836E+00
 BRION: g(F)=  0.122E+00 g(S)=  0.000E+00 retain N=  4 mean eig= 5.03
 eig:   7.693  7.693  1.851  2.899
 bond charge predicted
       N       E                     dE             d eps       ncg     rms          rms(c)
DAV:   1    -0.136670497430E+04   -0.96611E-01   -0.50165E+01  1384   0.101E+01    0.115E+00
DAV:   2    -0.136695902836E+04   -0.25405E+00   -0.26736E+00  2280   0.395E+00    0.577E-01
DAV:   3    -0.136697400892E+04   -0.14981E-01   -0.21082E-01  2576   0.768E-01    0.461E-01
DAV:   4    -0.136697111250E+04    0.28964E-02   -0.19888E-02  2584   0.330E-01    0.331E-01
DAV:   5    -0.136696793512E+04    0.31774E-02   -0.96002E-03  2344   0.208E-01    0.135E-01
DAV:   6    -0.136696806249E+04   -0.12737E-03   -0.73439E-03  2384   0.160E-01    0.961E-02
DAV:   7    -0.136696810955E+04   -0.47065E-04   -0.28445E-03  2432   0.102E-01    0.756E-02
DAV:   8    -0.136696809536E+04    0.14191E-04   -0.91444E-04  2616   0.583E-02    0.433E-02
DAV:   9    -0.136696808162E+04    0.13744E-04   -0.24969E-04  2528   0.320E-02    0.274E-02
DAV:  10    -0.136696808605E+04   -0.44299E-05   -0.10402E-04  2512   0.198E-02    0.170E-02
DAV:  11    -0.136696808563E+04    0.42094E-06   -0.32372E-05  2408   0.129E-02    0.937E-03
DAV:  12    -0.136696808608E+04   -0.45689E-06   -0.20148E-05  2184   0.940E-03    0.881E-03
DAV:  13    -0.136696808534E+04    0.74266E-06   -0.98462E-06  1728   0.653E-03
  15 F= -.13669681E+04 E0= -.13669681E+04  d E =-.359722E+00
 BRION: g(F)=  0.105E+00 g(S)=  0.000E+00 retain N=  2 mean eig= 4.75
 eig:   4.754  4.754
 bond charge predicted
       N       E                     dE             d eps       ncg     rms          rms(c)
DAV:   1    -0.136708647930E+04   -0.11839E+00   -0.15520E+01  1376   0.562E+00    0.652E-01
DAV:   2    -0.136716509105E+04   -0.78612E-01   -0.83018E-01  2304   0.220E+00    0.324E-01
DAV:   3    -0.136716983997E+04   -0.47489E-02   -0.66526E-02  2584   0.424E-01    0.258E-01
DAV:   4    -0.136716889102E+04    0.94895E-03   -0.62894E-03  2600   0.187E-01    0.181E-01
DAV:   5    -0.136716801503E+04    0.87598E-03   -0.32698E-03  2344   0.116E-01    0.698E-02
DAV:   6    -0.136716809147E+04   -0.76438E-04   -0.19415E-03  2440   0.815E-02    0.570E-02
DAV:   7    -0.136716809180E+04   -0.32548E-06   -0.76166E-04  2464   0.527E-02    0.402E-02
DAV:   8    -0.136716808633E+04    0.54653E-05   -0.28094E-04  2552   0.325E-02    0.231E-02
DAV:   9    -0.136716808372E+04    0.26137E-05   -0.60878E-05  2464   0.166E-02    0.159E-02
DAV:  10    -0.136716808416E+04   -0.43903E-06   -0.31081E-05  2440   0.105E-02    0.864E-03
DAV:  11    -0.136716808381E+04    0.34767E-06   -0.57247E-06  1320   0.732E-03
  16 F= -.13671681E+04 E0= -.13671681E+04  d E =-.199998E+00
 BRION: g(F)=  0.969E-01 g(S)=  0.000E+00 retain N=  3 mean eig= 5.53
 eig:   7.316  7.316  1.970
 bond charge predicted
       N       E                     dE             d eps       ncg     rms          rms(c)
DAV:   1    -0.136727560417E+04   -0.10752E+00   -0.25135E+01  1368   0.710E+00    0.808E-01
DAV:   2    -0.136739977015E+04   -0.12417E+00   -0.13066E+00  2304   0.277E+00    0.404E-01
DAV:   3    -0.136740710011E+04   -0.73300E-02   -0.10240E-01  2568   0.528E-01    0.325E-01
DAV:   4    -0.136740572322E+04    0.13769E-02   -0.94907E-03  2600   0.223E-01    0.234E-01
DAV:   5    -0.136740411396E+04    0.16093E-02   -0.53597E-03  2272   0.151E-01    0.888E-02
DAV:   6    -0.136740428183E+04   -0.16787E-03   -0.35820E-03  2384   0.107E-01    0.791E-02
DAV:   7    -0.136740426765E+04    0.14179E-04   -0.11347E-03  2496   0.652E-02    0.559E-02
DAV:   8    -0.136740424844E+04    0.19213E-04   -0.46323E-04  2544   0.409E-02    0.279E-02
DAV:   9    -0.136740424462E+04    0.38152E-05   -0.97760E-05  2256   0.209E-02    0.189E-02
DAV:  10    -0.136740424590E+04   -0.12797E-05   -0.38031E-05  2320   0.122E-02    0.985E-03
DAV:  11    -0.136740424560E+04    0.30261E-06   -0.89032E-06  1752   0.776E-03
  17 F= -.13674042E+04 E0= -.13674042E+04  d E =-.236162E+00
 BRION: g(F)=  0.882E-01 g(S)=  0.000E+00 retain N=  3 mean eig= 5.34
 eig:   7.152  7.152  1.705
 bond charge predicted
       N       E                     dE             d eps       ncg     rms          rms(c)
DAV:   1    -0.136744701742E+04   -0.42772E-01   -0.53207E+01  1368   0.103E+01    0.117E+00
DAV:   2    -0.136771237379E+04   -0.26536E+00   -0.27883E+00  2320   0.401E+00    0.589E-01
DAV:   3    -0.136772735732E+04   -0.14984E-01   -0.21356E-01  2600   0.774E-01    0.470E-01
DAV:   4    -0.136772423326E+04    0.31241E-02   -0.20392E-02  2624   0.331E-01    0.332E-01
DAV:   5    -0.136772092472E+04    0.33085E-02   -0.10087E-02  2328   0.216E-01    0.130E-01
DAV:   6    -0.136772117589E+04   -0.25117E-03   -0.75245E-03  2384   0.159E-01    0.105E-01
DAV:   7    -0.136772118504E+04   -0.91489E-05   -0.24769E-03  2416   0.957E-02    0.801E-02
DAV:   8    -0.136772115771E+04    0.27328E-04   -0.96290E-04  2584   0.575E-02    0.419E-02
DAV:   9    -0.136772114428E+04    0.13432E-04   -0.24513E-04  2368   0.324E-02    0.269E-02
DAV:  10    -0.136772114868E+04   -0.44047E-05   -0.10013E-04  2376   0.196E-02    0.172E-02
DAV:  11    -0.136772114697E+04    0.17095E-05   -0.28801E-05  2408   0.125E-02    0.836E-03
DAV:  12    -0.136772114814E+04   -0.11680E-05   -0.21402E-05  2120   0.873E-03    0.809E-03
DAV:  13    -0.136772114723E+04    0.90791E-06   -0.43405E-06  1264   0.580E-03
  18 F= -.13677211E+04 E0= -.13677211E+04  d E =-.316902E+00
 BRION: g(F)=  0.760E-01 g(S)=  0.000E+00 retain N=  3 mean eig= 5.80
 eig:   7.871  7.871  1.655
 bond charge predicted
       N       E                     dE             d eps       ncg     rms          rms(c)
DAV:   1    -0.136778888689E+04   -0.67739E-01   -0.26280E+01  1360   0.726E+00    0.826E-01
DAV:   2    -0.136791793915E+04   -0.12905E+00   -0.13576E+00  2312   0.280E+00    0.411E-01
DAV:   3    -0.136792525217E+04   -0.73130E-02   -0.10399E-01  2608   0.541E-01    0.329E-01
DAV:   4    -0.136792372104E+04    0.15311E-02   -0.95475E-03  2608   0.228E-01    0.232E-01
DAV:   5    -0.136792213166E+04    0.15894E-02   -0.54153E-03  2256   0.152E-01    0.875E-02
DAV:   6    -0.136792231615E+04   -0.18449E-03   -0.36018E-03  2432   0.107E-01    0.814E-02
DAV:   7    -0.136792229500E+04    0.21152E-04   -0.10737E-03  2488   0.636E-02    0.574E-02
DAV:   8    -0.136792227360E+04    0.21401E-04   -0.49432E-04  2512   0.412E-02    0.279E-02
DAV:   9    -0.136792227063E+04    0.29730E-05   -0.94737E-05  2256   0.210E-02    0.191E-02
DAV:  10    -0.136792227122E+04   -0.59076E-06   -0.34600E-05  2384   0.121E-02    0.987E-03
DAV:  11    -0.136792227100E+04    0.21544E-06   -0.94982E-06  1776   0.761E-03
  19 F= -.13679223E+04 E0= -.13679223E+04  d E =-.201124E+00
 BRION: g(F)=  0.666E-01 g(S)=  0.000E+00 retain N=  2 mean eig= 5.26
 eig:   5.261  5.261
 bond charge predicted
       N       E                     dE             d eps       ncg     rms          rms(c)
DAV:   1    -0.136798960838E+04   -0.67337E-01   -0.19659E+01  1360   0.628E+00    0.708E-01
DAV:   2    -0.136808552103E+04   -0.95913E-01   -0.10061E+00  2312   0.240E+00    0.351E-01
DAV:   3    -0.136809077668E+04   -0.52557E-02   -0.75425E-02  2600   0.474E-01    0.281E-01
DAV:   4    -0.136808961495E+04    0.11617E-02   -0.71020E-03  2592   0.195E-01    0.196E-01
DAV:   5    -0.136808846385E+04    0.11511E-02   -0.41041E-03  2232   0.134E-01    0.707E-02
DAV:   6    -0.136808863049E+04   -0.16664E-03   -0.26281E-03  2448   0.920E-02    0.709E-02
DAV:   7    -0.136808861264E+04    0.17846E-04   -0.68993E-04  2520   0.513E-02    0.494E-02
DAV:   8    -0.136808859477E+04    0.17873E-04   -0.32432E-04  2520   0.336E-02    0.228E-02
DAV:   9    -0.136808859362E+04    0.11494E-05   -0.59994E-05  2256   0.170E-02    0.154E-02
DAV:  10    -0.136808859411E+04   -0.48442E-06   -0.19749E-05  2144   0.970E-03    0.750E-03
DAV:  11    -0.136808859381E+04    0.29072E-06   -0.32304E-06  1120   0.612E-03
  20 F= -.13680886E+04 E0= -.13680886E+04  d E =-.166323E+00
 BRION: g(F)=  0.604E-01 g(S)=  0.000E+00 retain N=  2 mean eig= 5.46
 eig:   5.461  5.461
