 running on  160 total cores
 distrk:  each k-point on  160 cores,    1 groups
 distr:  one band on   20 cores,    8 groups
 using from now: INCAR     
 vasp.5.4.4.18Apr17-6-g9f103f2a35 (build May 01 2020 14:22:42) gamma-only       
  
 POSCAR found type information on POSCAR  O  La Zr Li Al
 POSCAR found :  5 types and     190 ions
 scaLAPACK will be used
 LDA part: xc-table for Pade appr. of Perdew
 POSCAR, INCAR and KPOINTS ok, starting setup
 FFT: planning ...
 WAVECAR not read
 WARNING: random wavefunctions but no delay for mixing, default for NELMDL
 entering main loop
       N       E                     dE             d eps       ncg     rms          rms(c)
DAV:   1     0.254456893236E+05    0.25446E+05   -0.41926E+05  1568   0.253E+03
DAV:   2     0.952594308536E+04   -0.15920E+05   -0.14671E+05  1416   0.712E+02
DAV:   3     0.275088774340E+04   -0.67751E+04   -0.61710E+04  1480   0.358E+02
DAV:   4    -0.376373931882E+03   -0.31273E+04   -0.29185E+04  2048   0.224E+02
DAV:   5    -0.142394082115E+04   -0.10476E+04   -0.10110E+04  2520   0.143E+02    0.116E+02
DAV:   6    -0.130683329935E+04    0.11711E+03   -0.14247E+03  2448   0.651E+01    0.504E+01
DAV:   7    -0.132850259280E+04   -0.21669E+02   -0.37078E+02  2560   0.332E+01    0.246E+01
DAV:   8    -0.133973907850E+04   -0.11236E+02   -0.28137E+02  2528   0.270E+01    0.281E+01
DAV:   9    -0.133004998256E+04    0.96891E+01   -0.66527E+01  2432   0.155E+01    0.760E+00
DAV:  10    -0.133125552259E+04   -0.12055E+01   -0.15208E+01  2616   0.857E+00    0.785E+00
DAV:  11    -0.133141605759E+04   -0.16054E+00   -0.73266E+00  2616   0.461E+00    0.394E+00
DAV:  12    -0.133128120897E+04    0.13485E+00   -0.25233E+00  2600   0.364E+00    0.285E+00
DAV:  13    -0.133135272288E+04   -0.71514E-01   -0.85820E-01  2560   0.177E+00    0.199E+00
DAV:  14    -0.133133554384E+04    0.17179E-01   -0.30604E-01  2616   0.115E+00    0.119E+00
DAV:  15    -0.133134342212E+04   -0.78783E-02   -0.98245E-02  2520   0.653E-01    0.103E+00
DAV:  16    -0.133134276042E+04    0.66169E-03   -0.28736E-02  2624   0.329E-01    0.610E-01
DAV:  17    -0.133133905325E+04    0.37072E-02   -0.26268E-02  2440   0.313E-01    0.304E-01
DAV:  18    -0.133133944218E+04   -0.38892E-03   -0.62905E-03  2480   0.171E-01    0.136E-01
DAV:  19    -0.133133944775E+04   -0.55703E-05   -0.17313E-03  2568   0.846E-02    0.994E-02
DAV:  20    -0.133133947894E+04   -0.31190E-04   -0.49778E-04  2616   0.479E-02    0.222E-02
DAV:  21    -0.133133948949E+04   -0.10551E-04   -0.13679E-04  2624   0.247E-02    0.243E-02
DAV:  22    -0.133133950387E+04   -0.14382E-04   -0.53356E-05  2456   0.154E-02    0.106E-02
DAV:  23    -0.133133950071E+04    0.31614E-05   -0.20309E-05  1816   0.934E-03    0.117E-02
DAV:  24    -0.133133950563E+04   -0.49251E-05   -0.72300E-06  1184   0.755E-03    0.268E-03
DAV:  25    -0.133133950382E+04    0.18116E-05   -0.32971E-06  1008   0.478E-03    0.519E-03
DAV:  26    -0.133133950459E+04   -0.76415E-06   -0.18640E-06   992   0.526E-03
   1 F= -.13313395E+04 E0= -.13313395E+04  d E =-.133134E+04
 BRION: g(F)=  0.575E+02 g(S)=  0.000E+00
 bond charge predicted
       N       E                     dE             d eps       ncg     rms          rms(c)
DAV:   1    -0.130830568942E+04    0.23034E+02   -0.60055E+03  1632   0.112E+02    0.264E+01
DAV:   2    -0.135516426903E+04   -0.46859E+02   -0.53861E+02  2576   0.529E+01    0.133E+01
DAV:   3    -0.135361308838E+04    0.15512E+01   -0.31046E+01  2608   0.138E+01    0.896E+00
DAV:   4    -0.135194317969E+04    0.16699E+01   -0.10845E+01  2408   0.672E+00    0.461E+00
DAV:   5    -0.135171586882E+04    0.22731E+00   -0.31360E+00  2552   0.389E+00    0.305E+00
DAV:   6    -0.135161143257E+04    0.10444E+00   -0.26337E+00  2464   0.307E+00    0.178E+00
DAV:   7    -0.135160558966E+04    0.58429E-02   -0.63359E-01  2536   0.180E+00    0.142E+00
DAV:   8    -0.135159261716E+04    0.12973E-01   -0.34245E-01  2624   0.971E-01    0.567E-01
DAV:   9    -0.135159383233E+04   -0.12152E-02   -0.54410E-02  2624   0.492E-01    0.317E-01
DAV:  10    -0.135159313864E+04    0.69369E-03   -0.12131E-02  2616   0.254E-01    0.176E-01
DAV:  11    -0.135159372014E+04   -0.58150E-03   -0.10215E-02  2624   0.187E-01    0.134E-01
DAV:  12    -0.135159370434E+04    0.15807E-04   -0.17138E-03  2552   0.909E-02    0.594E-02
DAV:  13    -0.135159373297E+04   -0.28631E-04   -0.81421E-04  2624   0.508E-02    0.258E-02
DAV:  14    -0.135159374446E+04   -0.11490E-04   -0.14214E-04  2624   0.269E-02    0.132E-02
DAV:  15    -0.135159374751E+04   -0.30470E-05   -0.49419E-05  2624   0.140E-02    0.970E-03
DAV:  16    -0.135159374929E+04   -0.17846E-05   -0.21938E-05  2472   0.978E-03    0.611E-03
DAV:  17    -0.135159374923E+04    0.56636E-07   -0.29638E-06  1136   0.535E-03
   2 F= -.13515937E+04 E0= -.13515937E+04  d E =-.202542E+02
 BRION: g(F)=  0.263E+02 g(S)=  0.000E+00 retain N=  1 mean eig= 0.63
 eig:   0.635
 bond charge predicted
       N       E                     dE             d eps       ncg     rms          rms(c)
DAV:   1    -0.134283657897E+04    0.87572E+01   -0.23343E+03  1464   0.678E+01    0.136E+01
DAV:   2    -0.135872125204E+04   -0.15885E+02   -0.19327E+02  2368   0.288E+01    0.113E+01
DAV:   3    -0.135901549255E+04   -0.29424E+00   -0.15394E+01  2584   0.919E+00    0.927E+00
DAV:   4    -0.135824618085E+04    0.76931E+00   -0.47982E+00  2480   0.385E+00    0.528E+00
DAV:   5    -0.135820213611E+04    0.44045E-01   -0.28488E+00  2216   0.300E+00    0.411E+00
DAV:   6    -0.135794539405E+04    0.25674E+00   -0.18323E+00  2496   0.257E+00    0.198E+00
DAV:   7    -0.135795132505E+04   -0.59310E-02   -0.99815E-01  2480   0.159E+00    0.106E+00
DAV:   8    -0.135794094561E+04    0.10379E-01   -0.13589E-01  2560   0.759E-01    0.473E-01
DAV:   9    -0.135794393294E+04   -0.29873E-02   -0.50062E-02  2568   0.379E-01    0.434E-01
DAV:  10    -0.135794153631E+04    0.23966E-02   -0.11047E-02  2576   0.239E-01    0.206E-01
DAV:  11    -0.135794188524E+04   -0.34893E-03   -0.12433E-02  2480   0.170E-01    0.104E-01
DAV:  12    -0.135794179655E+04    0.88684E-04   -0.12594E-03  2608   0.818E-02    0.484E-02
DAV:  13    -0.135794182994E+04   -0.33386E-04   -0.81954E-04  2552   0.472E-02    0.342E-02
DAV:  14    -0.135794182323E+04    0.67116E-05   -0.12919E-04  2560   0.258E-02    0.194E-02
DAV:  15    -0.135794182770E+04   -0.44729E-05   -0.98672E-05  2512   0.168E-02    0.947E-03
DAV:  16    -0.135794182866E+04   -0.95958E-06   -0.15195E-05  1992   0.880E-03    0.799E-03
DAV:  17    -0.135794182788E+04    0.78109E-06   -0.30656E-06  1152   0.550E-03
   3 F= -.13579418E+04 E0= -.13579418E+04  d E =-.634808E+01
 BRION: g(F)=  0.441E+01 g(S)=  0.000E+00 retain N=  2 mean eig= 0.94
 eig:   0.455  1.422
 bond charge predicted
       N       E                     dE             d eps       ncg     rms          rms(c)
DAV:   1    -0.135881823196E+04   -0.87640E+00   -0.31670E+02  1352   0.257E+01    0.464E+00
DAV:   2    -0.136042070346E+04   -0.16025E+01   -0.18227E+01  2288   0.105E+01    0.211E+00
DAV:   3    -0.136047443049E+04   -0.53727E-01   -0.14855E+00  2608   0.232E+00    0.180E+00
DAV:   4    -0.136042983585E+04    0.44595E-01   -0.27681E-01  2576   0.115E+00    0.101E+00
DAV:   5    -0.136041646650E+04    0.13369E-01   -0.14033E-01  2192   0.706E-01    0.551E-01
DAV:   6    -0.136041670920E+04   -0.24270E-03   -0.64544E-02  2528   0.493E-01    0.441E-01
DAV:   7    -0.136041576018E+04    0.94902E-03   -0.39819E-02  2392   0.349E-01    0.256E-01
DAV:   8    -0.136041567080E+04    0.89383E-04   -0.92267E-03  2576   0.187E-01    0.139E-01
DAV:   9    -0.136041560196E+04    0.68839E-04   -0.22133E-03  2624   0.964E-02    0.886E-02
DAV:  10    -0.136041573037E+04   -0.12842E-03   -0.15945E-03  2256   0.670E-02    0.865E-02
DAV:  11    -0.136041561588E+04    0.11450E-03   -0.76375E-04  2512   0.540E-02    0.318E-02
DAV:  12    -0.136041563506E+04   -0.19186E-04   -0.42916E-04  2520   0.368E-02    0.281E-02
DAV:  13    -0.136041562700E+04    0.80609E-05   -0.82752E-05  2432   0.193E-02    0.119E-02
DAV:  14    -0.136041562866E+04   -0.16586E-05   -0.30166E-05  2352   0.101E-02    0.452E-03
DAV:  15    -0.136041562908E+04   -0.41515E-06   -0.31346E-06  1184   0.530E-03
   4 F= -.13604156E+04 E0= -.13604156E+04  d E =-.247380E+01
 BRION: g(F)=  0.140E+01 g(S)=  0.000E+00 retain N=  3 mean eig= 1.00
 eig:   0.628  1.188  1.188
 bond charge predicted
       N       E                     dE             d eps       ncg     rms          rms(c)
DAV:   1    -0.136087829793E+04   -0.46267E+00   -0.17200E+02  1360   0.188E+01    0.264E+00
DAV:   2    -0.136169616565E+04   -0.81787E+00   -0.87197E+00  2272   0.696E+00    0.130E+00
DAV:   3    -0.136173093026E+04   -0.34765E-01   -0.65914E-01  2608   0.146E+00    0.107E+00
DAV:   4    -0.136171282366E+04    0.18107E-01   -0.93892E-02  2552   0.679E-01    0.623E-01
DAV:   5    -0.136170627081E+04    0.65528E-02   -0.49137E-02  2280   0.446E-01    0.288E-01
DAV:   6    -0.136170733071E+04   -0.10599E-02   -0.23834E-02  2520   0.302E-01    0.243E-01
DAV:   7    -0.136170700552E+04    0.32519E-03   -0.99700E-03  2504   0.187E-01    0.152E-01
DAV:   8    -0.136170692784E+04    0.77675E-04   -0.29405E-03  2584   0.106E-01    0.777E-02
DAV:   9    -0.136170690040E+04    0.27440E-04   -0.57123E-04  2560   0.524E-02    0.542E-02
DAV:  10    -0.136170693415E+04   -0.33745E-04   -0.56014E-04  2280   0.393E-02    0.483E-02
DAV:  11    -0.136170690054E+04    0.33605E-04   -0.20797E-04  2504   0.311E-02    0.187E-02
DAV:  12    -0.136170690660E+04   -0.60644E-05   -0.12594E-04  2416   0.199E-02    0.178E-02
DAV:  13    -0.136170690313E+04    0.34758E-05   -0.31837E-05  2112   0.118E-02    0.744E-03
DAV:  14    -0.136170690346E+04   -0.32966E-06   -0.10726E-05  1784   0.699E-03    0.283E-03
DAV:  15    -0.136170690365E+04   -0.18666E-06   -0.11774E-06   992   0.400E-03
   5 F= -.13617069E+04 E0= -.13617069E+04  d E =-.129127E+01
 BRION: g(F)=  0.960E+00 g(S)=  0.000E+00 retain N=  4 mean eig= 1.45
 eig:   2.159  2.159  0.743  0.743
 bond charge predicted
       N       E                     dE             d eps       ncg     rms          rms(c)
DAV:   1    -0.136198627065E+04   -0.27937E+00   -0.13934E+02  1360   0.169E+01    0.220E+00
DAV:   2    -0.136267278881E+04   -0.68652E+00   -0.72208E+00  2288   0.627E+00    0.114E+00
DAV:   3    -0.136270375131E+04   -0.30962E-01   -0.53600E-01  2624   0.127E+00    0.905E-01
DAV:   4    -0.136268986418E+04    0.13887E-01   -0.73662E-02  2552   0.603E-01    0.517E-01
DAV:   5    -0.136268597137E+04    0.38928E-02   -0.31222E-02  2440   0.355E-01    0.231E-01
DAV:   6    -0.136268667330E+04   -0.70193E-03   -0.13260E-02  2552   0.220E-01    0.158E-01
DAV:   7    -0.136268657836E+04    0.94942E-04   -0.46280E-03  2368   0.138E-01    0.103E-01
DAV:   8    -0.136268663442E+04   -0.56058E-04   -0.21287E-03  2440   0.806E-02    0.638E-02
DAV:   9    -0.136268660173E+04    0.32689E-04   -0.38410E-04  2568   0.445E-02    0.455E-02
DAV:  10    -0.136268660989E+04   -0.81679E-05   -0.51047E-04  2456   0.382E-02    0.318E-02
DAV:  11    -0.136268659943E+04    0.10467E-04   -0.15230E-04  2472   0.268E-02    0.111E-02
DAV:  12    -0.136268660378E+04   -0.43497E-05   -0.54805E-05  2368   0.145E-02    0.116E-02
DAV:  13    -0.136268660192E+04    0.18578E-05   -0.12836E-05  1720   0.820E-03    0.478E-03
DAV:  14    -0.136268660235E+04   -0.43034E-06   -0.90783E-06  1712   0.650E-03
   6 F= -.13626866E+04 E0= -.13626866E+04  d E =-.979699E+00
 BRION: g(F)=  0.588E+00 g(S)=  0.000E+00 retain N=  5 mean eig= 1.68
 eig:   3.021  3.021  0.826  0.826  0.727
 bond charge predicted
       N       E                     dE             d eps       ncg     rms          rms(c)
DAV:   1    -0.136294176927E+04   -0.25517E+00   -0.63339E+01  1360   0.114E+01    0.148E+00
DAV:   2    -0.136325609778E+04   -0.31433E+00   -0.33287E+00  2272   0.434E+00    0.746E-01
DAV:   3    -0.136327275707E+04   -0.16659E-01   -0.25681E-01  2624   0.889E-01    0.596E-01
DAV:   4    -0.136326744442E+04    0.53126E-02   -0.29760E-02  2600   0.402E-01    0.374E-01
DAV:   5    -0.136326504978E+04    0.23946E-02   -0.16424E-02  2336   0.262E-01    0.155E-01
DAV:   6    -0.136326559306E+04   -0.54328E-03   -0.80112E-03  2552   0.173E-01    0.139E-01
DAV:   7    -0.136326550228E+04    0.90770E-04   -0.28430E-03  2552   0.103E-01    0.906E-02
DAV:   8    -0.136326546171E+04    0.40577E-04   -0.11584E-03  2576   0.650E-02    0.439E-02
DAV:   9    -0.136326545521E+04    0.64975E-05   -0.17832E-04  2568   0.309E-02    0.307E-02
DAV:  10    -0.136326546168E+04   -0.64716E-05   -0.15284E-04  2376   0.228E-02    0.199E-02
DAV:  11    -0.136326545820E+04    0.34819E-05   -0.36875E-05  2448   0.154E-02    0.926E-03
DAV:  12    -0.136326546063E+04   -0.24306E-05   -0.34993E-05  2160   0.964E-03    0.105E-02
DAV:  13    -0.136326545873E+04    0.19045E-05   -0.62665E-06  1352   0.683E-03    0.525E-03
DAV:  14    -0.136326545928E+04   -0.55613E-06   -0.13048E-05  1624   0.701E-03    0.327E-03
DAV:  15    -0.136326545910E+04    0.18015E-06   -0.99554E-07   984   0.446E-03
   7 F= -.13632655E+04 E0= -.13632655E+04  d E =-.578857E+00
 BRION: g(F)=  0.349E+00 g(S)=  0.000E+00 retain N=  6 mean eig= 2.45
 eig:   5.197  5.197  1.393  1.393  0.762  0.762
 bond charge predicted
       N       E                     dE             d eps       ncg     rms          rms(c)
DAV:   1    -0.136334798151E+04   -0.82522E-01   -0.10502E+02  1368   0.148E+01    0.179E+00
DAV:   2    -0.136388038484E+04   -0.53240E+00   -0.56243E+00  2272   0.574E+00    0.909E-01
DAV:   3    -0.136391157218E+04   -0.31187E-01   -0.44521E-01  2600   0.116E+00    0.734E-01
DAV:   4    -0.136390476359E+04    0.68086E-02   -0.45885E-02  2592   0.504E-01    0.504E-01
DAV:   5    -0.136389973424E+04    0.50293E-02   -0.25212E-02  2328   0.313E-01    0.205E-01
DAV:   6    -0.136390046328E+04   -0.72904E-03   -0.13586E-02  2464   0.227E-01    0.175E-01
DAV:   7    -0.136390035035E+04    0.11293E-03   -0.65764E-03  2432   0.151E-01    0.119E-01
DAV:   8    -0.136390032067E+04    0.29682E-04   -0.26015E-03  2576   0.973E-02    0.687E-02
DAV:   9    -0.136390029138E+04    0.29295E-04   -0.46577E-04  2552   0.475E-02    0.471E-02
DAV:  10    -0.136390029658E+04   -0.52009E-05   -0.30854E-04  2608   0.306E-02    0.256E-02
DAV:  11    -0.136390029744E+04   -0.85935E-06   -0.10289E-04  2488   0.219E-02    0.149E-02
DAV:  12    -0.136390029729E+04    0.15108E-06   -0.36810E-05  2344   0.144E-02    0.134E-02
DAV:  13    -0.136390029614E+04    0.11446E-05   -0.27385E-05  2184   0.914E-03    0.693E-03
DAV:  14    -0.136390029586E+04    0.28229E-06   -0.57180E-06  1456   0.550E-03
   8 F= -.13639003E+04 E0= -.13639003E+04  d E =-.634837E+00
 BRION: g(F)=  0.243E+00 g(S)=  0.000E+00 retain N=  7 mean eig= 2.76
 eig:   6.088  6.088  2.132  2.132  0.889  1.008  1.008
 bond charge predicted
       N       E                     dE             d eps       ncg     rms          rms(c)
DAV:   1    -0.136391916272E+04   -0.18867E-01   -0.92694E+01  1376   0.138E+01    0.166E+00
DAV:   2    -0.136438084283E+04   -0.46168E+00   -0.48717E+00  2280   0.530E+00    0.832E-01
DAV:   3    -0.136440687462E+04   -0.26032E-01   -0.37650E-01  2600   0.105E+00    0.661E-01
DAV:   4    -0.136440093019E+04    0.59444E-02   -0.38722E-02  2600   0.460E-01    0.445E-01
DAV:   5    -0.136439703524E+04    0.38950E-02   -0.19761E-02  2352   0.279E-01    0.174E-01
DAV:   6    -0.136439762213E+04   -0.58690E-03   -0.96244E-03  2504   0.187E-01    0.138E-01
DAV:   7    -0.136439759342E+04    0.28711E-04   -0.40463E-03  2520   0.121E-01    0.919E-02
DAV:   8    -0.136439758874E+04    0.46837E-05   -0.15598E-03  2608   0.767E-02    0.565E-02
DAV:   9    -0.136439757242E+04    0.16313E-04   -0.29346E-04  2552   0.375E-02    0.387E-02
DAV:  10    -0.136439757590E+04   -0.34807E-05   -0.18012E-04  2608   0.244E-02    0.186E-02
DAV:  11    -0.136439757714E+04   -0.12378E-05   -0.46188E-05  2480   0.152E-02    0.933E-03
DAV:  12    -0.136439757766E+04   -0.51819E-06   -0.16712E-05  2040   0.947E-03    0.786E-03
DAV:  13    -0.136439757736E+04    0.30331E-06   -0.98870E-06  1712   0.624E-03
   9 F= -.13643976E+04 E0= -.13643976E+04  d E =-.497281E+00
 BRION: g(F)=  0.170E+00 g(S)=  0.000E+00 retain N=  6 mean eig= 3.26
 eig:   6.583  6.583  2.211  2.211  0.997  0.997
 bond charge predicted
       N       E                     dE             d eps       ncg     rms          rms(c)
DAV:   1    -0.136447953834E+04   -0.81961E-01   -0.43911E+01  1368   0.950E+00    0.115E+00
DAV:   2    -0.136469878544E+04   -0.21925E+00   -0.23270E+00  2288   0.366E+00    0.574E-01
DAV:   3    -0.136471154489E+04   -0.12759E-01   -0.18201E-01  2592   0.727E-01    0.462E-01
DAV:   4    -0.136470888190E+04    0.26630E-02   -0.18971E-02  2592   0.322E-01    0.316E-01
DAV:   5    -0.136470673979E+04    0.21421E-02   -0.95667E-03  2368   0.205E-01    0.125E-01
DAV:   6    -0.136470702145E+04   -0.28165E-03   -0.58162E-03  2472   0.148E-01    0.106E-01
DAV:   7    -0.136470700932E+04    0.12128E-04   -0.22319E-03  2456   0.907E-02    0.748E-02
DAV:   8    -0.136470699175E+04    0.17562E-04   -0.93441E-04  2600   0.570E-02    0.390E-02
DAV:   9    -0.136470698549E+04    0.62602E-05   -0.17076E-04  2528   0.284E-02    0.278E-02
DAV:  10    -0.136470698633E+04   -0.83650E-06   -0.96538E-05  2504   0.185E-02    0.153E-02
DAV:  11    -0.136470698631E+04    0.24462E-07   -0.30337E-05  2416   0.126E-02    0.779E-03
DAV:  12    -0.136470698698E+04   -0.67138E-06   -0.13928E-05  1816   0.817E-03    0.749E-03
DAV:  13    -0.136470698631E+04    0.66942E-06   -0.55115E-06  1376   0.592E-03
  10 F= -.13647070E+04 E0= -.13647070E+04  d E =-.309409E+00
 BRION: g(F)=  0.133E+00 g(S)=  0.000E+00 retain N=  5 mean eig= 3.80
 eig:   7.338  7.338  1.608  1.608  1.086
 bond charge predicted
       N       E                     dE             d eps       ncg     rms          rms(c)
DAV:   1    -0.136476267066E+04   -0.55684E-01   -0.39299E+01  1368   0.898E+00    0.105E+00
DAV:   2    -0.136496262230E+04   -0.19995E+00   -0.21300E+00  2272   0.355E+00    0.523E-01
DAV:   3    -0.136497519097E+04   -0.12569E-01   -0.17106E-01  2584   0.698E-01    0.427E-01
DAV:   4    -0.136497333610E+04    0.18549E-02   -0.15806E-02  2592   0.301E-01    0.318E-01
DAV:   5    -0.136497106181E+04    0.22743E-02   -0.89540E-03  2336   0.186E-01    0.130E-01
DAV:   6    -0.136497123135E+04   -0.16955E-03   -0.56326E-03  2392   0.140E-01    0.106E-01
DAV:   7    -0.136497121956E+04    0.11792E-04   -0.26313E-03  2448   0.950E-02    0.719E-02
DAV:   8    -0.136497120934E+04    0.10224E-04   -0.99575E-04  2568   0.609E-02    0.440E-02
DAV:   9    -0.136497119853E+04    0.10803E-04   -0.19452E-04  2528   0.299E-02    0.291E-02
DAV:  10    -0.136497120010E+04   -0.15686E-05   -0.81531E-05  2560   0.168E-02    0.139E-02
DAV:  11    -0.136497120238E+04   -0.22770E-05   -0.20063E-05  2368   0.104E-02    0.922E-03
DAV:  12    -0.136497120168E+04    0.70015E-06   -0.10054E-05  1728   0.753E-03    0.705E-03
DAV:  13    -0.136497120154E+04    0.14000E-06   -0.10018E-05  1696   0.612E-03    0.404E-03
DAV:  14    -0.136497120134E+04    0.20163E-06   -0.15042E-06   960   0.432E-03
  11 F= -.13649712E+04 E0= -.13649712E+04  d E =-.264215E+00
 BRION: g(F)=  0.105E+00 g(S)=  0.000E+00 retain N=  3 mean eig= 4.21
 eig:   5.590  5.590  1.452
 bond charge predicted
       N       E                     dE             d eps       ncg     rms          rms(c)
DAV:   1    -0.136500037675E+04   -0.29175E-01   -0.43410E+01  1376   0.946E+00    0.110E+00
DAV:   2    -0.136522105767E+04   -0.22068E+00   -0.23467E+00  2256   0.374E+00    0.543E-01
DAV:   3    -0.136523507156E+04   -0.14014E-01   -0.18795E-01  2576   0.745E-01    0.442E-01
DAV:   4    -0.136523321791E+04    0.18536E-02   -0.17685E-02  2616   0.311E-01    0.332E-01
DAV:   5    -0.136523064712E+04    0.25708E-02   -0.90259E-03  2360   0.196E-01    0.140E-01
DAV:   6    -0.136523078333E+04   -0.13621E-03   -0.65923E-03  2344   0.155E-01    0.102E-01
DAV:   7    -0.136523081898E+04   -0.35653E-04   -0.29597E-03  2448   0.992E-02    0.768E-02
DAV:   8    -0.136523080108E+04    0.17903E-04   -0.97824E-04  2576   0.614E-02    0.461E-02
DAV:   9    -0.136523078889E+04    0.12193E-04   -0.25249E-04  2520   0.318E-02    0.281E-02
DAV:  10    -0.136523079324E+04   -0.43549E-05   -0.84484E-05  2584   0.181E-02    0.167E-02
DAV:  11    -0.136523079450E+04   -0.12600E-05   -0.26498E-05  2416   0.117E-02    0.108E-02
DAV:  12    -0.136523079408E+04    0.42233E-06   -0.16881E-05  2064   0.890E-03    0.903E-03
DAV:  13    -0.136523079341E+04    0.66578E-06   -0.11083E-05  1760   0.663E-03    0.459E-03
DAV:  14    -0.136523079320E+04    0.21538E-06   -0.21983E-06  1008   0.463E-03
  12 F= -.13652308E+04 E0= -.13652308E+04  d E =-.259592E+00
 BRION: g(F)=  0.891E-01 g(S)=  0.000E+00 retain N=  3 mean eig= 4.37
 eig:   5.775  5.775  1.561
 bond charge predicted
       N       E                     dE             d eps       ncg     rms          rms(c)
DAV:   1    -0.136523936990E+04   -0.85765E-02   -0.40644E+01  1368   0.921E+00    0.106E+00
DAV:   2    -0.136544679281E+04   -0.20742E+00   -0.22113E+00  2288   0.364E+00    0.527E-01
DAV:   3    -0.136545969650E+04   -0.12904E-01   -0.17553E-01  2552   0.715E-01    0.430E-01
DAV:   4    -0.136545794770E+04    0.17488E-02   -0.17157E-02  2592   0.306E-01    0.323E-01
DAV:   5    -0.136545555438E+04    0.23933E-02   -0.91700E-03  2360   0.189E-01    0.136E-01
DAV:   6    -0.136545566501E+04   -0.11063E-03   -0.58816E-03  2368   0.146E-01    0.103E-01
DAV:   7    -0.136545568947E+04   -0.24465E-04   -0.30202E-03  2472   0.993E-02    0.754E-02
DAV:   8    -0.136545567189E+04    0.17581E-04   -0.98531E-04  2568   0.629E-02    0.481E-02
DAV:   9    -0.136545565939E+04    0.12501E-04   -0.23973E-04  2568   0.312E-02    0.293E-02
DAV:  10    -0.136545566277E+04   -0.33742E-05   -0.79211E-05  2592   0.172E-02    0.164E-02
DAV:  11    -0.136545566478E+04   -0.20095E-05   -0.22071E-05  2416   0.108E-02    0.114E-02
DAV:  12    -0.136545566376E+04    0.10182E-05   -0.16928E-05  2072   0.863E-03    0.855E-03
DAV:  13    -0.136545566332E+04    0.43579E-06   -0.10611E-05  1760   0.645E-03    0.452E-03
DAV:  14    -0.136545566312E+04    0.19681E-06   -0.18280E-06   984   0.424E-03
  13 F= -.13654557E+04 E0= -.13654557E+04  d E =-.224870E+00
 BRION: g(F)=  0.774E-01 g(S)=  0.000E+00 retain N=  3 mean eig= 4.70
 eig:   6.116  6.116  1.880
 bond charge predicted
       N       E                     dE             d eps       ncg     rms          rms(c)
DAV:   1    -0.136548076614E+04   -0.25103E-01   -0.28025E+01  1392   0.759E+00    0.871E-01
DAV:   2    -0.136562253415E+04   -0.14177E+00   -0.15050E+00  2256   0.302E+00    0.434E-01
DAV:   3    -0.136563139087E+04   -0.88567E-02   -0.11922E-01  2576   0.587E-01    0.351E-01
DAV:   4    -0.136563012189E+04    0.12690E-02   -0.10947E-02  2584   0.245E-01    0.261E-01
DAV:   5    -0.136562851382E+04    0.16081E-02   -0.61798E-03  2304   0.154E-01    0.102E-01
DAV:   6    -0.136562869589E+04   -0.18207E-03   -0.38841E-03  2440   0.114E-01    0.827E-02
DAV:   7    -0.136562868446E+04    0.11425E-04   -0.15640E-03  2488   0.721E-02    0.548E-02
DAV:   8    -0.136562867854E+04    0.59201E-05   -0.57616E-04  2584   0.470E-02    0.335E-02
DAV:   9    -0.136562867439E+04    0.41471E-05   -0.10935E-04  2528   0.226E-02    0.230E-02
DAV:  10    -0.136562867508E+04   -0.68863E-06   -0.42674E-05  2560   0.126E-02    0.109E-02
DAV:  11    -0.136562867615E+04   -0.10651E-05   -0.84442E-06  1720   0.769E-03    0.601E-03
DAV:  12    -0.136562867643E+04   -0.28184E-06   -0.95713E-06  1584   0.641E-03
  14 F= -.13656287E+04 E0= -.13656287E+04  d E =-.173013E+00
 BRION: g(F)=  0.674E-01 g(S)=  0.000E+00 retain N=  3 mean eig= 5.61
 eig:   7.507  7.507  1.829
 bond charge predicted
       N       E                     dE             d eps       ncg     rms          rms(c)
DAV:   1    -0.136567309628E+04   -0.44420E-01   -0.14575E+01  1360   0.547E+00    0.616E-01
DAV:   2    -0.136574632438E+04   -0.73228E-01   -0.77360E-01  2296   0.216E+00    0.311E-01
DAV:   3    -0.136575064272E+04   -0.43183E-02   -0.59319E-02  2576   0.407E-01    0.250E-01
DAV:   4    -0.136574995786E+04    0.68486E-03   -0.53944E-03  2600   0.170E-01    0.186E-01
DAV:   5    -0.136574904561E+04    0.91225E-03   -0.30365E-03  2256   0.110E-01    0.716E-02
DAV:   6    -0.136574913675E+04   -0.91141E-04   -0.20709E-03  2368   0.829E-02    0.562E-02
DAV:   7    -0.136574913761E+04   -0.86015E-06   -0.77218E-04  2440   0.504E-02    0.392E-02
DAV:   8    -0.136574913314E+04    0.44696E-05   -0.26137E-04  2552   0.316E-02    0.232E-02
DAV:   9    -0.136574913044E+04    0.26974E-05   -0.59227E-05  2416   0.163E-02    0.156E-02
DAV:  10    -0.136574913131E+04   -0.86681E-06   -0.23102E-05  2384   0.940E-03    0.806E-03
DAV:  11    -0.136574913121E+04    0.10070E-06   -0.25529E-06  1080   0.626E-03
  15 F= -.13657491E+04 E0= -.13657491E+04  d E =-.120455E+00
 BRION: g(F)=  0.615E-01 g(S)=  0.000E+00 retain N=  3 mean eig= 4.39
 eig:   5.846  5.846  1.475
 bond charge predicted
       N       E                     dE             d eps       ncg     rms          rms(c)
DAV:   1    -0.136577078999E+04   -0.21659E-01   -0.24575E+01  1360   0.711E+00    0.793E-01
DAV:   2    -0.136589410860E+04   -0.12332E+00   -0.13038E+00  2296   0.280E+00    0.401E-01
DAV:   3    -0.136590130320E+04   -0.71946E-02   -0.99417E-02  2576   0.540E-01    0.321E-01
DAV:   4    -0.136590009270E+04    0.12105E-02   -0.92241E-03  2584   0.222E-01    0.235E-01
DAV:   5    -0.136589869667E+04    0.13960E-02   -0.52266E-03  2248   0.141E-01    0.896E-02
DAV:   6    -0.136589886244E+04   -0.16577E-03   -0.32079E-03  2416   0.103E-01    0.737E-02
DAV:   7    -0.136589885776E+04    0.46790E-05   -0.12849E-03  2472   0.656E-02    0.496E-02
DAV:   8    -0.136589885143E+04    0.63278E-05   -0.44291E-04  2552   0.415E-02    0.301E-02
DAV:   9    -0.136589884837E+04    0.30598E-05   -0.87358E-05  2480   0.203E-02    0.209E-02
DAV:  10    -0.136589884905E+04   -0.67549E-06   -0.38838E-05  2536   0.119E-02    0.974E-03
DAV:  11    -0.136589884973E+04   -0.68372E-06   -0.73555E-06  1584   0.752E-03
  16 F= -.13658988E+04 E0= -.13658988E+04  d E =-.149719E+00
 BRION: g(F)=  0.556E-01 g(S)=  0.000E+00 retain N=  3 mean eig= 5.09
 eig:   6.885  6.885  1.491
 bond charge predicted
       N       E                     dE             d eps       ncg     rms          rms(c)
DAV:   1    -0.136588403504E+04    0.14814E-01   -0.35224E+01  1368   0.847E+00    0.941E-01
DAV:   2    -0.136605904051E+04   -0.17501E+00   -0.18449E+00  2304   0.331E+00    0.475E-01
DAV:   3    -0.136606922545E+04   -0.10185E-01   -0.14022E-01  2592   0.631E-01    0.379E-01
DAV:   4    -0.136606753760E+04    0.16878E-02   -0.12483E-02  2592   0.259E-01    0.278E-01
DAV:   5    -0.136606553003E+04    0.20076E-02   -0.68729E-03  2264   0.164E-01    0.108E-01
DAV:   6    -0.136606573811E+04   -0.20808E-03   -0.45377E-03  2376   0.121E-01    0.839E-02
DAV:   7    -0.136606574054E+04   -0.24215E-05   -0.16642E-03  2448   0.753E-02    0.585E-02
DAV:   8    -0.136606573031E+04    0.10230E-04   -0.61004E-04  2568   0.481E-02    0.351E-02
DAV:   9    -0.136606572505E+04    0.52527E-05   -0.12796E-04  2456   0.242E-02    0.242E-02
DAV:  10    -0.136606572619E+04   -0.11330E-05   -0.55939E-05  2504   0.142E-02    0.116E-02
DAV:  11    -0.136606572702E+04   -0.83671E-06   -0.12341E-05  1984   0.888E-03    0.597E-03
DAV:  12    -0.136606572748E+04   -0.45315E-06   -0.10511E-05  1664   0.622E-03    0.568E-03
DAV:  13    -0.136606572698E+04    0.49510E-06   -0.15421E-06   984   0.476E-03
  17 F= -.13660657E+04 E0= -.13660657E+04  d E =-.166877E+00
 BRION: g(F)=  0.492E-01 g(S)=  0.000E+00 retain N=  3 mean eig= 5.61
 eig:   7.603  7.603  1.627
 bond charge predicted
       N       E                     dE             d eps       ncg     rms          rms(c)
DAV:   1    -0.136608692841E+04   -0.21201E-01   -0.18449E+01  1368   0.613E+00    0.674E-01
DAV:   2    -0.136617772368E+04   -0.90795E-01   -0.95531E-01  2296   0.238E+00    0.341E-01
DAV:   3    -0.136618319842E+04   -0.54747E-02   -0.74477E-02  2576   0.452E-01    0.274E-01
DAV:   4    -0.136618238402E+04    0.81440E-03   -0.65377E-03  2584   0.188E-01    0.204E-01
DAV:   5    -0.136618129801E+04    0.10860E-02   -0.34340E-03  2288   0.117E-01    0.844E-02
DAV:   6    -0.136618135179E+04   -0.53778E-04   -0.25081E-03  2336   0.928E-02    0.595E-02
DAV:   7    -0.136618136779E+04   -0.15993E-04   -0.10760E-03  2456   0.599E-02    0.462E-02
DAV:   8    -0.136618135813E+04    0.96568E-05   -0.34051E-04  2536   0.374E-02    0.281E-02
DAV:   9    -0.136618135325E+04    0.48829E-05   -0.94568E-05  2488   0.194E-02    0.174E-02
DAV:  10    -0.136618135467E+04   -0.14242E-05   -0.32288E-05  2504   0.111E-02    0.102E-02
DAV:  11    -0.136618135449E+04    0.17699E-06   -0.53281E-06  1296   0.706E-03
  18 F= -.13661814E+04 E0= -.13661814E+04  d E =-.115628E+00
 BRION: g(F)=  0.451E-01 g(S)=  0.000E+00 retain N=  3 mean eig= 5.51
 eig:   7.189  7.189  2.150
 bond charge predicted
       N       E                     dE             d eps       ncg     rms          rms(c)
DAV:   1    -0.136620271657E+04   -0.21362E-01   -0.17229E+01  1368   0.590E+00    0.646E-01
DAV:   2    -0.136628668598E+04   -0.83969E-01   -0.88034E-01  2288   0.226E+00    0.325E-01
DAV:   3    -0.136629181395E+04   -0.51280E-02   -0.68951E-02  2576   0.436E-01    0.260E-01
DAV:   4    -0.136629109134E+04    0.72260E-03   -0.59756E-03  2576   0.179E-01    0.194E-01
DAV:   5    -0.136629011304E+04    0.97830E-03   -0.30385E-03  2328   0.112E-01    0.810E-02
DAV:   6    -0.136629015644E+04   -0.43396E-04   -0.22517E-03  2336   0.874E-02    0.540E-02
DAV:   7    -0.136629017413E+04   -0.17692E-04   -0.91628E-04  2472   0.567E-02    0.427E-02
DAV:   8    -0.136629016643E+04    0.76986E-05   -0.29010E-04  2504   0.344E-02    0.261E-02
DAV:   9    -0.136629016221E+04    0.42241E-05   -0.79529E-05  2416   0.178E-02    0.161E-02
DAV:  10    -0.136629016328E+04   -0.10693E-05   -0.28049E-05  2480   0.103E-02    0.915E-03
DAV:  11    -0.136629016315E+04    0.12458E-06   -0.30704E-06  1112   0.645E-03
  19 F= -.13662902E+04 E0= -.13662902E+04  d E =-.108809E+00
 BRION: g(F)=  0.422E-01 g(S)=  0.000E+00 retain N=  2 mean eig= 4.03
 eig:   4.033  4.033
 bond charge predicted
       N       E                     dE             d eps       ncg     rms          rms(c)
DAV:   1    -0.136631039459E+04   -0.20231E-01   -0.16188E+01  1360   0.571E+00    0.623E-01
DAV:   2    -0.136638958566E+04   -0.79191E-01   -0.82873E-01  2296   0.217E+00    0.314E-01
DAV:   3    -0.136639421904E+04   -0.46334E-02   -0.63055E-02  2576   0.424E-01    0.250E-01
DAV:   4    -0.136639350845E+04    0.71060E-03   -0.56678E-03  2576   0.173E-01    0.183E-01
DAV:   5    -0.136639264589E+04    0.86255E-03   -0.27095E-03  2352   0.106E-01    0.769E-02
DAV:   6    -0.136639267783E+04   -0.31934E-04   -0.20007E-03  2368   0.833E-02    0.503E-02
DAV:   7    -0.136639269906E+04   -0.21234E-04   -0.85487E-04  2496   0.546E-02    0.413E-02
DAV:   8    -0.136639269146E+04    0.76005E-05   -0.25901E-04  2536   0.327E-02    0.249E-02
DAV:   9    -0.136639268741E+04    0.40465E-05   -0.75750E-05  2432   0.171E-02    0.154E-02
DAV:  10    -0.136639268845E+04   -0.10322E-05   -0.27697E-05  2408   0.103E-02    0.929E-03
DAV:  11    -0.136639268808E+04    0.36601E-06   -0.43512E-06  1184   0.690E-03
  20 F= -.13663927E+04 E0= -.13663927E+04  d E =-.102525E+00
 BRION: g(F)=  0.402E-01 g(S)=  0.000E+00 retain N=  3 mean eig= 5.13
 eig:   6.885  6.885  1.607
