 running on  160 total cores
 distrk:  each k-point on  160 cores,    1 groups
 distr:  one band on   20 cores,    8 groups
 using from now: INCAR     
 vasp.5.4.4.18Apr17-6-g9f103f2a35 (build May 01 2020 14:22:42) gamma-only       
  
 POSCAR found type information on POSCAR  O  La Zr Li Al
 POSCAR found :  5 types and     190 ions
 scaLAPACK will be used
 LDA part: xc-table for Pade appr. of Perdew
 POSCAR, INCAR and KPOINTS ok, starting setup
 FFT: planning ...
 WAVECAR not read
 WARNING: random wavefunctions but no delay for mixing, default for NELMDL
 entering main loop
       N       E                     dE             d eps       ncg     rms          rms(c)
DAV:   1     0.252615822245E+05    0.25262E+05   -0.42118E+05  1592   0.253E+03
DAV:   2     0.943682427196E+04   -0.15825E+05   -0.14647E+05  1448   0.710E+02
DAV:   3     0.273856448956E+04   -0.66983E+04   -0.60952E+04  1480   0.355E+02
DAV:   4    -0.364702814153E+03   -0.31033E+04   -0.28919E+04  2032   0.221E+02
DAV:   5    -0.141532459820E+04   -0.10506E+04   -0.10111E+04  2536   0.143E+02    0.116E+02
DAV:   6    -0.130557290175E+04    0.10975E+03   -0.14666E+03  2432   0.654E+01    0.504E+01
DAV:   7    -0.132765046632E+04   -0.22078E+02   -0.38606E+02  2560   0.338E+01    0.252E+01
DAV:   8    -0.133846741805E+04   -0.10817E+02   -0.29562E+02  2504   0.280E+01    0.284E+01
DAV:   9    -0.132867175844E+04    0.97957E+01   -0.65237E+01  2432   0.158E+01    0.793E+00
DAV:  10    -0.132979790060E+04   -0.11261E+01   -0.15855E+01  2616   0.848E+00    0.783E+00
DAV:  11    -0.132993199785E+04   -0.13410E+00   -0.67853E+00  2624   0.450E+00    0.414E+00
DAV:  12    -0.132982344304E+04    0.10855E+00   -0.24866E+00  2552   0.358E+00    0.304E+00
DAV:  13    -0.132989424725E+04   -0.70804E-01   -0.75550E-01  2568   0.170E+00    0.213E+00
DAV:  14    -0.132987094705E+04    0.23300E-01   -0.30589E-01  2608   0.109E+00    0.113E+00
DAV:  15    -0.132987938130E+04   -0.84343E-02   -0.89143E-02  2576   0.613E-01    0.985E-01
DAV:  16    -0.132987889504E+04    0.48626E-03   -0.36679E-02  2592   0.352E-01    0.598E-01
DAV:  17    -0.132987691880E+04    0.19762E-02   -0.22592E-02  2496   0.301E-01    0.280E-01
DAV:  18    -0.132987722287E+04   -0.30407E-03   -0.47294E-03  2520   0.149E-01    0.146E-01
DAV:  19    -0.132987720557E+04    0.17296E-04   -0.19316E-03  2576   0.898E-02    0.829E-02
DAV:  20    -0.132987724728E+04   -0.41704E-04   -0.53488E-04  2624   0.449E-02    0.294E-02
DAV:  21    -0.132987726324E+04   -0.15964E-04   -0.12749E-04  2616   0.229E-02    0.299E-02
DAV:  22    -0.132987727395E+04   -0.10707E-04   -0.50171E-05  2368   0.133E-02    0.133E-02
DAV:  23    -0.132987727044E+04    0.35091E-05   -0.29778E-05  2200   0.106E-02    0.527E-03
DAV:  24    -0.132987727331E+04   -0.28718E-05   -0.62806E-06  1088   0.641E-03    0.179E-03
DAV:  25    -0.132987727400E+04   -0.68678E-06   -0.29936E-06  1016   0.525E-03
   1 F= -.13298773E+04 E0= -.13298773E+04  d E =-.132988E+04
 BRION: g(F)=  0.555E+02 g(S)=  0.000E+00
 bond charge predicted
       N       E                     dE             d eps       ncg     rms          rms(c)
DAV:   1    -0.130673550630E+04    0.23142E+02   -0.63939E+03  1696   0.119E+02    0.253E+01
DAV:   2    -0.135348353874E+04   -0.46748E+02   -0.53676E+02  2560   0.530E+01    0.130E+01
DAV:   3    -0.135190733620E+04    0.15762E+01   -0.31708E+01  2624   0.143E+01    0.879E+00
DAV:   4    -0.135000667876E+04    0.19007E+01   -0.10447E+01  2376   0.675E+00    0.425E+00
DAV:   5    -0.134977322501E+04    0.23345E+00   -0.33592E+00  2520   0.407E+00    0.287E+00
DAV:   6    -0.134971515564E+04    0.58069E-01   -0.25989E+00  2568   0.291E+00    0.178E+00
DAV:   7    -0.134967790211E+04    0.37254E-01   -0.46977E-01  2528   0.166E+00    0.103E+00
DAV:   8    -0.134968097421E+04   -0.30721E-02   -0.37045E-01  2592   0.101E+00    0.678E-01
DAV:   9    -0.134967869639E+04    0.22778E-02   -0.45877E-02  2544   0.520E-01    0.483E-01
DAV:  10    -0.134967615902E+04    0.25374E-02   -0.41365E-02  2384   0.356E-01    0.186E-01
DAV:  11    -0.134967747792E+04   -0.13189E-02   -0.16238E-02  2488   0.234E-01    0.202E-01
DAV:  12    -0.134967710756E+04    0.37036E-03   -0.28844E-03  2560   0.113E-01    0.121E-01
DAV:  13    -0.134967698645E+04    0.12112E-03   -0.24674E-03  2520   0.833E-02    0.242E-02
DAV:  14    -0.134967702057E+04   -0.34124E-04   -0.36381E-04  2552   0.409E-02    0.173E-02
DAV:  15    -0.134967703063E+04   -0.10062E-04   -0.67083E-05  2624   0.171E-02    0.182E-02
DAV:  16    -0.134967702583E+04    0.48014E-05   -0.31433E-05  2520   0.122E-02    0.937E-03
DAV:  17    -0.134967702699E+04   -0.11573E-05   -0.23932E-05  2440   0.919E-03    0.405E-03
DAV:  18    -0.134967702701E+04   -0.23821E-07   -0.12663E-06  1056   0.424E-03
   2 F= -.13496770E+04 E0= -.13496770E+04  d E =-.197998E+02
 BRION: g(F)=  0.399E+02 g(S)=  0.000E+00 retain N=  1 mean eig= 0.56
 eig:   0.559
 bond charge predicted
       N       E                     dE             d eps       ncg     rms          rms(c)
DAV:   1    -0.133867271548E+04    0.11004E+02   -0.22752E+03  1400   0.659E+01    0.147E+01
DAV:   2    -0.135783543017E+04   -0.19163E+02   -0.23289E+02  2536   0.299E+01    0.119E+01
DAV:   3    -0.135718653007E+04    0.64890E+00   -0.16276E+01  2568   0.987E+00    0.944E+00
DAV:   4    -0.135611390074E+04    0.10726E+01   -0.10211E+01  2248   0.467E+00    0.470E+00
DAV:   5    -0.135620595113E+04   -0.92050E-01   -0.33200E+00  2336   0.342E+00    0.489E+00
DAV:   6    -0.135579933198E+04    0.40662E+00   -0.32741E+00  2448   0.332E+00    0.158E+00
DAV:   7    -0.135584657287E+04   -0.47241E-01   -0.11908E+00  2408   0.191E+00    0.131E+00
DAV:   8    -0.135583678751E+04    0.97854E-02   -0.23324E-01  2600   0.871E-01    0.823E-01
DAV:   9    -0.135582881925E+04    0.79683E-02   -0.77784E-02  2576   0.506E-01    0.364E-01
DAV:  10    -0.135582970218E+04   -0.88294E-03   -0.32868E-02  2552   0.296E-01    0.221E-01
DAV:  11    -0.135582924796E+04    0.45423E-03   -0.41425E-03  2592   0.168E-01    0.141E-01
DAV:  12    -0.135582928931E+04   -0.41349E-04   -0.54039E-03  2264   0.107E-01    0.807E-02
DAV:  13    -0.135582924788E+04    0.41433E-04   -0.74702E-04  2528   0.658E-02    0.448E-02
DAV:  14    -0.135582924683E+04    0.10449E-05   -0.43745E-04  2616   0.345E-02    0.179E-02
DAV:  15    -0.135582925262E+04   -0.57920E-05   -0.10594E-04  2584   0.211E-02    0.133E-02
DAV:  16    -0.135582925262E+04    0.53842E-08   -0.18811E-05  2120   0.978E-03    0.101E-02
DAV:  17    -0.135582925271E+04   -0.88141E-07   -0.85609E-06  1648   0.567E-03
   3 F= -.13558293E+04 E0= -.13558293E+04  d E =-.615223E+01
 BRION: g(F)=  0.114E+02 g(S)=  0.000E+00 retain N=  2 mean eig= 0.93
 eig:   0.369  1.485
 bond charge predicted
       N       E                     dE             d eps       ncg     rms          rms(c)
DAV:   1    -0.135641400321E+04   -0.58475E+00   -0.43892E+02  1376   0.253E+01    0.570E+00
DAV:   2    -0.135895699662E+04   -0.25430E+01   -0.28813E+01  2360   0.107E+01    0.296E+00
DAV:   3    -0.135890965718E+04    0.47339E-01   -0.17832E+00  2560   0.300E+00    0.241E+00
DAV:   4    -0.135881065735E+04    0.99000E-01   -0.74523E-01  2312   0.147E+00    0.113E+00
DAV:   5    -0.135880814101E+04    0.25163E-02   -0.25014E-01  2456   0.962E-01    0.110E+00
DAV:   6    -0.135879187716E+04    0.16264E-01   -0.20566E-01  2472   0.807E-01    0.464E-01
DAV:   7    -0.135879345782E+04   -0.15807E-02   -0.57207E-02  2456   0.435E-01    0.446E-01
DAV:   8    -0.135879209113E+04    0.13667E-02   -0.13531E-02  2560   0.201E-01    0.284E-01
DAV:   9    -0.135879087827E+04    0.12129E-02   -0.80402E-03  2288   0.149E-01    0.115E-01
DAV:  10    -0.135879128576E+04   -0.40749E-03   -0.64402E-03  2344   0.119E-01    0.118E-01
DAV:  11    -0.135879102687E+04    0.25889E-03   -0.10134E-03  2528   0.733E-02    0.491E-02
DAV:  12    -0.135879106397E+04   -0.37104E-04   -0.79915E-04  2456   0.425E-02    0.276E-02
DAV:  13    -0.135879106487E+04   -0.90031E-06   -0.81552E-05  2512   0.197E-02    0.183E-02
DAV:  14    -0.135879106122E+04    0.36562E-05   -0.30985E-05  2160   0.961E-03    0.775E-03
DAV:  15    -0.135879106157E+04   -0.35687E-06   -0.85886E-06  1752   0.609E-03
   4 F= -.13587911E+04 E0= -.13587911E+04  d E =-.296181E+01
 BRION: g(F)=  0.355E+01 g(S)=  0.000E+00 retain N=  3 mean eig= 1.54
 eig:   3.962  0.322  0.322
 bond charge predicted
       N       E                     dE             d eps       ncg     rms          rms(c)
DAV:   1    -0.135994954873E+04   -0.11585E+01   -0.20444E+02  1360   0.195E+01    0.322E+00
DAV:   2    -0.136092075290E+04   -0.97120E+00   -0.10507E+01  2272   0.753E+00    0.158E+00
DAV:   3    -0.136093659541E+04   -0.15843E-01   -0.74020E-01  2624   0.154E+00    0.131E+00
DAV:   4    -0.136090243853E+04    0.34157E-01   -0.18076E-01  2544   0.841E-01    0.653E-01
DAV:   5    -0.136089665940E+04    0.57791E-02   -0.61888E-02  2432   0.509E-01    0.412E-01
DAV:   6    -0.136089627653E+04    0.38287E-03   -0.41817E-02  2544   0.379E-01    0.220E-01
DAV:   7    -0.136089629408E+04   -0.17553E-04   -0.13965E-02  2224   0.209E-01    0.184E-01
DAV:   8    -0.136089626012E+04    0.33964E-04   -0.42919E-03  2328   0.110E-01    0.108E-01
DAV:   9    -0.136089613680E+04    0.12332E-03   -0.17177E-03  2608   0.734E-02    0.605E-02
DAV:  10    -0.136089617802E+04   -0.41218E-04   -0.91532E-04  2536   0.556E-02    0.655E-02
DAV:  11    -0.136089612754E+04    0.50476E-04   -0.38618E-04  2472   0.372E-02    0.241E-02
DAV:  12    -0.136089613379E+04   -0.62489E-05   -0.15569E-04  2432   0.232E-02    0.133E-02
DAV:  13    -0.136089613538E+04   -0.15904E-05   -0.29557E-05  2288   0.112E-02    0.855E-03
DAV:  14    -0.136089613540E+04   -0.14610E-07   -0.12335E-05  1736   0.650E-03    0.552E-03
DAV:  15    -0.136089613526E+04    0.14019E-06   -0.18937E-06  1048   0.482E-03
   5 F= -.13608961E+04 E0= -.13608961E+04  d E =-.210507E+01
 BRION: g(F)=  0.135E+01 g(S)=  0.000E+00 retain N=  4 mean eig= 1.49
 eig:   2.327  2.327  0.653  0.653
 bond charge predicted
       N       E                     dE             d eps       ncg     rms          rms(c)
DAV:   1    -0.136143333689E+04   -0.53720E+00   -0.16488E+02  1376   0.180E+01    0.251E+00
DAV:   2    -0.136222218988E+04   -0.78885E+00   -0.83348E+00  2280   0.678E+00    0.129E+00
DAV:   3    -0.136225012376E+04   -0.27934E-01   -0.58357E-01  2576   0.133E+00    0.105E+00
DAV:   4    -0.136223106363E+04    0.19060E-01   -0.95873E-02  2544   0.652E-01    0.596E-01
DAV:   5    -0.136222578274E+04    0.52809E-02   -0.46569E-02  2408   0.421E-01    0.298E-01
DAV:   6    -0.136222628559E+04   -0.50285E-03   -0.19617E-02  2584   0.270E-01    0.200E-01
DAV:   7    -0.136222615192E+04    0.13367E-03   -0.81082E-03  2520   0.166E-01    0.121E-01
DAV:   8    -0.136222619204E+04   -0.40125E-04   -0.22478E-03  2560   0.915E-02    0.687E-02
DAV:   9    -0.136222616223E+04    0.29815E-04   -0.61116E-04  2592   0.496E-02    0.451E-02
DAV:  10    -0.136222619084E+04   -0.28610E-04   -0.40893E-04  2336   0.345E-02    0.382E-02
DAV:  11    -0.136222616970E+04    0.21137E-04   -0.16245E-04  2528   0.259E-02    0.130E-02
DAV:  12    -0.136222617436E+04   -0.46533E-05   -0.77405E-05  2384   0.165E-02    0.124E-02
DAV:  13    -0.136222617307E+04    0.12883E-05   -0.18724E-05  2000   0.914E-03    0.666E-03
DAV:  14    -0.136222617319E+04   -0.12747E-06   -0.10557E-05  1680   0.613E-03    0.288E-03
DAV:  15    -0.136222617324E+04   -0.40600E-07   -0.12813E-06  1024   0.398E-03
   6 F= -.13622262E+04 E0= -.13622262E+04  d E =-.133004E+01
 BRION: g(F)=  0.861E+00 g(S)=  0.000E+00 retain N=  5 mean eig= 1.69
 eig:   3.070  3.070  0.887  0.887  0.559
 bond charge predicted
       N       E                     dE             d eps       ncg     rms          rms(c)
DAV:   1    -0.136258357134E+04   -0.35740E+00   -0.12552E+02  1360   0.159E+01    0.216E+00
DAV:   2    -0.136319939840E+04   -0.61583E+00   -0.64947E+00  2312   0.611E+00    0.112E+00
DAV:   3    -0.136322636358E+04   -0.26965E-01   -0.48243E-01  2616   0.119E+00    0.872E-01
DAV:   4    -0.136321364462E+04    0.12719E-01   -0.75098E-02  2552   0.592E-01    0.461E-01
DAV:   5    -0.136321147540E+04    0.21692E-02   -0.26329E-02  2488   0.342E-01    0.230E-01
DAV:   6    -0.136321203733E+04   -0.56193E-03   -0.12147E-02  2592   0.209E-01    0.134E-01
DAV:   7    -0.136321194547E+04    0.91866E-04   -0.36462E-03  2264   0.125E-01    0.946E-02
DAV:   8    -0.136321199789E+04   -0.52425E-04   -0.17010E-03  2344   0.709E-02    0.544E-02
DAV:   9    -0.136321197728E+04    0.20606E-04   -0.29162E-04  2616   0.399E-02    0.384E-02
DAV:  10    -0.136321197990E+04   -0.26151E-05   -0.39284E-04  2520   0.335E-02    0.266E-02
DAV:  11    -0.136321197437E+04    0.55291E-05   -0.10567E-04  2488   0.214E-02    0.106E-02
DAV:  12    -0.136321197625E+04   -0.18771E-05   -0.33395E-05  2272   0.120E-02    0.745E-03
DAV:  13    -0.136321197598E+04    0.26484E-06   -0.79750E-06  1656   0.679E-03
   7 F= -.13632120E+04 E0= -.13632120E+04  d E =-.985803E+00
 BRION: g(F)=  0.605E+00 g(S)=  0.000E+00 retain N=  6 mean eig= 1.62
 eig:   2.701  2.701  1.475  1.475  0.677  0.677
 bond charge predicted
       N       E                     dE             d eps       ncg     rms          rms(c)
DAV:   1    -0.136350136129E+04   -0.28939E+00   -0.50600E+01  1392   0.997E+00    0.135E+00
DAV:   2    -0.136375857737E+04   -0.25722E+00   -0.27340E+00  2304   0.394E+00    0.678E-01
DAV:   3    -0.136377157646E+04   -0.12999E-01   -0.21240E-01  2616   0.752E-01    0.550E-01
DAV:   4    -0.136376699949E+04    0.45770E-02   -0.24896E-02  2576   0.362E-01    0.337E-01
DAV:   5    -0.136376500170E+04    0.19978E-02   -0.13700E-02  2344   0.222E-01    0.141E-01
DAV:   6    -0.136376533825E+04   -0.33656E-03   -0.55978E-03  2552   0.145E-01    0.121E-01
DAV:   7    -0.136376526112E+04    0.77132E-04   -0.26373E-03  2552   0.953E-02    0.757E-02
DAV:   8    -0.136376525131E+04    0.98090E-05   -0.93770E-04  2600   0.581E-02    0.441E-02
DAV:   9    -0.136376523961E+04    0.11704E-04   -0.16530E-04  2520   0.281E-02    0.313E-02
DAV:  10    -0.136376524477E+04   -0.51673E-05   -0.18349E-04  2272   0.224E-02    0.199E-02
DAV:  11    -0.136376524083E+04    0.39394E-05   -0.42506E-05  2368   0.154E-02    0.905E-03
DAV:  12    -0.136376524282E+04   -0.19887E-05   -0.33570E-05  2208   0.972E-03    0.833E-03
DAV:  13    -0.136376524157E+04    0.12516E-05   -0.33023E-06  1152   0.599E-03    0.440E-03
DAV:  14    -0.136376524264E+04   -0.10655E-05   -0.15932E-05  1640   0.711E-03    0.507E-03
DAV:  15    -0.136376524218E+04    0.45195E-06   -0.10330E-06   968   0.439E-03
   8 F= -.13637652E+04 E0= -.13637652E+04  d E =-.553266E+00
 BRION: g(F)=  0.386E+00 g(S)=  0.000E+00 retain N=  7 mean eig= 2.07
 eig:   4.104  4.104  2.030  2.030  0.817  0.817  0.560
 bond charge predicted
       N       E                     dE             d eps       ncg     rms          rms(c)
DAV:   1    -0.136388973075E+04   -0.12449E+00   -0.12576E+02  1392   0.159E+01    0.186E+00
DAV:   2    -0.136452154375E+04   -0.63181E+00   -0.66494E+00  2280   0.624E+00    0.964E-01
DAV:   3    -0.136455815926E+04   -0.36616E-01   -0.52230E-01  2600   0.120E+00    0.762E-01
DAV:   4    -0.136455009627E+04    0.80630E-02   -0.50917E-02  2600   0.533E-01    0.523E-01
DAV:   5    -0.136454376664E+04    0.63296E-02   -0.24227E-02  2328   0.338E-01    0.217E-01
DAV:   6    -0.136454437816E+04   -0.61153E-03   -0.17793E-02  2384   0.265E-01    0.169E-01
DAV:   7    -0.136454444754E+04   -0.69373E-04   -0.78107E-03  2456   0.168E-01    0.136E-01
DAV:   8    -0.136454439161E+04    0.55930E-04   -0.26525E-03  2584   0.961E-02    0.747E-02
DAV:   9    -0.136454433410E+04    0.57506E-04   -0.73380E-04  2504   0.545E-02    0.457E-02
DAV:  10    -0.136454434660E+04   -0.12502E-04   -0.35318E-04  2536   0.365E-02    0.322E-02
DAV:  11    -0.136454434050E+04    0.61073E-05   -0.12062E-04  2424   0.241E-02    0.160E-02
DAV:  12    -0.136454434256E+04   -0.20654E-05   -0.58178E-05  2360   0.158E-02    0.159E-02
DAV:  13    -0.136454434009E+04    0.24719E-05   -0.35685E-05  2048   0.110E-02    0.748E-03
DAV:  14    -0.136454434019E+04   -0.96610E-07   -0.11555E-05  1816   0.681E-03    0.338E-03
DAV:  15    -0.136454434031E+04   -0.12197E-06   -0.10963E-06   992   0.366E-03
   9 F= -.13645443E+04 E0= -.13645443E+04  d E =-.779098E+00
 BRION: g(F)=  0.273E+00 g(S)=  0.000E+00 retain N=  8 mean eig= 2.68
 eig:   6.189  6.189  2.368  2.368  1.341  1.341  0.579  1.045
 bond charge predicted
       N       E                     dE             d eps       ncg     rms          rms(c)
DAV:   1    -0.136454835346E+04   -0.40133E-02   -0.12291E+02  1400   0.158E+01    0.185E+00
DAV:   2    -0.136518672692E+04   -0.63837E+00   -0.67527E+00  2304   0.632E+00    0.939E-01
DAV:   3    -0.136522522674E+04   -0.38500E-01   -0.53536E-01  2592   0.119E+00    0.758E-01
DAV:   4    -0.136521820788E+04    0.70189E-02   -0.51360E-02  2616   0.540E-01    0.528E-01
DAV:   5    -0.136521240021E+04    0.58077E-02   -0.23191E-02  2408   0.307E-01    0.227E-01
DAV:   6    -0.136521268292E+04   -0.28271E-03   -0.14656E-02  2360   0.232E-01    0.153E-01
DAV:   7    -0.136521280200E+04   -0.11908E-03   -0.77483E-03  2496   0.165E-01    0.124E-01
DAV:   8    -0.136521278007E+04    0.21927E-04   -0.25237E-03  2568   0.980E-02    0.831E-02
DAV:   9    -0.136521271417E+04    0.65896E-04   -0.73569E-04  2504   0.535E-02    0.507E-02
DAV:  10    -0.136521272400E+04   -0.98287E-05   -0.36914E-04  2520   0.346E-02    0.301E-02
DAV:  11    -0.136521272922E+04   -0.52149E-05   -0.11434E-04  2464   0.225E-02    0.212E-02
DAV:  12    -0.136521272338E+04    0.58350E-05   -0.66531E-05  2320   0.179E-02    0.153E-02
DAV:  13    -0.136521272285E+04    0.53289E-06   -0.48153E-05  2312   0.125E-02    0.860E-03
DAV:  14    -0.136521272265E+04    0.20395E-06   -0.11278E-05  1760   0.655E-03    0.374E-03
DAV:  15    -0.136521272269E+04   -0.42739E-07   -0.17517E-06  1024   0.441E-03
  10 F= -.13652127E+04 E0= -.13652127E+04  d E =-.668382E+00
 BRION: g(F)=  0.196E+00 g(S)=  0.000E+00 retain N=  6 mean eig= 3.15
 eig:   5.714  5.714  2.622  2.622  1.129  1.129
 bond charge predicted
       N       E                     dE             d eps       ncg     rms          rms(c)
DAV:   1    -0.136531526096E+04   -0.10254E+00   -0.54234E+01  1384   0.105E+01    0.124E+00
DAV:   2    -0.136559993675E+04   -0.28468E+00   -0.30167E+00  2296   0.424E+00    0.624E-01
DAV:   3    -0.136561702792E+04   -0.17091E-01   -0.23700E-01  2592   0.799E-01    0.505E-01
DAV:   4    -0.136561385611E+04    0.31718E-02   -0.21878E-02  2608   0.355E-01    0.357E-01
DAV:   5    -0.136561095999E+04    0.28961E-02   -0.10882E-02  2336   0.210E-01    0.145E-01
DAV:   6    -0.136561120271E+04   -0.24272E-03   -0.69847E-03  2392   0.156E-01    0.107E-01
DAV:   7    -0.136561122481E+04   -0.22094E-04   -0.30881E-03  2480   0.102E-01    0.779E-02
DAV:   8    -0.136561121512E+04    0.96842E-05   -0.11022E-03  2592   0.650E-02    0.469E-02
DAV:   9    -0.136561119800E+04    0.17122E-04   -0.26250E-04  2424   0.337E-02    0.322E-02
DAV:  10    -0.136561120067E+04   -0.26652E-05   -0.13253E-04  2472   0.211E-02    0.179E-02
DAV:  11    -0.136561120145E+04   -0.78714E-06   -0.44055E-05  2368   0.145E-02    0.110E-02
DAV:  12    -0.136561120131E+04    0.13897E-06   -0.20899E-05  2224   0.102E-02    0.966E-03
DAV:  13    -0.136561120048E+04    0.83109E-06   -0.13080E-05  1760   0.694E-03    0.477E-03
DAV:  14    -0.136561120026E+04    0.21998E-06   -0.27252E-06  1088   0.502E-03
  11 F= -.13656112E+04 E0= -.13656112E+04  d E =-.398478E+00
 BRION: g(F)=  0.157E+00 g(S)=  0.000E+00 retain N=  6 mean eig= 3.74
 eig:   7.662  7.662  2.327  2.327  1.221  1.221
 bond charge predicted
       N       E                     dE             d eps       ncg     rms          rms(c)
DAV:   1    -0.136555557979E+04    0.55621E-01   -0.90578E+01  1392   0.137E+01    0.158E+00
DAV:   2    -0.136604026134E+04   -0.48468E+00   -0.51251E+00  2304   0.563E+00    0.808E-01
DAV:   3    -0.136606840579E+04   -0.28144E-01   -0.39473E-01  2600   0.102E+00    0.652E-01
DAV:   4    -0.136606294880E+04    0.54570E-02   -0.35715E-02  2608   0.462E-01    0.473E-01
DAV:   5    -0.136605746518E+04    0.54836E-02   -0.17477E-02  2368   0.268E-01    0.199E-01
DAV:   6    -0.136605761702E+04   -0.15184E-03   -0.13088E-02  2320   0.212E-01    0.134E-01
DAV:   7    -0.136605775875E+04   -0.14173E-03   -0.65108E-03  2456   0.145E-01    0.109E-01
DAV:   8    -0.136605772224E+04    0.36514E-04   -0.17992E-03  2576   0.863E-02    0.685E-02
DAV:   9    -0.136605767604E+04    0.46194E-04   -0.58575E-04  2472   0.470E-02    0.406E-02
DAV:  10    -0.136605768894E+04   -0.12897E-04   -0.25563E-04  2512   0.299E-02    0.261E-02
DAV:  11    -0.136605769123E+04   -0.22892E-05   -0.94242E-05  2432   0.205E-02    0.178E-02
DAV:  12    -0.136605768873E+04    0.24988E-05   -0.51769E-05  2312   0.157E-02    0.151E-02
DAV:  13    -0.136605768716E+04    0.15769E-05   -0.36332E-05  2184   0.108E-02    0.841E-03
DAV:  14    -0.136605768684E+04    0.31407E-06   -0.10859E-05  1760   0.636E-03    0.300E-03
DAV:  15    -0.136605768692E+04   -0.83921E-07   -0.14405E-06   968   0.411E-03
  12 F= -.13660577E+04 E0= -.13660577E+04  d E =-.446487E+00
 BRION: g(F)=  0.120E+00 g(S)=  0.000E+00 retain N=  3 mean eig= 5.29
 eig:   6.986  6.986  1.885
 bond charge predicted
       N       E                     dE             d eps       ncg     rms          rms(c)
DAV:   1    -0.136610628752E+04   -0.48601E-01   -0.47084E+01  1384   0.982E+00    0.112E+00
DAV:   2    -0.136635697113E+04   -0.25068E+00   -0.26547E+00  2296   0.404E+00    0.578E-01
DAV:   3    -0.136637188823E+04   -0.14917E-01   -0.20771E-01  2592   0.743E-01    0.467E-01
DAV:   4    -0.136636906704E+04    0.28212E-02   -0.18484E-02  2600   0.331E-01    0.337E-01
DAV:   5    -0.136636630352E+04    0.27635E-02   -0.96062E-03  2328   0.189E-01    0.134E-01
DAV:   6    -0.136636648413E+04   -0.18062E-03   -0.61277E-03  2368   0.141E-01    0.988E-02
DAV:   7    -0.136636650566E+04   -0.21531E-04   -0.31103E-03  2440   0.993E-02    0.708E-02
DAV:   8    -0.136636650050E+04    0.51667E-05   -0.93568E-04  2600   0.623E-02    0.487E-02
DAV:   9    -0.136636648127E+04    0.19228E-04   -0.24992E-04  2520   0.323E-02    0.320E-02
DAV:  10    -0.136636648330E+04   -0.20308E-05   -0.10798E-04  2552   0.191E-02    0.169E-02
DAV:  11    -0.136636648645E+04   -0.31522E-05   -0.33670E-05  2392   0.126E-02    0.121E-02
DAV:  12    -0.136636648476E+04    0.16908E-05   -0.21469E-05  2168   0.102E-02    0.875E-03
DAV:  13    -0.136636648447E+04    0.29612E-06   -0.12070E-05  1800   0.690E-03    0.525E-03
DAV:  14    -0.136636648410E+04    0.36442E-06   -0.25999E-06  1072   0.493E-03
  13 F= -.13663665E+04 E0= -.13663665E+04  d E =-.308797E+00
 BRION: g(F)=  0.103E+00 g(S)=  0.000E+00 retain N=  3 mean eig= 5.25
 eig:   2.011  6.862  6.862
 bond charge predicted
       N       E                     dE             d eps       ncg     rms          rms(c)
DAV:   1    -0.136644911235E+04   -0.82628E-01   -0.20666E+01  1376   0.650E+00    0.756E-01
DAV:   2    -0.136655702509E+04   -0.10791E+00   -0.11429E+00  2296   0.264E+00    0.392E-01
DAV:   3    -0.136656304605E+04   -0.60210E-02   -0.88085E-02  2592   0.492E-01    0.314E-01
DAV:   4    -0.136656152259E+04    0.15235E-02   -0.84991E-03  2584   0.219E-01    0.217E-01
DAV:   5    -0.136656025547E+04    0.12671E-02   -0.46144E-03  2304   0.138E-01    0.817E-02
DAV:   6    -0.136656040961E+04   -0.15414E-03   -0.30241E-03  2400   0.102E-01    0.709E-02
DAV:   7    -0.136656040373E+04    0.58822E-05   -0.12042E-03  2416   0.633E-02    0.501E-02
DAV:   8    -0.136656039594E+04    0.77889E-05   -0.39965E-04  2584   0.385E-02    0.273E-02
DAV:   9    -0.136656038951E+04    0.64257E-05   -0.95361E-05  2352   0.207E-02    0.194E-02
DAV:  10    -0.136656039079E+04   -0.12822E-05   -0.48171E-05  2344   0.131E-02    0.126E-02
DAV:  11    -0.136656038973E+04    0.10597E-05   -0.19529E-05  2104   0.974E-03    0.605E-03
DAV:  12    -0.136656039019E+04   -0.45646E-06   -0.91967E-06  1760   0.674E-03
  14 F= -.13665604E+04 E0= -.13665604E+04  d E =-.193906E+00
 BRION: g(F)=  0.948E-01 g(S)=  0.000E+00 retain N=  3 mean eig= 5.11
 eig:   6.732  6.732  1.868
 bond charge predicted
       N       E                     dE             d eps       ncg     rms          rms(c)
DAV:   1    -0.136662880317E+04   -0.68413E-01   -0.27750E+01  1376   0.748E+00    0.860E-01
DAV:   2    -0.136677353102E+04   -0.14473E+00   -0.15287E+00  2296   0.305E+00    0.447E-01
DAV:   3    -0.136678185179E+04   -0.83208E-02   -0.11861E-01  2600   0.562E-01    0.359E-01
DAV:   4    -0.136677997161E+04    0.18802E-02   -0.10813E-02  2600   0.250E-01    0.251E-01
DAV:   5    -0.136677835898E+04    0.16126E-02   -0.57952E-03  2312   0.149E-01    0.950E-02
DAV:   6    -0.136677852771E+04   -0.16873E-03   -0.35188E-03  2384   0.107E-01    0.756E-02
DAV:   7    -0.136677852282E+04    0.48925E-05   -0.15283E-03  2432   0.711E-02    0.524E-02
DAV:   8    -0.136677851871E+04    0.41075E-05   -0.49801E-04  2552   0.442E-02    0.333E-02
DAV:   9    -0.136677851016E+04    0.85527E-05   -0.12091E-04  2416   0.230E-02    0.230E-02
DAV:  10    -0.136677851157E+04   -0.14134E-05   -0.70298E-05  2464   0.151E-02    0.127E-02
DAV:  11    -0.136677851190E+04   -0.33391E-06   -0.21322E-05  2184   0.105E-02    0.740E-03
DAV:  12    -0.136677851193E+04   -0.30239E-07   -0.11630E-05  1800   0.756E-03    0.633E-03
DAV:  13    -0.136677851145E+04    0.47972E-06   -0.35064E-06  1168   0.525E-03
  15 F= -.13667785E+04 E0= -.13667785E+04  d E =-.218121E+00
 BRION: g(F)=  0.844E-01 g(S)=  0.000E+00 retain N=  3 mean eig= 5.58
 eig:   7.584  7.584  1.582
 bond charge predicted
       N       E                     dE             d eps       ncg     rms          rms(c)
DAV:   1    -0.136685470791E+04   -0.76196E-01   -0.17897E+01  1376   0.599E+00    0.681E-01
DAV:   2    -0.136694689647E+04   -0.92189E-01   -0.97237E-01  2296   0.242E+00    0.355E-01
DAV:   3    -0.136695213434E+04   -0.52379E-02   -0.74885E-02  2576   0.447E-01    0.282E-01
DAV:   4    -0.136695093146E+04    0.12029E-02   -0.68872E-03  2576   0.196E-01    0.198E-01
DAV:   5    -0.136694985931E+04    0.10721E-02   -0.38767E-03  2280   0.123E-01    0.730E-02
DAV:   6    -0.136694998432E+04   -0.12502E-03   -0.23365E-03  2400   0.869E-02    0.622E-02
DAV:   7    -0.136694997797E+04    0.63568E-05   -0.85226E-04  2448   0.541E-02    0.425E-02
DAV:   8    -0.136694997055E+04    0.74173E-05   -0.30061E-04  2560   0.339E-02    0.242E-02
DAV:   9    -0.136694996650E+04    0.40499E-05   -0.70593E-05  2312   0.178E-02    0.173E-02
DAV:  10    -0.136694996726E+04   -0.75444E-06   -0.37103E-05  2304   0.115E-02    0.961E-03
DAV:  11    -0.136694996688E+04    0.37470E-06   -0.10460E-05  1816   0.813E-03    0.479E-03
DAV:  12    -0.136694996749E+04   -0.60804E-06   -0.92860E-06  1632   0.607E-03
  16 F= -.13669500E+04 E0= -.13669500E+04  d E =-.171456E+00
 BRION: g(F)=  0.771E-01 g(S)=  0.000E+00 retain N=  3 mean eig= 4.16
 eig:   5.563  5.563  1.354
 bond charge predicted
       N       E                     dE             d eps       ncg     rms          rms(c)
DAV:   1    -0.136702585056E+04   -0.75884E-01   -0.16105E+01  1376   0.569E+00    0.655E-01
DAV:   2    -0.136710815820E+04   -0.82308E-01   -0.86795E-01  2296   0.228E+00    0.339E-01
DAV:   3    -0.136711284956E+04   -0.46914E-02   -0.67019E-02  2568   0.424E-01    0.270E-01
DAV:   4    -0.136711176483E+04    0.10847E-02   -0.64776E-03  2568   0.188E-01    0.187E-01
DAV:   5    -0.136711085612E+04    0.90871E-03   -0.35696E-03  2288   0.119E-01    0.702E-02
DAV:   6    -0.136711097800E+04   -0.12188E-03   -0.20736E-03  2432   0.841E-02    0.609E-02
DAV:   7    -0.136711096494E+04    0.13060E-04   -0.79337E-04  2488   0.528E-02    0.413E-02
DAV:   8    -0.136711095890E+04    0.60440E-05   -0.29587E-04  2544   0.332E-02    0.235E-02
DAV:   9    -0.136711095555E+04    0.33430E-05   -0.61344E-05  2392   0.168E-02    0.169E-02
DAV:  10    -0.136711095595E+04   -0.39508E-06   -0.38330E-05  2344   0.113E-02    0.916E-03
DAV:  11    -0.136711095546E+04    0.49036E-06   -0.75756E-06  1504   0.782E-03
  17 F= -.13671110E+04 E0= -.13671110E+04  d E =-.160988E+00
 BRION: g(F)=  0.714E-01 g(S)=  0.000E+00 retain N=  3 mean eig= 5.07
 eig:   6.816  6.816  1.563
 bond charge predicted
       N       E                     dE             d eps       ncg     rms          rms(c)
DAV:   1    -0.136718652767E+04   -0.75572E-01   -0.17963E+01  1368   0.598E+00    0.671E-01
DAV:   2    -0.136727726454E+04   -0.90737E-01   -0.95385E-01  2296   0.237E+00    0.346E-01
DAV:   3    -0.136728256996E+04   -0.53054E-02   -0.74041E-02  2576   0.441E-01    0.274E-01
DAV:   4    -0.136728146906E+04    0.11009E-02   -0.65105E-03  2568   0.190E-01    0.194E-01
DAV:   5    -0.136728042579E+04    0.10433E-02   -0.37213E-03  2296   0.122E-01    0.734E-02
DAV:   6    -0.136728054095E+04   -0.11516E-03   -0.23101E-03  2416   0.875E-02    0.619E-02
DAV:   7    -0.136728053397E+04    0.69789E-05   -0.85948E-04  2480   0.545E-02    0.430E-02
DAV:   8    -0.136728052598E+04    0.79871E-05   -0.30637E-04  2544   0.341E-02    0.244E-02
DAV:   9    -0.136728052146E+04    0.45229E-05   -0.69730E-05  2288   0.176E-02    0.170E-02
DAV:  10    -0.136728052209E+04   -0.62956E-06   -0.39369E-05  2272   0.117E-02    0.905E-03
DAV:  11    -0.136728052173E+04    0.36035E-06   -0.73378E-06  1504   0.782E-03
  18 F= -.13672805E+04 E0= -.13672805E+04  d E =-.169566E+00
 BRION: g(F)=  0.672E-01 g(S)=  0.000E+00 retain N=  3 mean eig= 5.17
 eig:   6.854  6.854  1.795
 bond charge predicted
       N       E                     dE             d eps       ncg     rms          rms(c)
DAV:   1    -0.136735438418E+04   -0.73862E-01   -0.14903E+01  1384   0.546E+00    0.619E-01
DAV:   2    -0.136742995375E+04   -0.75570E-01   -0.79430E-01  2296   0.217E+00    0.319E-01
DAV:   3    -0.136743433575E+04   -0.43820E-02   -0.61613E-02  2568   0.405E-01    0.253E-01
DAV:   4    -0.136743338888E+04    0.94687E-03   -0.56890E-03  2560   0.176E-01    0.176E-01
DAV:   5    -0.136743256298E+04    0.82590E-03   -0.31139E-03  2280   0.112E-01    0.670E-02
DAV:   6    -0.136743265780E+04   -0.94818E-04   -0.18659E-03  2408   0.797E-02    0.556E-02
DAV:   7    -0.136743265195E+04    0.58474E-05   -0.69983E-04  2480   0.494E-02    0.386E-02
DAV:   8    -0.136743264674E+04    0.52120E-05   -0.26246E-04  2544   0.313E-02    0.225E-02
DAV:   9    -0.136743264369E+04    0.30555E-05   -0.58820E-05  2432   0.162E-02    0.159E-02
DAV:  10    -0.136743264382E+04   -0.13634E-06   -0.31546E-05  2336   0.106E-02    0.846E-03
DAV:  11    -0.136743264352E+04    0.30186E-06   -0.61313E-06  1368   0.734E-03
  19 F= -.13674326E+04 E0= -.13674326E+04  d E =-.152122E+00
 BRION: g(F)=  0.640E-01 g(S)=  0.000E+00 retain N=  3 mean eig= 4.87
 eig:   6.321  6.321  1.967
 bond charge predicted
       N       E                     dE             d eps       ncg     rms          rms(c)
DAV:   1    -0.136750207560E+04   -0.69432E-01   -0.17254E+01  1384   0.587E+00    0.652E-01
DAV:   2    -0.136758897828E+04   -0.86903E-01   -0.91287E-01  2296   0.232E+00    0.337E-01
DAV:   3    -0.136759418370E+04   -0.52054E-02   -0.71684E-02  2576   0.434E-01    0.266E-01
DAV:   4    -0.136759318506E+04    0.99864E-03   -0.62975E-03  2576   0.186E-01    0.189E-01
DAV:   5    -0.136759227780E+04    0.90726E-03   -0.33304E-03  2320   0.114E-01    0.750E-02
DAV:   6    -0.136759235317E+04   -0.75371E-04   -0.20148E-03  2376   0.827E-02    0.571E-02
DAV:   7    -0.136759235482E+04   -0.16428E-05   -0.91130E-04  2480   0.552E-02    0.410E-02
DAV:   8    -0.136759235025E+04    0.45709E-05   -0.29833E-04  2512   0.345E-02    0.270E-02
DAV:   9    -0.136759234470E+04    0.55464E-05   -0.78076E-05  2488   0.180E-02    0.175E-02
DAV:  10    -0.136759234488E+04   -0.18469E-06   -0.36942E-05  2432   0.112E-02    0.895E-03
DAV:  11    -0.136759234497E+04   -0.87573E-07   -0.58496E-06  1368   0.724E-03
  20 F= -.13675923E+04 E0= -.13675923E+04  d E =-.159701E+00
 BRION: g(F)=  0.597E-01 g(S)=  0.000E+00 retain N=  2 mean eig= 3.58
 eig:   3.577  3.577
