 running on  160 total cores
 distrk:  each k-point on  160 cores,    1 groups
 distr:  one band on   20 cores,    8 groups
 using from now: INCAR     
 vasp.5.4.4.18Apr17-6-g9f103f2a35 (build May 01 2020 14:22:42) gamma-only       
  
 POSCAR found type information on POSCAR  O  La Zr Li Al
 POSCAR found :  5 types and     190 ions
 scaLAPACK will be used
 LDA part: xc-table for Pade appr. of Perdew
 POSCAR, INCAR and KPOINTS ok, starting setup
 FFT: planning ...
 WAVECAR not read
 WARNING: random wavefunctions but no delay for mixing, default for NELMDL
 entering main loop
       N       E                     dE             d eps       ncg     rms          rms(c)
DAV:   1     0.252983928442E+05    0.25298E+05   -0.42338E+05  1608   0.253E+03
DAV:   2     0.942803051205E+04   -0.15870E+05   -0.14619E+05  1408   0.709E+02
DAV:   3     0.277482816650E+04   -0.66532E+04   -0.60553E+04  1480   0.356E+02
DAV:   4    -0.338211268333E+03   -0.31130E+04   -0.29025E+04  2016   0.220E+02
DAV:   5    -0.141047260533E+04   -0.10723E+04   -0.10301E+04  2536   0.145E+02    0.116E+02
DAV:   6    -0.130776148479E+04    0.10271E+03   -0.14994E+03  2432   0.660E+01    0.506E+01
DAV:   7    -0.132978916738E+04   -0.22028E+02   -0.40597E+02  2544   0.340E+01    0.259E+01
DAV:   8    -0.133911575090E+04   -0.93266E+01   -0.30149E+02  2480   0.288E+01    0.279E+01
DAV:   9    -0.133029101957E+04    0.88247E+01   -0.62725E+01  2504   0.156E+01    0.780E+00
DAV:  10    -0.133141639003E+04   -0.11254E+01   -0.15300E+01  2624   0.850E+00    0.793E+00
DAV:  11    -0.133152444605E+04   -0.10806E+00   -0.74676E+00  2624   0.464E+00    0.412E+00
DAV:  12    -0.133141291152E+04    0.11153E+00   -0.23690E+00  2544   0.359E+00    0.282E+00
DAV:  13    -0.133148325054E+04   -0.70339E-01   -0.83531E-01  2560   0.168E+00    0.196E+00
DAV:  14    -0.133146762257E+04    0.15628E-01   -0.25921E-01  2608   0.107E+00    0.122E+00
DAV:  15    -0.133147363136E+04   -0.60088E-02   -0.96157E-02  2536   0.574E-01    0.906E-01
DAV:  16    -0.133147295017E+04    0.68118E-03   -0.30780E-02  2624   0.345E-01    0.574E-01
DAV:  17    -0.133147104807E+04    0.19021E-02   -0.22918E-02  2544   0.294E-01    0.283E-01
DAV:  18    -0.133147133314E+04   -0.28507E-03   -0.47335E-03  2520   0.149E-01    0.114E-01
DAV:  19    -0.133147139821E+04   -0.65063E-04   -0.15979E-03  2552   0.795E-02    0.769E-02
DAV:  20    -0.133147144094E+04   -0.42736E-04   -0.41764E-04  2624   0.405E-02    0.219E-02
DAV:  21    -0.133147145140E+04   -0.10455E-04   -0.15001E-04  2608   0.232E-02    0.333E-02
DAV:  22    -0.133147147274E+04   -0.21344E-04   -0.64436E-05  2464   0.176E-02    0.163E-02
DAV:  23    -0.133147146544E+04    0.73003E-05   -0.33817E-05  2192   0.113E-02    0.980E-03
DAV:  24    -0.133147146941E+04   -0.39632E-05   -0.86238E-06  1208   0.810E-03    0.435E-03
DAV:  25    -0.133147146996E+04   -0.55603E-06   -0.12398E-05  1600   0.606E-03    0.608E-03
DAV:  26    -0.133147147128E+04   -0.13199E-05   -0.15448E-06  1016   0.477E-03    0.352E-03
DAV:  27    -0.133147147137E+04   -0.91532E-07   -0.12314E-06   960   0.339E-03
   1 F= -.13314715E+04 E0= -.13314715E+04  d E =-.133147E+04
 BRION: g(F)=  0.522E+02 g(S)=  0.000E+00
 bond charge predicted
       N       E                     dE             d eps       ncg     rms          rms(c)
DAV:   1    -0.130953823164E+04    0.21933E+02   -0.59602E+03  1688   0.117E+02    0.227E+01
DAV:   2    -0.135096518850E+04   -0.41427E+02   -0.48448E+02  2576   0.515E+01    0.124E+01
DAV:   3    -0.134978869135E+04    0.11765E+01   -0.28954E+01  2616   0.139E+01    0.834E+00
DAV:   4    -0.134804302759E+04    0.17457E+01   -0.87650E+00  2424   0.644E+00    0.407E+00
DAV:   5    -0.134777149064E+04    0.27154E+00   -0.30593E+00  2536   0.404E+00    0.279E+00
DAV:   6    -0.134772203777E+04    0.49453E-01   -0.25641E+00  2592   0.289E+00    0.163E+00
DAV:   7    -0.134769397180E+04    0.28066E-01   -0.46290E-01  2528   0.160E+00    0.910E-01
DAV:   8    -0.134769871849E+04   -0.47467E-02   -0.29820E-01  2624   0.936E-01    0.673E-01
DAV:   9    -0.134769595655E+04    0.27619E-02   -0.38832E-02  2608   0.499E-01    0.489E-01
DAV:  10    -0.134769330098E+04    0.26556E-02   -0.49368E-02  2384   0.388E-01    0.195E-01
DAV:  11    -0.134769438015E+04   -0.10792E-02   -0.15018E-02  2424   0.251E-01    0.192E-01
DAV:  12    -0.134769420038E+04    0.17977E-03   -0.25886E-03  2608   0.102E-01    0.121E-01
DAV:  13    -0.134769403515E+04    0.16522E-03   -0.16955E-03  2592   0.761E-02    0.329E-02
DAV:  14    -0.134769406938E+04   -0.34223E-04   -0.52121E-04  2616   0.447E-02    0.192E-02
DAV:  15    -0.134769408003E+04   -0.10651E-04   -0.79674E-05  2616   0.208E-02    0.223E-02
DAV:  16    -0.134769407216E+04    0.78653E-05   -0.41506E-05  2528   0.133E-02    0.111E-02
DAV:  17    -0.134769407318E+04   -0.10211E-05   -0.19450E-05  2336   0.901E-03    0.506E-03
DAV:  18    -0.134769407296E+04    0.22203E-06   -0.14701E-06   992   0.509E-03
   2 F= -.13476941E+04 E0= -.13476941E+04  d E =-.162226E+02
 BRION: g(F)=  0.102E+03 g(S)=  0.000E+00 retain N=  1 mean eig= 0.38
 eig:   0.378
 bond charge predicted
       N       E                     dE             d eps       ncg     rms          rms(c)
DAV:   1    -0.133682658930E+04    0.10867E+02   -0.17370E+03  1320   0.481E+01    0.186E+01
DAV:   2    -0.135894224396E+04   -0.22116E+02   -0.29882E+02  2544   0.258E+01    0.176E+01
DAV:   3    -0.135580762341E+04    0.31346E+01   -0.33739E+01  2464   0.107E+01    0.114E+01
DAV:   4    -0.135368069240E+04    0.21269E+01   -0.22809E+01  2176   0.528E+00    0.413E+00
DAV:   5    -0.135412456289E+04   -0.44387E+00   -0.50829E+00  2472   0.355E+00    0.508E+00
DAV:   6    -0.135366272945E+04    0.46183E+00   -0.40699E+00  2504   0.252E+00    0.118E+00
DAV:   7    -0.135372296192E+04   -0.60232E-01   -0.73225E-01  2528   0.172E+00    0.123E+00
DAV:   8    -0.135369541247E+04    0.27549E-01   -0.17591E-01  2544   0.816E-01    0.577E-01
DAV:   9    -0.135369597576E+04   -0.56329E-03   -0.74223E-02  2504   0.456E-01    0.244E-01
DAV:  10    -0.135369679355E+04   -0.81779E-03   -0.15317E-02  2544   0.244E-01    0.182E-01
DAV:  11    -0.135369668812E+04    0.10543E-03   -0.46781E-03  2584   0.134E-01    0.160E-01
DAV:  12    -0.135369637871E+04    0.30941E-03   -0.45115E-03  2352   0.108E-01    0.508E-02
DAV:  13    -0.135369646484E+04   -0.86134E-04   -0.12669E-03  2320   0.668E-02    0.471E-02
DAV:  14    -0.135369646382E+04    0.10270E-05   -0.22340E-04  2600   0.292E-02    0.378E-02
DAV:  15    -0.135369644821E+04    0.15611E-04   -0.12650E-04  2592   0.199E-02    0.140E-02
DAV:  16    -0.135369644949E+04   -0.12884E-05   -0.41354E-05  2464   0.125E-02    0.455E-03
DAV:  17    -0.135369645008E+04   -0.59056E-06   -0.56986E-06  1584   0.621E-03
   3 F= -.13536965E+04 E0= -.13536965E+04  d E =-.600238E+01
 BRION: g(F)=  0.174E+02 g(S)=  0.000E+00 retain N=  2 mean eig= 1.45
 eig:   0.194  2.705
 bond charge predicted
       N       E                     dE             d eps       ncg     rms          rms(c)
DAV:   1    -0.135277937944E+04    0.91707E+00   -0.68450E+02  1384   0.316E+01    0.803E+00
DAV:   2    -0.135748369480E+04   -0.47043E+01   -0.56527E+01  2448   0.146E+01    0.474E+00
DAV:   3    -0.135729337413E+04    0.19032E+00   -0.38219E+00  2432   0.469E+00    0.381E+00
DAV:   4    -0.135708574182E+04    0.20763E+00   -0.24497E+00  2248   0.231E+00    0.166E+00
DAV:   5    -0.135709621427E+04   -0.10472E-01   -0.52130E-01  2440   0.139E+00    0.182E+00
DAV:   6    -0.135704403764E+04    0.52177E-01   -0.39007E-01  2400   0.120E+00    0.715E-01
DAV:   7    -0.135705009174E+04   -0.60541E-02   -0.22479E-01  2424   0.750E-01    0.641E-01
DAV:   8    -0.135704901198E+04    0.10798E-02   -0.38223E-02  2568   0.355E-01    0.509E-01
DAV:   9    -0.135704499067E+04    0.40213E-02   -0.16754E-02  2440   0.223E-01    0.220E-01
DAV:  10    -0.135704546336E+04   -0.47269E-03   -0.15103E-02  2480   0.174E-01    0.133E-01
DAV:  11    -0.135704516026E+04    0.30310E-03   -0.18207E-03  2520   0.943E-02    0.589E-02
DAV:  12    -0.135704519971E+04   -0.39449E-04   -0.10190E-03  2504   0.495E-02    0.274E-02
DAV:  13    -0.135704520850E+04   -0.87976E-05   -0.11477E-04  2600   0.228E-02    0.203E-02
DAV:  14    -0.135704520362E+04    0.48808E-05   -0.43724E-05  2544   0.130E-02    0.972E-03
DAV:  15    -0.135704520458E+04   -0.95498E-06   -0.23702E-05  2288   0.904E-03    0.460E-03
DAV:  16    -0.135704520443E+04    0.15048E-06   -0.18079E-06  1072   0.427E-03
   4 F= -.13570452E+04 E0= -.13570452E+04  d E =-.334875E+01
 BRION: g(F)=  0.565E+01 g(S)=  0.000E+00 retain N=  3 mean eig= 2.53
 eig:   6.863  0.360  0.360
 bond charge predicted
       N       E                     dE             d eps       ncg     rms          rms(c)
DAV:   1    -0.135865075912E+04   -0.16056E+01   -0.24901E+02  1368   0.219E+01    0.445E+00
DAV:   2    -0.135990150313E+04   -0.12507E+01   -0.13460E+01  2280   0.821E+00    0.208E+00
DAV:   3    -0.135991282443E+04   -0.11321E-01   -0.94099E-01  2624   0.179E+00    0.169E+00
DAV:   4    -0.135987388494E+04    0.38939E-01   -0.34178E-01  2416   0.111E+00    0.727E-01
DAV:   5    -0.135987421166E+04   -0.32672E-03   -0.83824E-02  2456   0.621E-01    0.559E-01
DAV:   6    -0.135987335289E+04    0.85877E-03   -0.76803E-02  2480   0.434E-01    0.259E-01
DAV:   7    -0.135987291682E+04    0.43607E-03   -0.11000E-02  2416   0.220E-01    0.212E-01
DAV:   8    -0.135987270126E+04    0.21557E-03   -0.75662E-03  2368   0.136E-01    0.787E-02
DAV:   9    -0.135987277062E+04   -0.69360E-04   -0.18404E-03  2520   0.803E-02    0.745E-02
DAV:  10    -0.135987271259E+04    0.58028E-04   -0.55669E-04  2576   0.480E-02    0.427E-02
DAV:  11    -0.135987271863E+04   -0.60408E-05   -0.36660E-04  2512   0.317E-02    0.195E-02
DAV:  12    -0.135987271756E+04    0.10668E-05   -0.64002E-05  2440   0.150E-02    0.110E-02
DAV:  13    -0.135987271847E+04   -0.90474E-06   -0.19724E-05  2240   0.937E-03    0.654E-03
DAV:  14    -0.135987271859E+04   -0.12021E-06   -0.89774E-06  1776   0.600E-03
   5 F= -.13598727E+04 E0= -.13598727E+04  d E =-.282751E+01
 BRION: g(F)=  0.267E+01 g(S)=  0.000E+00 retain N=  4 mean eig= 2.00
 eig:   6.776  0.011  0.602  0.602
 bond charge predicted
       N       E                     dE             d eps       ncg     rms          rms(c)
DAV:   1    -0.136072725492E+04   -0.85454E+00   -0.21309E+02  1368   0.203E+01    0.294E+00
DAV:   2    -0.136176081158E+04   -0.10336E+01   -0.11035E+01  2288   0.770E+00    0.150E+00
DAV:   3    -0.136179345213E+04   -0.32641E-01   -0.76843E-01  2600   0.157E+00    0.126E+00
DAV:   4    -0.136176625712E+04    0.27195E-01   -0.13132E-01  2584   0.792E-01    0.744E-01
DAV:   5    -0.136175605926E+04    0.10198E-01   -0.71850E-02  2360   0.528E-01    0.370E-01
DAV:   6    -0.136175730965E+04   -0.12504E-02   -0.35075E-02  2568   0.364E-01    0.310E-01
DAV:   7    -0.136175654003E+04    0.76962E-03   -0.15626E-02  2480   0.226E-01    0.183E-01
DAV:   8    -0.136175650680E+04    0.33230E-04   -0.50539E-03  2520   0.130E-01    0.916E-02
DAV:   9    -0.136175644923E+04    0.57576E-04   -0.87068E-04  2568   0.638E-02    0.653E-02
DAV:  10    -0.136175650085E+04   -0.51621E-04   -0.89653E-04  2272   0.484E-02    0.583E-02
DAV:  11    -0.136175644364E+04    0.57210E-04   -0.27949E-04  2528   0.383E-02    0.233E-02
DAV:  12    -0.136175645554E+04   -0.11903E-04   -0.24323E-04  2416   0.256E-02    0.213E-02
DAV:  13    -0.136175644977E+04    0.57652E-05   -0.55709E-05  2264   0.153E-02    0.750E-03
DAV:  14    -0.136175645047E+04   -0.69159E-06   -0.12501E-05  1760   0.790E-03    0.384E-03
DAV:  15    -0.136175645064E+04   -0.16950E-06   -0.15324E-06   992   0.444E-03
   6 F= -.13617565E+04 E0= -.13617565E+04  d E =-.188373E+01
 BRION: g(F)=  0.176E+01 g(S)=  0.000E+00 retain N=  5 mean eig= 2.01
 eig:   7.144  0.429  0.960  0.960  0.558
 bond charge predicted
       N       E                     dE             d eps       ncg     rms          rms(c)
DAV:   1    -0.136228775988E+04   -0.53131E+00   -0.23010E+02  1368   0.213E+01    0.281E+00
DAV:   2    -0.136345887425E+04   -0.11711E+01   -0.12298E+01  2296   0.805E+00    0.147E+00
DAV:   3    -0.136350302900E+04   -0.44155E-01   -0.86631E-01  2616   0.162E+00    0.125E+00
DAV:   4    -0.136347996195E+04    0.23067E-01   -0.12197E-01  2592   0.761E-01    0.786E-01
DAV:   5    -0.136346403730E+04    0.15925E-01   -0.57902E-02  2280   0.492E-01    0.324E-01
DAV:   6    -0.136346609689E+04   -0.20596E-02   -0.43399E-02  2392   0.389E-01    0.328E-01
DAV:   7    -0.136346508761E+04    0.10093E-02   -0.16315E-02  2344   0.239E-01    0.230E-01
DAV:   8    -0.136346489393E+04    0.19368E-03   -0.77933E-03  2368   0.149E-01    0.102E-01
DAV:   9    -0.136346482326E+04    0.70670E-04   -0.15590E-03  2392   0.753E-02    0.694E-02
DAV:  10    -0.136346484567E+04   -0.22409E-04   -0.68195E-04  2488   0.448E-02    0.514E-02
DAV:  11    -0.136346481799E+04    0.27677E-04   -0.30097E-04  2480   0.359E-02    0.277E-02
DAV:  12    -0.136346481835E+04   -0.35328E-06   -0.14738E-04  2440   0.253E-02    0.236E-02
DAV:  13    -0.136346481513E+04    0.32184E-05   -0.86480E-05  2320   0.161E-02    0.108E-02
DAV:  14    -0.136346481599E+04   -0.86158E-06   -0.20531E-05  2008   0.858E-03    0.775E-03
DAV:  15    -0.136346481544E+04    0.55313E-06   -0.19506E-06  1032   0.534E-03
   7 F= -.13634648E+04 E0= -.13634648E+04  d E =-.170836E+01
 BRION: g(F)=  0.115E+01 g(S)=  0.000E+00 retain N=  6 mean eig= 2.15
 eig:   7.261  2.085  2.085  0.177  0.812  0.485
 bond charge predicted
       N       E                     dE             d eps       ncg     rms          rms(c)
DAV:   1    -0.136379262642E+04   -0.32781E+00   -0.15774E+02  1376   0.176E+01    0.232E+00
DAV:   2    -0.136459620101E+04   -0.80357E+00   -0.84510E+00  2296   0.669E+00    0.123E+00
DAV:   3    -0.136462785935E+04   -0.31658E-01   -0.61440E-01  2608   0.133E+00    0.995E-01
DAV:   4    -0.136460952120E+04    0.18338E-01   -0.90008E-02  2528   0.659E-01    0.579E-01
DAV:   5    -0.136460198149E+04    0.75397E-02   -0.37964E-02  2392   0.401E-01    0.247E-01
DAV:   6    -0.136460284371E+04   -0.86223E-03   -0.20406E-02  2496   0.275E-01    0.192E-01
DAV:   7    -0.136460263248E+04    0.21123E-03   -0.70048E-03  2312   0.165E-01    0.140E-01
DAV:   8    -0.136460263387E+04   -0.13840E-05   -0.33394E-03  2384   0.957E-02    0.732E-02
DAV:   9    -0.136460260577E+04    0.28100E-04   -0.65865E-04  2400   0.516E-02    0.526E-02
DAV:  10    -0.136460259584E+04    0.99225E-05   -0.41670E-04  2456   0.385E-02    0.389E-02
DAV:  11    -0.136460258772E+04    0.81182E-05   -0.21847E-04  2496   0.282E-02    0.146E-02
DAV:  12    -0.136460259047E+04   -0.27475E-05   -0.54557E-05  2376   0.159E-02    0.133E-02
DAV:  13    -0.136460258973E+04    0.74174E-06   -0.28624E-05  2096   0.100E-02    0.712E-03
DAV:  14    -0.136460258971E+04    0.22148E-07   -0.46977E-06  1232   0.593E-03
   8 F= -.13646026E+04 E0= -.13646026E+04  d E =-.113777E+01
 BRION: g(F)=  0.477E+00 g(S)=  0.000E+00 retain N=  6 mean eig= 1.29
 eig:   3.235  1.727  1.727  0.077  0.487  0.487
 bond charge predicted
       N       E                     dE             d eps       ncg     rms          rms(c)
DAV:   1    -0.136481073008E+04   -0.20814E+00   -0.12131E+02  1376   0.157E+01    0.197E+00
DAV:   2    -0.136543497053E+04   -0.62424E+00   -0.65723E+00  2296   0.612E+00    0.969E-01
DAV:   3    -0.136546934534E+04   -0.34375E-01   -0.50725E-01  2616   0.120E+00    0.793E-01
DAV:   4    -0.136546068020E+04    0.86651E-02   -0.54301E-02  2608   0.549E-01    0.532E-01
DAV:   5    -0.136545384984E+04    0.68304E-02   -0.26728E-02  2328   0.344E-01    0.209E-01
DAV:   6    -0.136545481965E+04   -0.96981E-03   -0.17852E-02  2480   0.253E-01    0.183E-01
DAV:   7    -0.136545467686E+04    0.14279E-03   -0.61163E-03  2448   0.151E-01    0.133E-01
DAV:   8    -0.136545460994E+04    0.66922E-04   -0.29955E-03  2592   0.983E-02    0.649E-02
DAV:   9    -0.136545458453E+04    0.25409E-04   -0.56167E-04  2408   0.507E-02    0.474E-02
DAV:  10    -0.136545458503E+04   -0.50310E-06   -0.21567E-04  2488   0.289E-02    0.297E-02
DAV:  11    -0.136545458153E+04    0.35017E-05   -0.98956E-05  2512   0.205E-02    0.146E-02
DAV:  12    -0.136545458314E+04   -0.16085E-05   -0.42334E-05  2368   0.139E-02    0.132E-02
DAV:  13    -0.136545458183E+04    0.13062E-05   -0.23227E-05  2016   0.888E-03    0.648E-03
DAV:  14    -0.136545458169E+04    0.14476E-06   -0.43323E-06  1272   0.573E-03
   9 F= -.13654546E+04 E0= -.13654546E+04  d E =-.851992E+00
 BRION: g(F)=  0.535E+00 g(S)=  0.000E+00 retain N=  7 mean eig= 1.36
 eig:   2.031  2.105  2.105  2.098  0.045  0.494  0.610
 bond charge predicted
       N       E                     dE             d eps       ncg     rms          rms(c)
DAV:   1    -0.136566046635E+04   -0.20588E+00   -0.10200E+02  1368   0.144E+01    0.179E+00
DAV:   2    -0.136619015492E+04   -0.52969E+00   -0.55905E+00  2280   0.563E+00    0.894E-01
DAV:   3    -0.136622042743E+04   -0.30273E-01   -0.44704E-01  2608   0.114E+00    0.723E-01
DAV:   4    -0.136621282278E+04    0.76047E-02   -0.47492E-02  2600   0.512E-01    0.489E-01
DAV:   5    -0.136620692194E+04    0.59008E-02   -0.23310E-02  2360   0.320E-01    0.195E-01
DAV:   6    -0.136620759420E+04   -0.67226E-03   -0.14766E-02  2464   0.233E-01    0.159E-01
DAV:   7    -0.136620756578E+04    0.28422E-04   -0.54848E-03  2448   0.142E-01    0.119E-01
DAV:   8    -0.136620751359E+04    0.52187E-04   -0.22532E-03  2608   0.892E-02    0.617E-02
DAV:   9    -0.136620748994E+04    0.23649E-04   -0.50443E-04  2480   0.465E-02    0.423E-02
DAV:  10    -0.136620749642E+04   -0.64727E-05   -0.21664E-04  2528   0.287E-02    0.283E-02
DAV:  11    -0.136620749218E+04    0.42353E-05   -0.91463E-05  2528   0.203E-02    0.139E-02
DAV:  12    -0.136620749372E+04   -0.15399E-05   -0.40004E-05  2320   0.134E-02    0.130E-02
DAV:  13    -0.136620749216E+04    0.15654E-05   -0.21595E-05  1920   0.866E-03    0.599E-03
DAV:  14    -0.136620749210E+04    0.57364E-07   -0.55580E-06  1392   0.589E-03
  10 F= -.13662075E+04 E0= -.13662075E+04  d E =-.752910E+00
 BRION: g(F)=  0.254E+00 g(S)=  0.000E+00 retain N=  8 mean eig= 2.26
 eig:   6.698  3.832  3.832  0.142  1.291  0.374  0.964  0.964
 bond charge predicted
       N       E                     dE             d eps       ncg     rms          rms(c)
DAV:   1    -0.136625670258E+04   -0.49210E-01   -0.10985E+02  1368   0.151E+01    0.180E+00
DAV:   2    -0.136683467171E+04   -0.57797E+00   -0.61126E+00  2312   0.597E+00    0.920E-01
DAV:   3    -0.136686828363E+04   -0.33612E-01   -0.48569E-01  2600   0.116E+00    0.742E-01
DAV:   4    -0.136686100230E+04    0.72813E-02   -0.48815E-02  2608   0.526E-01    0.524E-01
DAV:   5    -0.136685404619E+04    0.69561E-02   -0.23380E-02  2360   0.318E-01    0.216E-01
DAV:   6    -0.136685437991E+04   -0.33372E-03   -0.16560E-02  2360   0.245E-01    0.155E-01
DAV:   7    -0.136685449076E+04   -0.11085E-03   -0.74499E-03  2432   0.160E-01    0.127E-01
DAV:   8    -0.136685442210E+04    0.68654E-04   -0.23621E-03  2616   0.971E-02    0.710E-02
DAV:   9    -0.136685439094E+04    0.31166E-04   -0.76331E-04  2576   0.527E-02    0.432E-02
DAV:  10    -0.136685440781E+04   -0.16876E-04   -0.22675E-04  2616   0.310E-02    0.335E-02
DAV:  11    -0.136685440357E+04    0.42459E-05   -0.13323E-04  2456   0.227E-02    0.203E-02
DAV:  12    -0.136685440106E+04    0.25112E-05   -0.62835E-05  2352   0.171E-02    0.162E-02
DAV:  13    -0.136685439947E+04    0.15844E-05   -0.36961E-05  2200   0.108E-02    0.808E-03
DAV:  14    -0.136685439935E+04    0.12072E-06   -0.10599E-05  1760   0.641E-03    0.311E-03
DAV:  15    -0.136685439941E+04   -0.60303E-07   -0.14051E-06   968   0.409E-03
  11 F= -.13668544E+04 E0= -.13668544E+04  d E =-.646907E+00
 BRION: g(F)=  0.184E+00 g(S)=  0.000E+00 retain N=  9 mean eig= 2.94
 eig:   6.662  6.760  6.760  1.517  1.517  0.118  0.377  1.743  1.009
 bond charge predicted
       N       E                     dE             d eps       ncg     rms          rms(c)
DAV:   1    -0.136690473664E+04   -0.50337E-01   -0.79144E+01  1376   0.127E+01    0.146E+00
DAV:   2    -0.136731249241E+04   -0.40776E+00   -0.42858E+00  2288   0.500E+00    0.751E-01
DAV:   3    -0.136733552030E+04   -0.23028E-01   -0.33344E-01  2592   0.975E-01    0.610E-01
DAV:   4    -0.136733082003E+04    0.47003E-02   -0.31524E-02  2616   0.415E-01    0.447E-01
DAV:   5    -0.136732487356E+04    0.59465E-02   -0.14572E-02  2320   0.265E-01    0.195E-01
DAV:   6    -0.136732481580E+04    0.57761E-04   -0.14051E-02  2288   0.227E-01    0.115E-01
DAV:   7    -0.136732504051E+04   -0.22472E-03   -0.59444E-03  2448   0.140E-01    0.109E-01
DAV:   8    -0.136732499633E+04    0.44183E-04   -0.13626E-03  2600   0.762E-02    0.645E-02
DAV:   9    -0.136732494505E+04    0.51284E-04   -0.69872E-04  2568   0.499E-02    0.334E-02
DAV:  10    -0.136732496457E+04   -0.19527E-04   -0.20905E-04  2560   0.301E-02    0.301E-02
DAV:  11    -0.136732495590E+04    0.86764E-05   -0.10384E-04  2392   0.201E-02    0.155E-02
DAV:  12    -0.136732495621E+04   -0.31755E-06   -0.53281E-05  2256   0.150E-02    0.132E-02
DAV:  13    -0.136732495521E+04    0.10030E-05   -0.24582E-05  2024   0.919E-03    0.748E-03
DAV:  14    -0.136732495492E+04    0.28784E-06   -0.89962E-06  1744   0.635E-03
  12 F= -.13673250E+04 E0= -.13673250E+04  d E =-.470556E+00
 BRION: g(F)=  0.161E+00 g(S)=  0.000E+00 retain N=  8 mean eig= 3.27
 eig:   7.981  7.981  3.134  1.692  1.692  0.871  0.871  1.945
 bond charge predicted
       N       E                     dE             d eps       ncg     rms          rms(c)
DAV:   1    -0.136740828840E+04   -0.83333E-01   -0.48295E+01  1368   0.992E+00    0.113E+00
DAV:   2    -0.136766007533E+04   -0.25179E+00   -0.26467E+00  2296   0.397E+00    0.584E-01
DAV:   3    -0.136767434003E+04   -0.14265E-01   -0.20283E-01  2584   0.748E-01    0.470E-01
DAV:   4    -0.136767148020E+04    0.28598E-02   -0.18389E-02  2600   0.324E-01    0.348E-01
DAV:   5    -0.136766796288E+04    0.35173E-02   -0.95248E-03  2344   0.207E-01    0.148E-01
DAV:   6    -0.136766800065E+04   -0.37767E-04   -0.82625E-03  2328   0.173E-01    0.967E-02
DAV:   7    -0.136766809948E+04   -0.98839E-04   -0.36049E-03  2440   0.108E-01    0.842E-02
DAV:   8    -0.136766807076E+04    0.28726E-04   -0.90794E-04  2576   0.624E-02    0.477E-02
DAV:   9    -0.136766804164E+04    0.29116E-04   -0.38319E-04  2472   0.376E-02    0.259E-02
DAV:  10    -0.136766805186E+04   -0.10223E-04   -0.11793E-04  2520   0.222E-02    0.214E-02
DAV:  11    -0.136766804868E+04    0.31817E-05   -0.64492E-05  2400   0.157E-02    0.114E-02
DAV:  12    -0.136766804870E+04   -0.15876E-07   -0.22752E-05  2144   0.108E-02    0.103E-02
DAV:  13    -0.136766804793E+04    0.76636E-06   -0.15123E-05  1760   0.712E-03    0.536E-03
DAV:  14    -0.136766804755E+04    0.38203E-06   -0.23324E-06  1000   0.498E-03
  13 F= -.13676680E+04 E0= -.13676680E+04  d E =-.343093E+00
 BRION: g(F)=  0.124E+00 g(S)=  0.000E+00 retain N=  6 mean eig= 4.24
 eig:   7.754  7.754  3.885  3.885  0.658  1.510
 bond charge predicted
       N       E                     dE             d eps       ncg     rms          rms(c)
DAV:   1    -0.136776917337E+04   -0.10113E+00   -0.31457E+01  1376   0.800E+00    0.893E-01
DAV:   2    -0.136793238733E+04   -0.16321E+00   -0.17130E+00  2288   0.320E+00    0.461E-01
DAV:   3    -0.136794195371E+04   -0.95664E-02   -0.13195E-01  2560   0.603E-01    0.370E-01
DAV:   4    -0.136794031425E+04    0.16395E-02   -0.11455E-02  2568   0.257E-01    0.280E-01
DAV:   5    -0.136793806198E+04    0.22523E-02   -0.60258E-03  2320   0.167E-01    0.121E-01
DAV:   6    -0.136793807638E+04   -0.14400E-04   -0.55054E-03  2304   0.141E-01    0.782E-02
DAV:   7    -0.136793814370E+04   -0.67318E-04   -0.23368E-03  2448   0.872E-02    0.670E-02
DAV:   8    -0.136793813075E+04    0.12952E-04   -0.58418E-04  2576   0.504E-02    0.387E-02
DAV:   9    -0.136793810829E+04    0.22453E-04   -0.24747E-04  2480   0.304E-02    0.206E-02
DAV:  10    -0.136793811450E+04   -0.62066E-05   -0.74934E-05  2560   0.180E-02    0.171E-02
DAV:  11    -0.136793811244E+04    0.20557E-05   -0.41473E-05  2256   0.125E-02    0.911E-03
DAV:  12    -0.136793811238E+04    0.67143E-07   -0.11749E-05  1768   0.842E-03    0.807E-03
DAV:  13    -0.136793811191E+04    0.46355E-06   -0.10498E-05  1568   0.615E-03    0.386E-03
DAV:  14    -0.136793811173E+04    0.18504E-06   -0.14876E-06   944   0.486E-03
  14 F= -.13679381E+04 E0= -.13679381E+04  d E =-.270064E+00
 BRION: g(F)=  0.113E+00 g(S)=  0.000E+00 retain N=  6 mean eig= 4.90
 eig:   7.571  7.571  5.096  5.096  2.031  2.031
 bond charge predicted
       N       E                     dE             d eps       ncg     rms          rms(c)
DAV:   1    -0.136805238136E+04   -0.11427E+00   -0.21754E+01  1384   0.667E+00    0.738E-01
DAV:   2    -0.136816678818E+04   -0.11441E+00   -0.12011E+00  2296   0.271E+00    0.378E-01
DAV:   3    -0.136817372953E+04   -0.69414E-02   -0.92788E-02  2568   0.503E-01    0.307E-01
DAV:   4    -0.136817277694E+04    0.95260E-03   -0.78633E-03  2600   0.213E-01    0.237E-01
DAV:   5    -0.136817122823E+04    0.15487E-02   -0.38482E-03  2328   0.138E-01    0.111E-01
DAV:   6    -0.136817116425E+04    0.63984E-04   -0.41452E-03  2272   0.124E-01    0.675E-02
DAV:   7    -0.136817122592E+04   -0.61669E-04   -0.19975E-03  2392   0.798E-02    0.620E-02
DAV:   8    -0.136817121323E+04    0.12685E-04   -0.44361E-04  2536   0.453E-02    0.392E-02
DAV:   9    -0.136817118978E+04    0.23450E-04   -0.22663E-04  2544   0.284E-02    0.188E-02
DAV:  10    -0.136817119546E+04   -0.56753E-05   -0.73570E-05  2544   0.175E-02    0.150E-02
DAV:  11    -0.136817119463E+04    0.82359E-06   -0.30927E-05  2088   0.111E-02    0.988E-03
DAV:  12    -0.136817119406E+04    0.57678E-06   -0.13854E-05  1872   0.899E-03    0.839E-03
DAV:  13    -0.136817119372E+04    0.33804E-06   -0.99479E-06  1752   0.628E-03
  15 F= -.13681712E+04 E0= -.13681712E+04  d E =-.233082E+00
 BRION: g(F)=  0.107E+00 g(S)=  0.000E+00 retain N=  4 mean eig= 5.16
 eig:   7.990  7.990  2.321  2.321
 bond charge predicted
       N       E                     dE             d eps       ncg     rms          rms(c)
DAV:   1    -0.136827885979E+04   -0.10767E+00   -0.25220E+01  1384   0.717E+00    0.801E-01
DAV:   2    -0.136841188676E+04   -0.13303E+00   -0.13995E+00  2304   0.292E+00    0.410E-01
DAV:   3    -0.136842005559E+04   -0.81688E-02   -0.10897E-01  2560   0.536E-01    0.334E-01
DAV:   4    -0.136841888341E+04    0.11722E-02   -0.94863E-03  2584   0.234E-01    0.254E-01
DAV:   5    -0.136841721956E+04    0.16638E-02   -0.48580E-03  2320   0.149E-01    0.114E-01
DAV:   6    -0.136841722933E+04   -0.97699E-05   -0.44295E-03  2288   0.127E-01    0.784E-02
DAV:   7    -0.136841727012E+04   -0.40788E-04   -0.21954E-03  2448   0.843E-02    0.669E-02
DAV:   8    -0.136841725109E+04    0.19034E-04   -0.57282E-04  2576   0.505E-02    0.410E-02
DAV:   9    -0.136841722947E+04    0.21614E-04   -0.21727E-04  2488   0.278E-02    0.216E-02
DAV:  10    -0.136841723434E+04   -0.48707E-05   -0.82286E-05  2520   0.175E-02    0.150E-02
DAV:  11    -0.136841723479E+04   -0.44960E-06   -0.32367E-05  2264   0.116E-02    0.110E-02
DAV:  12    -0.136841723356E+04    0.12337E-05   -0.12734E-05  1840   0.894E-03    0.922E-03
DAV:  13    -0.136841723293E+04    0.63016E-06   -0.13655E-05  1744   0.699E-03    0.482E-03
DAV:  14    -0.136841723263E+04    0.29709E-06   -0.15608E-06   936   0.463E-03
  16 F= -.13684172E+04 E0= -.13684172E+04  d E =-.246039E+00
 BRION: g(F)=  0.101E+00 g(S)=  0.000E+00 retain N=  4 mean eig= 4.29
 eig:   6.665  6.665  1.924  1.924
 bond charge predicted
       N       E                     dE             d eps       ncg     rms          rms(c)
DAV:   1    -0.136852452654E+04   -0.10729E+00   -0.34854E+01  1384   0.844E+00    0.932E-01
DAV:   2    -0.136870901655E+04   -0.18449E+00   -0.19413E+00  2296   0.342E+00    0.479E-01
DAV:   3    -0.136872015517E+04   -0.11139E-01   -0.15126E-01  2560   0.643E-01    0.384E-01
DAV:   4    -0.136871845974E+04    0.16954E-02   -0.13422E-02  2600   0.277E-01    0.291E-01
DAV:   5    -0.136871615918E+04    0.23006E-02   -0.58709E-03  2376   0.171E-01    0.141E-01
DAV:   6    -0.136871593707E+04    0.22212E-03   -0.60414E-03  2240   0.154E-01    0.799E-02
DAV:   7    -0.136871608257E+04   -0.14550E-03   -0.34507E-03  2408   0.105E-01    0.791E-02
DAV:   8    -0.136871606523E+04    0.17339E-04   -0.66703E-04  2568   0.570E-02    0.571E-02
DAV:   9    -0.136871602014E+04    0.45089E-04   -0.38195E-04  2568   0.364E-02    0.260E-02
DAV:  10    -0.136871603048E+04   -0.10344E-04   -0.15153E-04  2568   0.238E-02    0.187E-02
DAV:  11    -0.136871602986E+04    0.62544E-06   -0.40145E-05  2312   0.134E-02    0.119E-02
DAV:  12    -0.136871602915E+04    0.70970E-06   -0.29884E-05  2208   0.116E-02    0.112E-02
DAV:  13    -0.136871602824E+04    0.91334E-06   -0.16572E-05  1960   0.806E-03    0.763E-03
DAV:  14    -0.136871602755E+04    0.68906E-06   -0.25569E-06  1040   0.535E-03
  17 F= -.13687160E+04 E0= -.13687160E+04  d E =-.298795E+00
 BRION: g(F)=  0.909E-01 g(S)=  0.000E+00 retain N=  3 mean eig= 5.11
 eig:   6.780  6.780  1.780
 bond charge predicted
       N       E                     dE             d eps       ncg     rms          rms(c)
DAV:   1    -0.136882789345E+04   -0.11187E+00   -0.27457E+01  1384   0.746E+00    0.836E-01
DAV:   2    -0.136897216709E+04   -0.14427E+00   -0.15239E+00  2304   0.301E+00    0.430E-01
DAV:   3    -0.136898089015E+04   -0.87231E-02   -0.12002E-01  2552   0.573E-01    0.346E-01
DAV:   4    -0.136897943966E+04    0.14505E-02   -0.11141E-02  2584   0.250E-01    0.255E-01
DAV:   5    -0.136897774629E+04    0.16934E-02   -0.50788E-03  2368   0.152E-01    0.117E-01
DAV:   6    -0.136897767643E+04    0.69858E-04   -0.42912E-03  2272   0.127E-01    0.746E-02
DAV:   7    -0.136897774781E+04   -0.71379E-04   -0.23654E-03  2456   0.884E-02    0.683E-02
DAV:   8    -0.136897772975E+04    0.18060E-04   -0.57969E-04  2600   0.507E-02    0.466E-02
DAV:   9    -0.136897770507E+04    0.24687E-04   -0.26816E-04  2528   0.297E-02    0.227E-02
DAV:  10    -0.136897771069E+04   -0.56265E-05   -0.90666E-05  2536   0.187E-02    0.163E-02
DAV:  11    -0.136897771136E+04   -0.67032E-06   -0.30265E-05  2256   0.115E-02    0.114E-02
DAV:  12    -0.136897770990E+04    0.14620E-05   -0.22760E-05  2184   0.105E-02    0.939E-03
DAV:  13    -0.136897770944E+04    0.45676E-06   -0.12494E-05  1816   0.691E-03    0.638E-03
DAV:  14    -0.136897770889E+04    0.55105E-06   -0.18645E-06   960   0.476E-03
  18 F= -.13689777E+04 E0= -.13689777E+04  d E =-.261681E+00
 BRION: g(F)=  0.826E-01 g(S)=  0.000E+00 retain N=  3 mean eig= 5.24
 eig:   6.865  6.865  2.000
 bond charge predicted
       N       E                     dE             d eps       ncg     rms          rms(c)
DAV:   1    -0.136903270571E+04   -0.54996E-01   -0.47149E+01  1384   0.979E+00    0.110E+00
DAV:   2    -0.136928025768E+04   -0.24755E+00   -0.26077E+00  2288   0.392E+00    0.565E-01
DAV:   3    -0.136929442728E+04   -0.14170E-01   -0.20183E-01  2552   0.750E-01    0.447E-01
DAV:   4    -0.136929158592E+04    0.28414E-02   -0.19375E-02  2576   0.328E-01    0.324E-01
DAV:   5    -0.136928868043E+04    0.29055E-02   -0.80953E-03  2384   0.198E-01    0.152E-01
DAV:   6    -0.136928842775E+04    0.25268E-03   -0.70999E-03  2256   0.168E-01    0.839E-02
DAV:   7    -0.136928862507E+04   -0.19732E-03   -0.40140E-03  2472   0.113E-01    0.871E-02
DAV:   8    -0.136928860002E+04    0.25041E-04   -0.77544E-04  2608   0.603E-02    0.635E-02
DAV:   9    -0.136928854834E+04    0.51681E-04   -0.48996E-04  2520   0.404E-02    0.282E-02
DAV:  10    -0.136928856269E+04   -0.14350E-04   -0.19260E-04  2496   0.271E-02    0.219E-02
DAV:  11    -0.136928856059E+04    0.21046E-05   -0.44298E-05  2352   0.145E-02    0.127E-02
DAV:  12    -0.136928855918E+04    0.14118E-05   -0.42105E-05  2064   0.131E-02    0.106E-02
DAV:  13    -0.136928855897E+04    0.20776E-06   -0.20779E-05  2008   0.888E-03    0.841E-03
DAV:  14    -0.136928855816E+04    0.81350E-06   -0.52192E-06  1376   0.577E-03
  19 F= -.13692886E+04 E0= -.13692886E+04  d E =-.310849E+00
 BRION: g(F)=  0.717E-01 g(S)=  0.000E+00 retain N=  2 mean eig= 5.13
 eig:   5.127  5.127
 bond charge predicted
       N       E                     dE             d eps       ncg     rms          rms(c)
DAV:   1    -0.136936714941E+04   -0.78590E-01   -0.23664E+01  1384   0.691E+00    0.776E-01
DAV:   2    -0.136949045455E+04   -0.12331E+00   -0.13023E+00  2304   0.275E+00    0.403E-01
DAV:   3    -0.136949741229E+04   -0.69577E-02   -0.10116E-01  2560   0.526E-01    0.320E-01
DAV:   4    -0.136949589502E+04    0.15173E-02   -0.98543E-03  2568   0.232E-01    0.227E-01
DAV:   5    -0.136949450261E+04    0.13924E-02   -0.42371E-03  2392   0.135E-01    0.101E-01
DAV:   6    -0.136949442044E+04    0.82172E-04   -0.30899E-03  2280   0.105E-01    0.592E-02
DAV:   7    -0.136949448889E+04   -0.68455E-04   -0.16413E-03  2472   0.735E-02    0.563E-02
DAV:   8    -0.136949447595E+04    0.12941E-04   -0.42269E-04  2584   0.428E-02    0.385E-02
DAV:   9    -0.136949446190E+04    0.14050E-04   -0.19246E-04  2536   0.255E-02    0.197E-02
DAV:  10    -0.136949446549E+04   -0.35892E-05   -0.62116E-05  2536   0.157E-02    0.144E-02
DAV:  11    -0.136949446527E+04    0.22308E-06   -0.16928E-05  2088   0.913E-03    0.889E-03
DAV:  12    -0.136949446431E+04    0.95688E-06   -0.18428E-05  1792   0.883E-03    0.628E-03
DAV:  13    -0.136949446443E+04   -0.11492E-06   -0.83522E-06  1760   0.639E-03
  20 F= -.13694945E+04 E0= -.13694945E+04  d E =-.205906E+00
 BRION: g(F)=  0.636E-01 g(S)=  0.000E+00 retain N=  2 mean eig= 4.31
 eig:   4.305  4.305
