 running on  160 total cores
 distrk:  each k-point on  160 cores,    1 groups
 distr:  one band on   20 cores,    8 groups
 using from now: INCAR     
 vasp.5.4.4.18Apr17-6-g9f103f2a35 (build May 01 2020 14:22:42) gamma-only       
  
 POSCAR found type information on POSCAR  O  La Zr Li Al
 POSCAR found :  5 types and     190 ions
 scaLAPACK will be used
 LDA part: xc-table for Pade appr. of Perdew
 POSCAR, INCAR and KPOINTS ok, starting setup
 FFT: planning ...
 WAVECAR not read
 WARNING: random wavefunctions but no delay for mixing, default for NELMDL
 entering main loop
       N       E                     dE             d eps       ncg     rms          rms(c)
DAV:   1     0.253145686229E+05    0.25315E+05   -0.42228E+05  1576   0.253E+03
DAV:   2     0.943695241023E+04   -0.15878E+05   -0.14595E+05  1416   0.708E+02
DAV:   3     0.264846645902E+04   -0.67885E+04   -0.62065E+04  1520   0.357E+02
DAV:   4    -0.410243632329E+03   -0.30587E+04   -0.28507E+04  2072   0.224E+02
DAV:   5    -0.143745807025E+04   -0.10272E+04   -0.10018E+04  2528   0.141E+02    0.117E+02
DAV:   6    -0.130504769631E+04    0.13241E+03   -0.13638E+03  2432   0.654E+01    0.501E+01
DAV:   7    -0.132741227770E+04   -0.22365E+02   -0.35356E+02  2576   0.330E+01    0.238E+01
DAV:   8    -0.133571353920E+04   -0.83013E+01   -0.21936E+02  2568   0.241E+01    0.241E+01
DAV:   9    -0.133017585746E+04    0.55377E+01   -0.49038E+01  2488   0.141E+01    0.782E+00
DAV:  10    -0.133116310516E+04   -0.98725E+00   -0.16648E+01  2616   0.804E+00    0.757E+00
DAV:  11    -0.133141609789E+04   -0.25299E+00   -0.56382E+00  2616   0.424E+00    0.441E+00
DAV:  12    -0.133122111530E+04    0.19498E+00   -0.27286E+00  2576   0.351E+00    0.308E+00
DAV:  13    -0.133129192050E+04   -0.70805E-01   -0.84670E-01  2568   0.183E+00    0.209E+00
DAV:  14    -0.133127727132E+04    0.14649E-01   -0.24501E-01  2624   0.100E+00    0.124E+00
DAV:  15    -0.133128374531E+04   -0.64740E-02   -0.81866E-02  2600   0.567E-01    0.106E+00
DAV:  16    -0.133128437327E+04   -0.62796E-03   -0.27246E-02  2624   0.299E-01    0.690E-01
DAV:  17    -0.133128325392E+04    0.11193E-02   -0.17374E-02  2352   0.264E-01    0.344E-01
DAV:  18    -0.133128358339E+04   -0.32947E-03   -0.44902E-03  2344   0.136E-01    0.171E-01
DAV:  19    -0.133128364298E+04   -0.59585E-04   -0.17999E-03  2544   0.852E-02    0.123E-01
DAV:  20    -0.133128367448E+04   -0.31502E-04   -0.55189E-04  2592   0.434E-02    0.530E-02
DAV:  21    -0.133128369227E+04   -0.17792E-04   -0.18269E-04  2624   0.241E-02    0.438E-02
DAV:  22    -0.133128370842E+04   -0.16146E-04   -0.68737E-05  2432   0.162E-02    0.168E-02
DAV:  23    -0.133128370531E+04    0.31042E-05   -0.33998E-05  2088   0.108E-02    0.962E-03
DAV:  24    -0.133128371015E+04   -0.48341E-05   -0.95729E-06  1176   0.803E-03    0.231E-03
DAV:  25    -0.133128370913E+04    0.10206E-05   -0.41631E-06  1040   0.509E-03    0.403E-03
DAV:  26    -0.133128371043E+04   -0.13030E-05   -0.20532E-06  1032   0.489E-03    0.215E-03
DAV:  27    -0.133128371143E+04   -0.99912E-06   -0.99812E-07   992   0.320E-03
   1 F= -.13312837E+04 E0= -.13312837E+04  d E =-.133128E+04
 BRION: g(F)=  0.538E+02 g(S)=  0.000E+00
 bond charge predicted
       N       E                     dE             d eps       ncg     rms          rms(c)
DAV:   1    -0.129328079064E+04    0.38003E+02   -0.68992E+03  1672   0.124E+02    0.294E+01
DAV:   2    -0.134907743236E+04   -0.55797E+02   -0.64868E+02  2568   0.564E+01    0.140E+01
DAV:   3    -0.134806578387E+04    0.10116E+01   -0.38816E+01  2624   0.155E+01    0.953E+00
DAV:   4    -0.134645142023E+04    0.16144E+01   -0.12274E+01  2464   0.686E+00    0.464E+00
DAV:   5    -0.134623191275E+04    0.21951E+00   -0.27012E+00  2512   0.373E+00    0.299E+00
DAV:   6    -0.134615484748E+04    0.77065E-01   -0.23827E+00  2488   0.282E+00    0.148E+00
DAV:   7    -0.134616811580E+04   -0.13268E-01   -0.53639E-01  2512   0.160E+00    0.117E+00
DAV:   8    -0.134616029411E+04    0.78217E-02   -0.24913E-01  2608   0.851E-01    0.475E-01
DAV:   9    -0.134616220906E+04   -0.19150E-02   -0.36644E-02  2608   0.447E-01    0.312E-01
DAV:  10    -0.134616191836E+04    0.29070E-03   -0.12055E-02  2624   0.243E-01    0.168E-01
DAV:  11    -0.134616244463E+04   -0.52628E-03   -0.94134E-03  2624   0.177E-01    0.122E-01
DAV:  12    -0.134616250154E+04   -0.56905E-04   -0.17568E-03  2600   0.878E-02    0.740E-02
DAV:  13    -0.134616245940E+04    0.42142E-04   -0.79181E-04  2616   0.567E-02    0.240E-02
DAV:  14    -0.134616247805E+04   -0.18654E-04   -0.22574E-04  2592   0.308E-02    0.142E-02
DAV:  15    -0.134616248534E+04   -0.72898E-05   -0.72220E-05  2624   0.176E-02    0.106E-02
DAV:  16    -0.134616248501E+04    0.32931E-06   -0.14761E-05  1816   0.954E-03    0.835E-03
DAV:  17    -0.134616248596E+04   -0.94523E-06   -0.23954E-05  2008   0.883E-03    0.541E-03
DAV:  18    -0.134616248581E+04    0.14574E-06   -0.24534E-06  1096   0.530E-03
   2 F= -.13461625E+04 E0= -.13461625E+04  d E =-.148788E+02
 BRION: g(F)=  0.104E+03 g(S)=  0.000E+00 retain N=  1 mean eig= 0.38
 eig:   0.385
 bond charge predicted
       N       E                     dE             d eps       ncg     rms          rms(c)
DAV:   1    -0.133353907524E+04    0.12623E+02   -0.20024E+03  1384   0.565E+01    0.188E+01
DAV:   2    -0.135831183833E+04   -0.24773E+02   -0.31901E+02  2552   0.294E+01    0.169E+01
DAV:   3    -0.135582199845E+04    0.24898E+01   -0.30779E+01  2528   0.106E+01    0.127E+01
DAV:   4    -0.135372240780E+04    0.20996E+01   -0.27675E+01  2176   0.557E+00    0.564E+00
DAV:   5    -0.135425948989E+04   -0.53708E+00   -0.58933E+00  2448   0.343E+00    0.676E+00
DAV:   6    -0.135343916748E+04    0.82032E+00   -0.88939E+00  2472   0.319E+00    0.159E+00
DAV:   7    -0.135353203452E+04   -0.92867E-01   -0.14385E+00  2240   0.241E+00    0.173E+00
DAV:   8    -0.135349128751E+04    0.40747E-01   -0.43978E-01  2456   0.109E+00    0.837E-01
DAV:   9    -0.135348779855E+04    0.34890E-02   -0.12622E-01  2512   0.609E-01    0.318E-01
DAV:  10    -0.135348846707E+04   -0.66852E-03   -0.25121E-02  2568   0.311E-01    0.201E-01
DAV:  11    -0.135348856291E+04   -0.95839E-04   -0.56896E-03  2616   0.158E-01    0.156E-01
DAV:  12    -0.135348831789E+04    0.24502E-03   -0.35993E-03  2608   0.101E-01    0.482E-02
DAV:  13    -0.135348841991E+04   -0.10201E-03   -0.13466E-03  2592   0.699E-02    0.568E-02
DAV:  14    -0.135348840547E+04    0.14441E-04   -0.29520E-04  2608   0.336E-02    0.401E-02
DAV:  15    -0.135348839116E+04    0.14303E-04   -0.21504E-04  2536   0.237E-02    0.157E-02
DAV:  16    -0.135348839207E+04   -0.90580E-06   -0.71768E-05  2480   0.160E-02    0.478E-03
DAV:  17    -0.135348839278E+04   -0.71338E-06   -0.99730E-06  1912   0.850E-03
   3 F= -.13534884E+04 E0= -.13534884E+04  d E =-.732591E+01
 BRION: g(F)=  0.139E+02 g(S)=  0.000E+00 retain N=  2 mean eig= 1.64
 eig:   0.221  3.068
 bond charge predicted
       N       E                     dE             d eps       ncg     rms          rms(c)
DAV:   1    -0.135342958573E+04    0.58806E-01   -0.60783E+02  1400   0.319E+01    0.699E+00
DAV:   2    -0.135734367154E+04   -0.39141E+01   -0.46645E+01  2328   0.142E+01    0.366E+00
DAV:   3    -0.135739940068E+04   -0.55729E-01   -0.38833E+00  2552   0.437E+00    0.336E+00
DAV:   4    -0.135724525285E+04    0.15415E+00   -0.95119E-01  2464   0.180E+00    0.180E+00
DAV:   5    -0.135722282959E+04    0.22423E-01   -0.70077E-01  2216   0.137E+00    0.146E+00
DAV:   6    -0.135720135551E+04    0.21474E-01   -0.20782E-01  2480   0.977E-01    0.117E+00
DAV:   7    -0.135719023380E+04    0.11122E-01   -0.26422E-01  2312   0.816E-01    0.545E-01
DAV:   8    -0.135718955550E+04    0.67830E-03   -0.37760E-02  2464   0.400E-01    0.373E-01
DAV:   9    -0.135718866601E+04    0.88949E-03   -0.12903E-02  2560   0.196E-01    0.168E-01
DAV:  10    -0.135718874642E+04   -0.80403E-04   -0.50488E-03  2456   0.122E-01    0.937E-02
DAV:  11    -0.135718869977E+04    0.46649E-04   -0.96825E-04  2448   0.716E-02    0.521E-02
DAV:  12    -0.135718870628E+04   -0.65131E-05   -0.70743E-04  2464   0.456E-02    0.239E-02
DAV:  13    -0.135718870595E+04    0.33295E-06   -0.12329E-04  2520   0.247E-02    0.119E-02
DAV:  14    -0.135718871168E+04   -0.57351E-05   -0.77559E-05  2512   0.143E-02    0.135E-02
DAV:  15    -0.135718870955E+04    0.21319E-05   -0.12839E-05  2040   0.831E-03    0.657E-03
DAV:  16    -0.135718870944E+04    0.11118E-06   -0.82697E-06  1608   0.585E-03
   4 F= -.13571887E+04 E0= -.13571887E+04  d E =-.370032E+01
 BRION: g(F)=  0.536E+01 g(S)=  0.000E+00 retain N=  3 mean eig= 2.58
 eig:   6.987  0.379  0.379
 bond charge predicted
       N       E                     dE             d eps       ncg     rms          rms(c)
DAV:   1    -0.135866882321E+04   -0.14801E+01   -0.23757E+02  1360   0.212E+01    0.335E+00
DAV:   2    -0.135987985048E+04   -0.12110E+01   -0.13056E+01  2304   0.784E+00    0.187E+00
DAV:   3    -0.135990251224E+04   -0.22662E-01   -0.90313E-01  2600   0.172E+00    0.155E+00
DAV:   4    -0.135986136152E+04    0.41151E-01   -0.21901E-01  2528   0.929E-01    0.757E-01
DAV:   5    -0.135985480170E+04    0.65598E-02   -0.87733E-02  2440   0.593E-01    0.490E-01
DAV:   6    -0.135985410920E+04    0.69250E-03   -0.54547E-02  2568   0.439E-01    0.296E-01
DAV:   7    -0.135985403222E+04    0.76981E-04   -0.20538E-02  2384   0.254E-01    0.226E-01
DAV:   8    -0.135985384160E+04    0.19062E-03   -0.50997E-03  2456   0.131E-01    0.122E-01
DAV:   9    -0.135985373138E+04    0.11023E-03   -0.24490E-03  2544   0.836E-02    0.714E-02
DAV:  10    -0.135985378905E+04   -0.57675E-04   -0.91735E-04  2344   0.572E-02    0.719E-02
DAV:  11    -0.135985372510E+04    0.63955E-04   -0.46382E-04  2312   0.394E-02    0.303E-02
DAV:  12    -0.135985373380E+04   -0.87016E-05   -0.34858E-04  2344   0.320E-02    0.233E-02
DAV:  13    -0.135985373033E+04    0.34639E-05   -0.63117E-05  2328   0.173E-02    0.159E-02
DAV:  14    -0.135985372972E+04    0.61524E-06   -0.59687E-05  2024   0.113E-02    0.679E-03
DAV:  15    -0.135985372953E+04    0.18971E-06   -0.73735E-06  1560   0.668E-03
   5 F= -.13598537E+04 E0= -.13598537E+04  d E =-.266502E+01
 BRION: g(F)=  0.268E+01 g(S)=  0.000E+00 retain N=  4 mean eig= 2.02
 eig:   6.980  0.007  0.552  0.552
 bond charge predicted
       N       E                     dE             d eps       ncg     rms          rms(c)
DAV:   1    -0.136070967209E+04   -0.85594E+00   -0.20656E+02  1360   0.195E+01    0.299E+00
DAV:   2    -0.136169580123E+04   -0.98613E+00   -0.10461E+01  2280   0.726E+00    0.151E+00
DAV:   3    -0.136171463255E+04   -0.18831E-01   -0.68526E-01  2592   0.147E+00    0.127E+00
DAV:   4    -0.136168279461E+04    0.31838E-01   -0.16216E-01  2520   0.790E-01    0.654E-01
DAV:   5    -0.136167657296E+04    0.62216E-02   -0.68554E-02  2432   0.510E-01    0.403E-01
DAV:   6    -0.136167634131E+04    0.23165E-03   -0.32635E-02  2568   0.346E-01    0.250E-01
DAV:   7    -0.136167594991E+04    0.39140E-03   -0.13516E-02  2424   0.210E-01    0.163E-01
DAV:   8    -0.136167597995E+04   -0.30040E-04   -0.42058E-03  2368   0.116E-01    0.949E-02
DAV:   9    -0.136167588468E+04    0.95268E-04   -0.11992E-03  2560   0.636E-02    0.559E-02
DAV:  10    -0.136167594127E+04   -0.56593E-04   -0.97673E-04  2448   0.508E-02    0.587E-02
DAV:  11    -0.136167588543E+04    0.55841E-04   -0.36989E-04  2496   0.384E-02    0.191E-02
DAV:  12    -0.136167589616E+04   -0.10734E-04   -0.18231E-04  2432   0.237E-02    0.152E-02
DAV:  13    -0.136167589505E+04    0.11155E-05   -0.32298E-05  2240   0.118E-02    0.855E-03
DAV:  14    -0.136167589503E+04    0.21711E-07   -0.16416E-05  1800   0.718E-03    0.388E-03
DAV:  15    -0.136167589517E+04   -0.14510E-06   -0.20844E-06  1048   0.463E-03
   6 F= -.13616759E+04 E0= -.13616759E+04  d E =-.182217E+01
 BRION: g(F)=  0.186E+01 g(S)=  0.000E+00 retain N=  5 mean eig= 1.98
 eig:   7.261  0.563  0.747  0.747  0.602
 bond charge predicted
       N       E                     dE             d eps       ncg     rms          rms(c)
DAV:   1    -0.136201490563E+04   -0.33901E+00   -0.25987E+02  1352   0.220E+01    0.305E+00
DAV:   2    -0.136331734530E+04   -0.13024E+01   -0.13602E+01  2288   0.818E+00    0.165E+00
DAV:   3    -0.136335487299E+04   -0.37528E-01   -0.90823E-01  2600   0.163E+00    0.134E+00
DAV:   4    -0.136332072823E+04    0.34145E-01   -0.16547E-01  2528   0.806E-01    0.729E-01
DAV:   5    -0.136331117787E+04    0.95504E-02   -0.71656E-02  2472   0.509E-01    0.356E-01
DAV:   6    -0.136331191353E+04   -0.73567E-03   -0.26753E-02  2568   0.312E-01    0.243E-01
DAV:   7    -0.136331146987E+04    0.44367E-03   -0.93149E-03  2512   0.189E-01    0.143E-01
DAV:   8    -0.136331157076E+04   -0.10089E-03   -0.43544E-03  2592   0.111E-01    0.842E-02
DAV:   9    -0.136331149803E+04    0.72722E-04   -0.70610E-04  2568   0.576E-02    0.557E-02
DAV:  10    -0.136331151303E+04   -0.14995E-04   -0.72816E-04  2296   0.444E-02    0.382E-02
DAV:  11    -0.136331149925E+04    0.13775E-04   -0.24998E-04  2504   0.325E-02    0.135E-02
DAV:  12    -0.136331150522E+04   -0.59666E-05   -0.85262E-05  2384   0.176E-02    0.139E-02
DAV:  13    -0.136331150348E+04    0.17428E-05   -0.28246E-05  2096   0.105E-02    0.670E-03
DAV:  14    -0.136331150365E+04   -0.17285E-06   -0.91825E-06  1744   0.649E-03
   7 F= -.13633115E+04 E0= -.13633115E+04  d E =-.163561E+01
 BRION: g(F)=  0.105E+01 g(S)=  0.000E+00 retain N=  6 mean eig= 2.31
 eig:   7.986  2.290  2.290  0.105  0.604  0.604
 bond charge predicted
       N       E                     dE             d eps       ncg     rms          rms(c)
DAV:   1    -0.136369822476E+04   -0.38672E+00   -0.51970E+01  1376   0.100E+01    0.145E+00
DAV:   2    -0.136395669139E+04   -0.25847E+00   -0.27472E+00  2288   0.379E+00    0.754E-01
DAV:   3    -0.136396668787E+04   -0.99965E-02   -0.20877E-01  2600   0.800E-01    0.581E-01
DAV:   4    -0.136396063251E+04    0.60554E-02   -0.29565E-02  2504   0.376E-01    0.326E-01
DAV:   5    -0.136395898960E+04    0.16429E-02   -0.14503E-02  2368   0.238E-01    0.149E-01
DAV:   6    -0.136395930609E+04   -0.31650E-03   -0.66056E-03  2552   0.153E-01    0.114E-01
DAV:   7    -0.136395927602E+04    0.30069E-04   -0.20617E-03  2528   0.881E-02    0.812E-02
DAV:   8    -0.136395923802E+04    0.38006E-04   -0.81281E-04  2592   0.520E-02    0.417E-02
DAV:   9    -0.136395922876E+04    0.92557E-05   -0.16255E-04  2544   0.287E-02    0.261E-02
DAV:  10    -0.136395923771E+04   -0.89493E-05   -0.17973E-04  2296   0.225E-02    0.241E-02
DAV:  11    -0.136395923006E+04    0.76463E-05   -0.46971E-05  2392   0.154E-02    0.105E-02
DAV:  12    -0.136395923163E+04   -0.15690E-05   -0.33622E-05  2168   0.933E-03    0.805E-03
DAV:  13    -0.136395923075E+04    0.87876E-06   -0.24062E-06  1088   0.554E-03
   8 F= -.13639592E+04 E0= -.13639592E+04  d E =-.647727E+00
 BRION: g(F)=  0.491E+00 g(S)=  0.000E+00 retain N=  6 mean eig= 1.53
 eig:   3.469  3.469  0.746  0.746  0.362  0.362
 bond charge predicted
       N       E                     dE             d eps       ncg     rms          rms(c)
DAV:   1    -0.136426073265E+04   -0.30150E+00   -0.10372E+02  1384   0.145E+01    0.186E+00
DAV:   2    -0.136477101349E+04   -0.51028E+00   -0.53827E+00  2304   0.548E+00    0.894E-01
DAV:   3    -0.136479940688E+04   -0.28393E-01   -0.42033E-01  2608   0.107E+00    0.715E-01
DAV:   4    -0.136479172496E+04    0.76819E-02   -0.48516E-02  2576   0.502E-01    0.432E-01
DAV:   5    -0.136478876728E+04    0.29577E-02   -0.20992E-02  2400   0.289E-01    0.181E-01
DAV:   6    -0.136478940904E+04   -0.64176E-03   -0.89478E-03  2576   0.183E-01    0.137E-01
DAV:   7    -0.136478932582E+04    0.83219E-04   -0.38527E-03  2480   0.123E-01    0.910E-02
DAV:   8    -0.136478935216E+04   -0.26337E-04   -0.17441E-03  2576   0.773E-02    0.591E-02
DAV:   9    -0.136478932949E+04    0.22669E-04   -0.30598E-04  2544   0.395E-02    0.448E-02
DAV:  10    -0.136478932732E+04    0.21681E-05   -0.32099E-04  2408   0.299E-02    0.262E-02
DAV:  11    -0.136478932377E+04    0.35473E-05   -0.90492E-05  2456   0.209E-02    0.111E-02
DAV:  12    -0.136478932556E+04   -0.17875E-05   -0.34428E-05  2288   0.120E-02    0.962E-03
DAV:  13    -0.136478932480E+04    0.76069E-06   -0.10601E-05  1736   0.714E-03    0.463E-03
DAV:  14    -0.136478932493E+04   -0.13139E-06   -0.52451E-06  1400   0.560E-03
   9 F= -.13647893E+04 E0= -.13647893E+04  d E =-.830094E+00
 BRION: g(F)=  0.454E+00 g(S)=  0.000E+00 retain N=  7 mean eig= 1.77
 eig:   4.164  4.164  1.120  1.120  0.981  0.412  0.412
 bond charge predicted
       N       E                     dE             d eps       ncg     rms          rms(c)
DAV:   1    -0.136502535165E+04   -0.23603E+00   -0.10390E+02  1376   0.146E+01    0.169E+00
DAV:   2    -0.136554498541E+04   -0.51963E+00   -0.54772E+00  2296   0.558E+00    0.871E-01
DAV:   3    -0.136557340143E+04   -0.28416E-01   -0.42172E-01  2600   0.108E+00    0.695E-01
DAV:   4    -0.136556612896E+04    0.72725E-02   -0.46143E-02  2592   0.490E-01    0.452E-01
DAV:   5    -0.136556137141E+04    0.47575E-02   -0.18346E-02  2376   0.291E-01    0.186E-01
DAV:   6    -0.136556171428E+04   -0.34287E-03   -0.11709E-02  2400   0.213E-01    0.128E-01
DAV:   7    -0.136556180692E+04   -0.92635E-04   -0.51314E-03  2344   0.137E-01    0.103E-01
DAV:   8    -0.136556179550E+04    0.11413E-04   -0.17634E-03  2568   0.785E-02    0.589E-02
DAV:   9    -0.136556178440E+04    0.11100E-04   -0.49839E-04  2584   0.453E-02    0.416E-02
DAV:  10    -0.136556178882E+04   -0.44191E-05   -0.22020E-04  2592   0.291E-02    0.296E-02
DAV:  11    -0.136556178433E+04    0.44987E-05   -0.11158E-04  2464   0.211E-02    0.142E-02
DAV:  12    -0.136556178459E+04   -0.26959E-06   -0.40773E-05  2288   0.139E-02    0.124E-02
DAV:  13    -0.136556178349E+04    0.11018E-05   -0.22730E-05  2032   0.883E-03    0.594E-03
DAV:  14    -0.136556178364E+04   -0.14254E-06   -0.85035E-06  1744   0.606E-03
  10 F= -.13655618E+04 E0= -.13655618E+04  d E =-.772459E+00
 BRION: g(F)=  0.289E+00 g(S)=  0.000E+00 retain N=  8 mean eig= 2.34
 eig:   5.039  5.039  3.107  3.107  0.750  0.750  0.461  0.461
 bond charge predicted
       N       E                     dE             d eps       ncg     rms          rms(c)
DAV:   1    -0.136566929667E+04   -0.10751E+00   -0.11346E+02  1376   0.152E+01    0.176E+00
DAV:   2    -0.136624861068E+04   -0.57931E+00   -0.61325E+00  2280   0.589E+00    0.913E-01
DAV:   3    -0.136628153534E+04   -0.32925E-01   -0.48636E-01  2592   0.117E+00    0.738E-01
DAV:   4    -0.136627403249E+04    0.75028E-02   -0.50335E-02  2584   0.519E-01    0.500E-01
DAV:   5    -0.136626832608E+04    0.57064E-02   -0.20549E-02  2400   0.290E-01    0.218E-01
DAV:   6    -0.136626821426E+04    0.11182E-03   -0.12928E-02  2312   0.220E-01    0.131E-01
DAV:   7    -0.136626845470E+04   -0.24044E-03   -0.67672E-03  2432   0.152E-01    0.118E-01
DAV:   8    -0.136626839900E+04    0.55697E-04   -0.19862E-03  2600   0.881E-02    0.771E-02
DAV:   9    -0.136626836000E+04    0.38996E-04   -0.74945E-04  2584   0.520E-02    0.455E-02
DAV:  10    -0.136626837312E+04   -0.13119E-04   -0.26541E-04  2584   0.314E-02    0.324E-02
DAV:  11    -0.136626836982E+04    0.33046E-05   -0.92078E-05  2504   0.202E-02    0.190E-02
DAV:  12    -0.136626836661E+04    0.32113E-05   -0.75305E-05  2152   0.169E-02    0.130E-02
DAV:  13    -0.136626836626E+04    0.34613E-06   -0.30083E-05  2160   0.109E-02    0.814E-03
DAV:  14    -0.136626836621E+04    0.52329E-07   -0.13440E-05  1768   0.662E-03    0.371E-03
DAV:  15    -0.136626836607E+04    0.13495E-06   -0.12914E-06   976   0.447E-03
  11 F= -.13662684E+04 E0= -.13662684E+04  d E =-.706582E+00
 BRION: g(F)=  0.200E+00 g(S)=  0.000E+00 retain N=  9 mean eig= 3.07
 eig:   7.244  7.244  4.563  4.563  1.403  0.843  0.843  0.484  0.484
 bond charge predicted
       N       E                     dE             d eps       ncg     rms          rms(c)
DAV:   1    -0.136639714510E+04   -0.12878E+00   -0.56383E+01  1376   0.106E+01    0.121E+00
DAV:   2    -0.136668166013E+04   -0.28452E+00   -0.30017E+00  2296   0.415E+00    0.622E-01
DAV:   3    -0.136669710836E+04   -0.15448E-01   -0.23027E-01  2584   0.795E-01    0.508E-01
DAV:   4    -0.136669361917E+04    0.34892E-02   -0.22084E-02  2592   0.339E-01    0.364E-01
DAV:   5    -0.136668976598E+04    0.38532E-02   -0.10066E-02  2296   0.206E-01    0.160E-01
DAV:   6    -0.136668964527E+04    0.12071E-03   -0.86101E-03  2248   0.172E-01    0.974E-02
DAV:   7    -0.136668979434E+04   -0.14907E-03   -0.42335E-03  2408   0.115E-01    0.930E-02
DAV:   8    -0.136668974500E+04    0.49340E-04   -0.11013E-03  2568   0.666E-02    0.589E-02
DAV:   9    -0.136668971498E+04    0.30017E-04   -0.47519E-04  2520   0.399E-02    0.309E-02
DAV:  10    -0.136668972596E+04   -0.10975E-04   -0.15066E-04  2536   0.239E-02    0.232E-02
DAV:  11    -0.136668972513E+04    0.82844E-06   -0.42574E-05  2408   0.142E-02    0.160E-02
DAV:  12    -0.136668972328E+04    0.18498E-05   -0.50188E-05  2120   0.135E-02    0.127E-02
DAV:  13    -0.136668972238E+04    0.90174E-06   -0.21313E-05  2008   0.928E-03    0.826E-03
DAV:  14    -0.136668972188E+04    0.50028E-06   -0.95773E-06  1712   0.604E-03
  12 F= -.13666897E+04 E0= -.13666897E+04  d E =-.421356E+00
 BRION: g(F)=  0.169E+00 g(S)=  0.000E+00 retain N=  9 mean eig= 3.10
 eig:   7.839  7.839  2.574  2.574  2.406  2.406  0.798  0.798  0.639
 bond charge predicted
       N       E                     dE             d eps       ncg     rms          rms(c)
DAV:   1    -0.136676568998E+04   -0.75968E-01   -0.68382E+01  1376   0.117E+01    0.133E+00
DAV:   2    -0.136711408645E+04   -0.34840E+00   -0.36734E+00  2288   0.459E+00    0.685E-01
DAV:   3    -0.136713345597E+04   -0.19370E-01   -0.28328E-01  2592   0.883E-01    0.561E-01
DAV:   4    -0.136712955453E+04    0.39014E-02   -0.26293E-02  2616   0.374E-01    0.410E-01
DAV:   5    -0.136712460394E+04    0.49506E-02   -0.12282E-02  2336   0.227E-01    0.182E-01
DAV:   6    -0.136712439495E+04    0.20899E-03   -0.11145E-02  2232   0.193E-01    0.109E-01
DAV:   7    -0.136712459244E+04   -0.19749E-03   -0.54858E-03  2408   0.130E-01    0.104E-01
DAV:   8    -0.136712453368E+04    0.58756E-04   -0.13257E-03  2584   0.747E-02    0.682E-02
DAV:   9    -0.136712449092E+04    0.42764E-04   -0.59576E-04  2552   0.445E-02    0.341E-02
DAV:  10    -0.136712450646E+04   -0.15539E-04   -0.19520E-04  2504   0.268E-02    0.248E-02
DAV:  11    -0.136712450677E+04   -0.31502E-06   -0.51535E-05  2400   0.156E-02    0.183E-02
DAV:  12    -0.136712450365E+04    0.31196E-05   -0.61759E-05  2144   0.152E-02    0.143E-02
DAV:  13    -0.136712450282E+04    0.83356E-06   -0.28897E-05  2136   0.104E-02    0.967E-03
DAV:  14    -0.136712450200E+04    0.81499E-06   -0.10697E-05  1752   0.627E-03    0.319E-03
DAV:  15    -0.136712450198E+04    0.24418E-07   -0.11039E-06   920   0.400E-03
  13 F= -.13671245E+04 E0= -.13671245E+04  d E =-.434780E+00
 BRION: g(F)=  0.137E+00 g(S)=  0.000E+00 retain N=  8 mean eig= 3.42
 eig:   7.253  7.253  4.155  4.155  1.124  1.124  0.758  1.503
 bond charge predicted
       N       E                     dE             d eps       ncg     rms          rms(c)
DAV:   1    -0.136722386819E+04   -0.99366E-01   -0.37450E+01  1376   0.867E+00    0.984E-01
DAV:   2    -0.136741404796E+04   -0.19018E+00   -0.20066E+00  2288   0.337E+00    0.506E-01
DAV:   3    -0.136742522260E+04   -0.11175E-01   -0.15872E-01  2592   0.657E-01    0.413E-01
DAV:   4    -0.136742317667E+04    0.20459E-02   -0.14616E-02  2616   0.280E-01    0.302E-01
DAV:   5    -0.136742066398E+04    0.25127E-02   -0.65989E-03  2392   0.168E-01    0.139E-01
DAV:   6    -0.136742049066E+04    0.17332E-03   -0.59107E-03  2248   0.147E-01    0.815E-02
DAV:   7    -0.136742062746E+04   -0.13680E-03   -0.33244E-03  2416   0.102E-01    0.825E-02
DAV:   8    -0.136742059111E+04    0.36354E-04   -0.73522E-04  2592   0.565E-02    0.570E-02
DAV:   9    -0.136742055708E+04    0.34021E-04   -0.35875E-04  2512   0.343E-02    0.274E-02
DAV:  10    -0.136742056620E+04   -0.91125E-05   -0.13667E-04  2456   0.218E-02    0.185E-02
DAV:  11    -0.136742056791E+04   -0.17110E-05   -0.32868E-05  2304   0.123E-02    0.149E-02
DAV:  12    -0.136742056515E+04    0.27625E-05   -0.40098E-05  2080   0.127E-02    0.118E-02
DAV:  13    -0.136742056446E+04    0.68858E-06   -0.19910E-05  2032   0.890E-03    0.826E-03
DAV:  14    -0.136742056378E+04    0.67979E-06   -0.74242E-06  1584   0.576E-03
  14 F= -.13674206E+04 E0= -.13674206E+04  d E =-.296062E+00
 BRION: g(F)=  0.119E+00 g(S)=  0.000E+00 retain N=  3 mean eig= 5.28
 eig:   7.089  7.089  1.671
 bond charge predicted
       N       E                     dE             d eps       ncg     rms          rms(c)
DAV:   1    -0.136754035196E+04   -0.11979E+00   -0.25479E+01  1376   0.717E+00    0.808E-01
DAV:   2    -0.136767030468E+04   -0.12995E+00   -0.13697E+00  2288   0.276E+00    0.410E-01
DAV:   3    -0.136767852752E+04   -0.82228E-02   -0.11168E-01  2584   0.546E-01    0.331E-01
DAV:   4    -0.136767719040E+04    0.13371E-02   -0.99902E-03  2608   0.234E-01    0.239E-01
DAV:   5    -0.136767573270E+04    0.14577E-02   -0.44713E-03  2360   0.136E-01    0.102E-01
DAV:   6    -0.136767572187E+04    0.10829E-04   -0.33212E-03  2360   0.107E-01    0.651E-02
DAV:   7    -0.136767577212E+04   -0.50245E-04   -0.17006E-03  2416   0.753E-02    0.564E-02
DAV:   8    -0.136767575866E+04    0.13460E-04   -0.46690E-04  2576   0.443E-02    0.367E-02
DAV:   9    -0.136767574868E+04    0.99750E-05   -0.15438E-04  2520   0.240E-02    0.213E-02
DAV:  10    -0.136767575124E+04   -0.25557E-05   -0.55437E-05  2496   0.141E-02    0.129E-02
DAV:  11    -0.136767575215E+04   -0.90800E-06   -0.14216E-05  1984   0.878E-03    0.949E-03
DAV:  12    -0.136767575112E+04    0.10248E-05   -0.15205E-05  1720   0.827E-03    0.707E-03
DAV:  13    -0.136767575089E+04    0.23733E-06   -0.76725E-06  1664   0.666E-03
  15 F= -.13676758E+04 E0= -.13676758E+04  d E =-.255187E+00
 BRION: g(F)=  0.108E+00 g(S)=  0.000E+00 retain N=  3 mean eig= 4.49
 eig:   5.906  5.906  1.655
 bond charge predicted
       N       E                     dE             d eps       ncg     rms          rms(c)
DAV:   1    -0.136778448646E+04   -0.10874E+00   -0.29856E+01  1376   0.777E+00    0.880E-01
DAV:   2    -0.136793920243E+04   -0.15472E+00   -0.16360E+00  2288   0.302E+00    0.450E-01
DAV:   3    -0.136794906488E+04   -0.98625E-02   -0.13397E-01  2568   0.601E-01    0.366E-01
DAV:   4    -0.136794763888E+04    0.14260E-02   -0.12583E-02  2608   0.260E-01    0.269E-01
DAV:   5    -0.136794582504E+04    0.18138E-02   -0.52713E-03  2400   0.149E-01    0.124E-01
DAV:   6    -0.136794569902E+04    0.12602E-03   -0.44190E-03  2272   0.127E-01    0.725E-02
DAV:   7    -0.136794579745E+04   -0.98428E-04   -0.25169E-03  2440   0.892E-02    0.700E-02
DAV:   8    -0.136794577556E+04    0.21888E-04   -0.58303E-04  2600   0.502E-02    0.498E-02
DAV:   9    -0.136794575110E+04    0.24458E-04   -0.26214E-04  2528   0.296E-02    0.251E-02
DAV:  10    -0.136794575712E+04   -0.60174E-05   -0.97574E-05  2456   0.185E-02    0.163E-02
DAV:  11    -0.136794575915E+04   -0.20268E-05   -0.24732E-05  2224   0.109E-02    0.133E-02
DAV:  12    -0.136794575659E+04    0.25544E-05   -0.30034E-05  2032   0.111E-02    0.963E-03
DAV:  13    -0.136794575618E+04    0.41234E-06   -0.13500E-05  1800   0.769E-03    0.680E-03
DAV:  14    -0.136794575573E+04    0.44830E-06   -0.52922E-06  1360   0.511E-03
  16 F= -.13679458E+04 E0= -.13679458E+04  d E =-.270005E+00
 BRION: g(F)=  0.976E-01 g(S)=  0.000E+00 retain N=  3 mean eig= 4.57
 eig:   5.926  5.926  1.851
 bond charge predicted
       N       E                     dE             d eps       ncg     rms          rms(c)
DAV:   1    -0.136804793799E+04   -0.10218E+00   -0.27872E+01  1376   0.751E+00    0.847E-01
DAV:   2    -0.136819136759E+04   -0.14343E+00   -0.15138E+00  2288   0.290E+00    0.429E-01
DAV:   3    -0.136820054774E+04   -0.91801E-02   -0.12462E-01  2568   0.580E-01    0.343E-01
DAV:   4    -0.136819906426E+04    0.14835E-02   -0.11632E-02  2592   0.251E-01    0.246E-01
DAV:   5    -0.136819754486E+04    0.15194E-02   -0.49265E-03  2392   0.142E-01    0.106E-01
DAV:   6    -0.136819750924E+04    0.35615E-04   -0.34125E-03  2336   0.110E-01    0.654E-02
DAV:   7    -0.136819757626E+04   -0.67017E-04   -0.18597E-03  2440   0.781E-02    0.581E-02
DAV:   8    -0.136819756112E+04    0.15142E-04   -0.47546E-04  2584   0.451E-02    0.382E-02
DAV:   9    -0.136819755083E+04    0.10284E-04   -0.17901E-04  2552   0.254E-02    0.218E-02
DAV:  10    -0.136819755422E+04   -0.33904E-05   -0.63160E-05  2528   0.152E-02    0.145E-02
DAV:  11    -0.136819755460E+04   -0.37417E-06   -0.18286E-05  2168   0.956E-03    0.988E-03
DAV:  12    -0.136819755358E+04    0.10197E-05   -0.18517E-05  1952   0.869E-03    0.713E-03
DAV:  13    -0.136819755338E+04    0.19252E-06   -0.76147E-06  1696   0.620E-03
  17 F= -.13681976E+04 E0= -.13681976E+04  d E =-.251798E+00
 BRION: g(F)=  0.884E-01 g(S)=  0.000E+00 retain N=  3 mean eig= 5.44
 eig:   7.120  7.120  2.075
 bond charge predicted
       N       E                     dE             d eps       ncg     rms          rms(c)
DAV:   1    -0.136830048232E+04   -0.10293E+00   -0.15158E+01  1368   0.556E+00    0.625E-01
DAV:   2    -0.136837855933E+04   -0.78077E-01   -0.82382E-01  2288   0.214E+00    0.318E-01
DAV:   3    -0.136838358416E+04   -0.50248E-02   -0.68112E-02  2576   0.429E-01    0.254E-01
DAV:   4    -0.136838276038E+04    0.82377E-03   -0.62654E-03  2592   0.186E-01    0.181E-01
DAV:   5    -0.136838194539E+04    0.81499E-03   -0.27318E-03  2392   0.105E-01    0.761E-02
DAV:   6    -0.136838194532E+04    0.70781E-07   -0.17854E-03  2352   0.785E-02    0.473E-02
DAV:   7    -0.136838197579E+04   -0.30468E-04   -0.89089E-04  2456   0.546E-02    0.395E-02
DAV:   8    -0.136838197018E+04    0.56051E-05   -0.24175E-04  2552   0.323E-02    0.255E-02
DAV:   9    -0.136838196645E+04    0.37346E-05   -0.83383E-05  2528   0.178E-02    0.155E-02
DAV:  10    -0.136838196794E+04   -0.14878E-05   -0.29784E-05  2464   0.107E-02    0.103E-02
DAV:  11    -0.136838196744E+04    0.49495E-06   -0.58252E-06  1264   0.715E-03
  18 F= -.13683820E+04 E0= -.13683820E+04  d E =-.184414E+00
 BRION: g(F)=  0.825E-01 g(S)=  0.000E+00 retain N=  3 mean eig= 5.06
 eig:   6.695  6.695  1.786
 bond charge predicted
       N       E                     dE             d eps       ncg     rms          rms(c)
DAV:   1    -0.136847705724E+04   -0.95089E-01   -0.14182E+01  1368   0.536E+00    0.606E-01
DAV:   2    -0.136855042233E+04   -0.73365E-01   -0.77245E-01  2288   0.208E+00    0.308E-01
DAV:   3    -0.136855509545E+04   -0.46731E-02   -0.63315E-02  2584   0.412E-01    0.247E-01
DAV:   4    -0.136855431877E+04    0.77668E-03   -0.57831E-03  2616   0.179E-01    0.176E-01
DAV:   5    -0.136855351698E+04    0.80179E-03   -0.24992E-03  2368   0.103E-01    0.746E-02
DAV:   6    -0.136855351393E+04    0.30539E-05   -0.17660E-03  2344   0.778E-02    0.461E-02
DAV:   7    -0.136855354126E+04   -0.27338E-04   -0.84760E-04  2472   0.539E-02    0.392E-02
DAV:   8    -0.136855353502E+04    0.62487E-05   -0.22984E-04  2552   0.312E-02    0.252E-02
DAV:   9    -0.136855353081E+04    0.42067E-05   -0.80828E-05  2496   0.174E-02    0.149E-02
DAV:  10    -0.136855353229E+04   -0.14809E-05   -0.30173E-05  2512   0.106E-02    0.985E-03
DAV:  11    -0.136855353200E+04    0.28721E-06   -0.58932E-06  1256   0.713E-03
  19 F= -.13685535E+04 E0= -.13685535E+04  d E =-.171565E+00
 BRION: g(F)=  0.764E-01 g(S)=  0.000E+00 retain N=  3 mean eig= 5.09
 eig:   6.852  6.852  1.566
 bond charge predicted
       N       E                     dE             d eps       ncg     rms          rms(c)
DAV:   1    -0.136863876369E+04   -0.85231E-01   -0.23790E+01  1368   0.691E+00    0.769E-01
DAV:   2    -0.136876105627E+04   -0.12229E+00   -0.12861E+00  2288   0.267E+00    0.390E-01
DAV:   3    -0.136876879552E+04   -0.77392E-02   -0.10475E-01  2576   0.525E-01    0.310E-01
DAV:   4    -0.136876753458E+04    0.12609E-02   -0.92490E-03  2592   0.228E-01    0.226E-01
DAV:   5    -0.136876611277E+04    0.14218E-02   -0.40749E-03  2368   0.134E-01    0.974E-02
DAV:   6    -0.136876606425E+04    0.48521E-04   -0.31614E-03  2288   0.106E-01    0.593E-02
DAV:   7    -0.136876613215E+04   -0.67901E-04   -0.16427E-03  2472   0.733E-02    0.537E-02
DAV:   8    -0.136876611711E+04    0.15039E-04   -0.38065E-04  2568   0.411E-02    0.329E-02
DAV:   9    -0.136876610834E+04    0.87764E-05   -0.16727E-04  2504   0.241E-02    0.180E-02
DAV:  10    -0.136876611261E+04   -0.42741E-05   -0.57058E-05  2496   0.149E-02    0.141E-02
DAV:  11    -0.136876611167E+04    0.93890E-06   -0.21398E-05  2096   0.999E-03    0.808E-03
DAV:  12    -0.136876611120E+04    0.47137E-06   -0.13750E-05  1768   0.822E-03    0.644E-03
DAV:  13    -0.136876611105E+04    0.14884E-06   -0.66126E-06  1568   0.575E-03
  20 F= -.13687661E+04 E0= -.13687661E+04  d E =-.212579E+00
 BRION: g(F)=  0.692E-01 g(S)=  0.000E+00 retain N=  3 mean eig= 5.59
 eig:   7.601  7.601  1.563
