 running on  160 total cores
 distrk:  each k-point on  160 cores,    1 groups
 distr:  one band on   20 cores,    8 groups
 using from now: INCAR     
 vasp.5.4.4.18Apr17-6-g9f103f2a35 (build May 01 2020 14:22:42) gamma-only       
  
 POSCAR found type information on POSCAR  O  La Zr Li Al
 POSCAR found :  5 types and     190 ions
 scaLAPACK will be used
 LDA part: xc-table for Pade appr. of Perdew
 POSCAR, INCAR and KPOINTS ok, starting setup
 FFT: planning ...
 WAVECAR not read
 WARNING: random wavefunctions but no delay for mixing, default for NELMDL
 entering main loop
       N       E                     dE             d eps       ncg     rms          rms(c)
DAV:   1     0.252810470472E+05    0.25281E+05   -0.42185E+05  1600   0.253E+03
DAV:   2     0.940996110573E+04   -0.15871E+05   -0.14585E+05  1432   0.709E+02
DAV:   3     0.268805231908E+04   -0.67219E+04   -0.61230E+04  1504   0.356E+02
DAV:   4    -0.392129199380E+03   -0.30802E+04   -0.28725E+04  2040   0.222E+02
DAV:   5    -0.143169257751E+04   -0.10396E+04   -0.10019E+04  2528   0.141E+02    0.117E+02
DAV:   6    -0.130888492917E+04    0.12281E+03   -0.13921E+03  2432   0.645E+01    0.504E+01
DAV:   7    -0.133114829604E+04   -0.22263E+02   -0.36556E+02  2552   0.328E+01    0.238E+01
DAV:   8    -0.134235439339E+04   -0.11206E+02   -0.25874E+02  2544   0.257E+01    0.272E+01
DAV:   9    -0.133321187803E+04    0.91425E+01   -0.65472E+01  2448   0.152E+01    0.711E+00
DAV:  10    -0.133450667222E+04   -0.12948E+01   -0.13671E+01  2608   0.823E+00    0.776E+00
DAV:  11    -0.133456123840E+04   -0.54566E-01   -0.70142E+00  2616   0.456E+00    0.354E+00
DAV:  12    -0.133447062261E+04    0.90616E-01   -0.24838E+00  2624   0.347E+00    0.271E+00
DAV:  13    -0.133454504869E+04   -0.74426E-01   -0.76413E-01  2560   0.179E+00    0.212E+00
DAV:  14    -0.133451833489E+04    0.26714E-01   -0.29734E-01  2616   0.108E+00    0.124E+00
DAV:  15    -0.133452518647E+04   -0.68516E-02   -0.99215E-02  2552   0.657E-01    0.106E+00
DAV:  16    -0.133452453520E+04    0.65128E-03   -0.35522E-02  2624   0.337E-01    0.588E-01
DAV:  17    -0.133452107915E+04    0.34560E-02   -0.21790E-02  2496   0.304E-01    0.296E-01
DAV:  18    -0.133452138982E+04   -0.31067E-03   -0.57614E-03  2512   0.158E-01    0.144E-01
DAV:  19    -0.133452134976E+04    0.40063E-04   -0.17308E-03  2544   0.825E-02    0.903E-02
DAV:  20    -0.133452137939E+04   -0.29632E-04   -0.51137E-04  2624   0.483E-02    0.300E-02
DAV:  21    -0.133452139406E+04   -0.14675E-04   -0.12468E-04  2624   0.234E-02    0.196E-02
DAV:  22    -0.133452140312E+04   -0.90521E-05   -0.39769E-05  2192   0.121E-02    0.116E-02
DAV:  23    -0.133452140486E+04   -0.17462E-05   -0.13315E-05  1240   0.761E-03    0.498E-03
DAV:  24    -0.133452140553E+04   -0.67272E-06   -0.60158E-06  1032   0.589E-03
   1 F= -.13345214E+04 E0= -.13345214E+04  d E =-.133452E+04
 BRION: g(F)=  0.455E+02 g(S)=  0.000E+00
 bond charge predicted
       N       E                     dE             d eps       ncg     rms          rms(c)
DAV:   1    -0.132348826885E+04    0.11033E+02   -0.44574E+03  1640   0.964E+01    0.190E+01
DAV:   2    -0.135441024310E+04   -0.30922E+02   -0.35243E+02  2592   0.439E+01    0.110E+01
DAV:   3    -0.135324019038E+04    0.11701E+01   -0.19926E+01  2616   0.110E+01    0.752E+00
DAV:   4    -0.135203546648E+04    0.12047E+01   -0.73255E+00  2424   0.544E+00    0.373E+00
DAV:   5    -0.135188497271E+04    0.15049E+00   -0.21414E+00  2544   0.319E+00    0.243E+00
DAV:   6    -0.135182129476E+04    0.63678E-01   -0.17699E+00  2504   0.250E+00    0.143E+00
DAV:   7    -0.135182084478E+04    0.44998E-03   -0.39341E-01  2536   0.141E+00    0.120E+00
DAV:   8    -0.135180911322E+04    0.11732E-01   -0.20549E-01  2624   0.757E-01    0.444E-01
DAV:   9    -0.135181052462E+04   -0.14114E-02   -0.40849E-02  2624   0.426E-01    0.291E-01
DAV:  10    -0.135181003764E+04    0.48699E-03   -0.95720E-03  2576   0.229E-01    0.178E-01
DAV:  11    -0.135181031762E+04   -0.27998E-03   -0.93357E-03  2600   0.166E-01    0.105E-01
DAV:  12    -0.135181032681E+04   -0.91980E-05   -0.13033E-03  2568   0.793E-02    0.558E-02
DAV:  13    -0.135181031663E+04    0.10181E-04   -0.54467E-04  2616   0.447E-02    0.202E-02
DAV:  14    -0.135181032625E+04   -0.96170E-05   -0.12075E-04  2616   0.227E-02    0.943E-03
DAV:  15    -0.135181033034E+04   -0.40853E-05   -0.36666E-05  2592   0.127E-02    0.755E-03
DAV:  16    -0.135181033078E+04   -0.44442E-06   -0.99730E-06  1696   0.772E-03
   2 F= -.13518103E+04 E0= -.13518103E+04  d E =-.172889E+02
 BRION: g(F)=  0.318E+02 g(S)=  0.000E+00 retain N=  1 mean eig= 0.57
 eig:   0.567
 bond charge predicted
       N       E                     dE             d eps       ncg     rms          rms(c)
DAV:   1    -0.134364483716E+04    0.81655E+01   -0.17285E+03  1424   0.563E+01    0.124E+01
DAV:   2    -0.135805831224E+04   -0.14413E+02   -0.17679E+02  2488   0.260E+01    0.903E+00
DAV:   3    -0.135760882482E+04    0.44949E+00   -0.13512E+01  2544   0.876E+00    0.735E+00
DAV:   4    -0.135677574365E+04    0.83308E+00   -0.66512E+00  2312   0.373E+00    0.335E+00
DAV:   5    -0.135680761299E+04   -0.31869E-01   -0.25158E+00  2344   0.259E+00    0.371E+00
DAV:   6    -0.135656934518E+04    0.23827E+00   -0.14050E+00  2512   0.245E+00    0.170E+00
DAV:   7    -0.135659267472E+04   -0.23330E-01   -0.11371E+00  2448   0.160E+00    0.122E+00
DAV:   8    -0.135658270405E+04    0.99707E-02   -0.15939E-01  2600   0.780E-01    0.779E-01
DAV:   9    -0.135657513810E+04    0.75659E-02   -0.52590E-02  2560   0.388E-01    0.384E-01
DAV:  10    -0.135657557404E+04   -0.43594E-03   -0.34055E-02  2544   0.274E-01    0.190E-01
DAV:  11    -0.135657532205E+04    0.25199E-03   -0.34683E-03  2584   0.143E-01    0.116E-01
DAV:  12    -0.135657530559E+04    0.16464E-04   -0.28750E-03  2432   0.821E-02    0.593E-02
DAV:  13    -0.135657532287E+04   -0.17284E-04   -0.49947E-04  2488   0.447E-02    0.371E-02
DAV:  14    -0.135657531341E+04    0.94675E-05   -0.19519E-04  2496   0.256E-02    0.210E-02
DAV:  15    -0.135657531808E+04   -0.46759E-05   -0.95026E-05  2536   0.177E-02    0.130E-02
DAV:  16    -0.135657531734E+04    0.74565E-06   -0.23432E-05  2296   0.925E-03    0.533E-03
DAV:  17    -0.135657531746E+04   -0.12261E-06   -0.46258E-06  1264   0.565E-03
   3 F= -.13565753E+04 E0= -.13565753E+04  d E =-.476499E+01
 BRION: g(F)=  0.107E+02 g(S)=  0.000E+00 retain N=  2 mean eig= 0.77
 eig:   0.345  1.185
 bond charge predicted
       N       E                     dE             d eps       ncg     rms          rms(c)
DAV:   1    -0.135694530629E+04   -0.36999E+00   -0.40692E+02  1352   0.240E+01    0.531E+00
DAV:   2    -0.135935876662E+04   -0.24135E+01   -0.27225E+01  2432   0.104E+01    0.289E+00
DAV:   3    -0.135930357204E+04    0.55195E-01   -0.15654E+00  2536   0.302E+00    0.230E+00
DAV:   4    -0.135921394029E+04    0.89632E-01   -0.68674E-01  2232   0.135E+00    0.109E+00
DAV:   5    -0.135921081136E+04    0.31289E-02   -0.22916E-01  2456   0.888E-01    0.106E+00
DAV:   6    -0.135919504509E+04    0.15766E-01   -0.18471E-01  2448   0.767E-01    0.440E-01
DAV:   7    -0.135919677739E+04   -0.17323E-02   -0.56950E-02  2448   0.421E-01    0.423E-01
DAV:   8    -0.135919548671E+04    0.12907E-02   -0.13212E-02  2560   0.201E-01    0.272E-01
DAV:   9    -0.135919437298E+04    0.11137E-02   -0.74465E-03  2344   0.144E-01    0.114E-01
DAV:  10    -0.135919482008E+04   -0.44710E-03   -0.68866E-03  2448   0.119E-01    0.131E-01
DAV:  11    -0.135919447629E+04    0.34379E-03   -0.15418E-03  2528   0.803E-02    0.431E-02
DAV:  12    -0.135919452126E+04   -0.44970E-04   -0.66785E-04  2416   0.426E-02    0.219E-02
DAV:  13    -0.135919452538E+04   -0.41170E-05   -0.68556E-05  2552   0.168E-02    0.156E-02
DAV:  14    -0.135919452282E+04    0.25544E-05   -0.23197E-05  2280   0.958E-03    0.722E-03
DAV:  15    -0.135919452324E+04   -0.41582E-06   -0.10379E-05  1856   0.655E-03    0.248E-03
DAV:  16    -0.135919452322E+04    0.18321E-07   -0.88925E-07  1016   0.350E-03
   4 F= -.13591945E+04 E0= -.13591945E+04  d E =-.261921E+01
 BRION: g(F)=  0.336E+01 g(S)=  0.000E+00 retain N=  3 mean eig= 1.40
 eig:   3.599  0.296  0.296
 bond charge predicted
       N       E                     dE             d eps       ncg     rms          rms(c)
DAV:   1    -0.136027242694E+04   -0.10779E+01   -0.18368E+02  1360   0.184E+01    0.300E+00
DAV:   2    -0.136113660085E+04   -0.86417E+00   -0.93999E+00  2296   0.709E+00    0.152E+00
DAV:   3    -0.136114789992E+04   -0.11299E-01   -0.64394E-01  2608   0.146E+00    0.126E+00
DAV:   4    -0.136111695199E+04    0.30948E-01   -0.15786E-01  2560   0.796E-01    0.633E-01
DAV:   5    -0.136111189085E+04    0.50611E-02   -0.57796E-02  2432   0.488E-01    0.395E-01
DAV:   6    -0.136111154846E+04    0.34239E-03   -0.38459E-02  2560   0.365E-01    0.209E-01
DAV:   7    -0.136111158606E+04   -0.37599E-04   -0.12685E-02  2248   0.201E-01    0.175E-01
DAV:   8    -0.136111155205E+04    0.34013E-04   -0.39263E-03  2344   0.107E-01    0.101E-01
DAV:   9    -0.136111144364E+04    0.10841E-03   -0.15848E-03  2608   0.703E-02    0.562E-02
DAV:  10    -0.136111149224E+04   -0.48596E-04   -0.87113E-04  2560   0.531E-02    0.653E-02
DAV:  11    -0.136111143560E+04    0.56640E-04   -0.34961E-04  2472   0.358E-02    0.243E-02
DAV:  12    -0.136111144284E+04   -0.72384E-05   -0.17111E-04  2384   0.233E-02    0.142E-02
DAV:  13    -0.136111144422E+04   -0.13792E-05   -0.29469E-05  2216   0.110E-02    0.971E-03
DAV:  14    -0.136111144353E+04    0.68775E-06   -0.98925E-06  1592   0.628E-03
   5 F= -.13611114E+04 E0= -.13611114E+04  d E =-.191692E+01
 BRION: g(F)=  0.122E+01 g(S)=  0.000E+00 retain N=  4 mean eig= 1.62
 eig:   2.588  2.588  0.658  0.658
 bond charge predicted
       N       E                     dE             d eps       ncg     rms          rms(c)
DAV:   1    -0.136156095052E+04   -0.44951E+00   -0.15265E+02  1360   0.173E+01    0.233E+00
DAV:   2    -0.136229732241E+04   -0.73637E+00   -0.78111E+00  2296   0.656E+00    0.120E+00
DAV:   3    -0.136232372184E+04   -0.26399E-01   -0.55042E-01  2608   0.132E+00    0.998E-01
DAV:   4    -0.136230737231E+04    0.16350E-01   -0.80979E-02  2600   0.611E-01    0.611E-01
DAV:   5    -0.136229922775E+04    0.81446E-02   -0.41070E-02  2328   0.399E-01    0.275E-01
DAV:   6    -0.136229981419E+04   -0.58644E-03   -0.21113E-02  2512   0.277E-01    0.225E-01
DAV:   7    -0.136229954508E+04    0.26911E-03   -0.95826E-03  2448   0.183E-01    0.139E-01
DAV:   8    -0.136229959306E+04   -0.47981E-04   -0.37893E-03  2512   0.110E-01    0.755E-02
DAV:   9    -0.136229955833E+04    0.34731E-04   -0.62096E-04  2552   0.547E-02    0.558E-02
DAV:  10    -0.136229958036E+04   -0.22033E-04   -0.62679E-04  2288   0.400E-02    0.412E-02
DAV:  11    -0.136229955652E+04    0.23838E-04   -0.20666E-04  2496   0.319E-02    0.151E-02
DAV:  12    -0.136229956324E+04   -0.67188E-05   -0.11098E-04  2408   0.194E-02    0.153E-02
DAV:  13    -0.136229956067E+04    0.25714E-05   -0.31283E-05  2208   0.112E-02    0.703E-03
DAV:  14    -0.136229956063E+04    0.45446E-07   -0.89541E-06  1712   0.649E-03
   6 F= -.13622996E+04 E0= -.13622996E+04  d E =-.118812E+01
 BRION: g(F)=  0.763E+00 g(S)=  0.000E+00 retain N=  5 mean eig= 1.80
 eig:   3.339  3.339  0.871  0.871  0.584
 bond charge predicted
       N       E                     dE             d eps       ncg     rms          rms(c)
DAV:   1    -0.136262863094E+04   -0.32907E+00   -0.10612E+02  1360   0.146E+01    0.194E+00
DAV:   2    -0.136314816112E+04   -0.51953E+00   -0.54714E+00  2296   0.551E+00    0.992E-01
DAV:   3    -0.136317082798E+04   -0.22667E-01   -0.40005E-01  2592   0.109E+00    0.794E-01
DAV:   4    -0.136315983802E+04    0.10990E-01   -0.61825E-02  2536   0.538E-01    0.437E-01
DAV:   5    -0.136315712704E+04    0.27110E-02   -0.24172E-02  2456   0.325E-01    0.213E-01
DAV:   6    -0.136315759581E+04   -0.46877E-03   -0.10675E-02  2576   0.199E-01    0.138E-01
DAV:   7    -0.136315747203E+04    0.12378E-03   -0.34614E-03  2280   0.121E-01    0.930E-02
DAV:   8    -0.136315754229E+04   -0.70262E-04   -0.20705E-03  2336   0.752E-02    0.609E-02
DAV:   9    -0.136315750837E+04    0.33916E-04   -0.33695E-04  2592   0.410E-02    0.439E-02
DAV:  10    -0.136315750018E+04    0.81908E-05   -0.43377E-04  2496   0.357E-02    0.259E-02
DAV:  11    -0.136315749723E+04    0.29555E-05   -0.11919E-04  2416   0.228E-02    0.976E-03
DAV:  12    -0.136315749966E+04   -0.24305E-05   -0.33719E-05  2304   0.127E-02    0.877E-03
DAV:  13    -0.136315749918E+04    0.47896E-06   -0.13486E-05  1856   0.775E-03    0.474E-03
DAV:  14    -0.136315749916E+04    0.16051E-07   -0.35653E-06  1160   0.548E-03
   7 F= -.13631575E+04 E0= -.13631575E+04  d E =-.857939E+00
 BRION: g(F)=  0.530E+00 g(S)=  0.000E+00 retain N=  6 mean eig= 1.79
 eig:   3.347  3.347  1.350  1.350  0.687  0.687
 bond charge predicted
       N       E                     dE             d eps       ncg     rms          rms(c)
DAV:   1    -0.136342381202E+04   -0.26631E+00   -0.43715E+01  1384   0.925E+00    0.127E+00
DAV:   2    -0.136364243105E+04   -0.21862E+00   -0.23230E+00  2280   0.356E+00    0.627E-01
DAV:   3    -0.136365289137E+04   -0.10460E-01   -0.17830E-01  2616   0.715E-01    0.512E-01
DAV:   4    -0.136364861256E+04    0.42788E-02   -0.22561E-02  2560   0.337E-01    0.307E-01
DAV:   5    -0.136364680555E+04    0.18070E-02   -0.11846E-02  2320   0.213E-01    0.131E-01
DAV:   6    -0.136364708937E+04   -0.28382E-03   -0.49707E-03  2544   0.136E-01    0.116E-01
DAV:   7    -0.136364701172E+04    0.77653E-04   -0.21147E-03  2536   0.859E-02    0.705E-02
DAV:   8    -0.136364699778E+04    0.13937E-04   -0.73330E-04  2576   0.519E-02    0.381E-02
DAV:   9    -0.136364699146E+04    0.63196E-05   -0.12666E-04  2528   0.248E-02    0.264E-02
DAV:  10    -0.136364699621E+04   -0.47514E-05   -0.11367E-04  2376   0.183E-02    0.170E-02
DAV:  11    -0.136364699310E+04    0.31128E-05   -0.31116E-05  2304   0.129E-02    0.707E-03
DAV:  12    -0.136364699448E+04   -0.13842E-05   -0.20223E-05  2088   0.826E-03    0.748E-03
DAV:  13    -0.136364699342E+04    0.10666E-05   -0.23296E-06  1048   0.562E-03    0.415E-03
DAV:  14    -0.136364699459E+04   -0.11738E-05   -0.17443E-05  1616   0.732E-03    0.576E-03
DAV:  15    -0.136364699404E+04    0.54727E-06   -0.11299E-06   992   0.463E-03
   8 F= -.13636470E+04 E0= -.13636470E+04  d E =-.489495E+00
 BRION: g(F)=  0.351E+00 g(S)=  0.000E+00 retain N=  7 mean eig= 2.12
 eig:   4.221  4.221  2.085  2.085  0.815  0.815  0.574
 bond charge predicted
       N       E                     dE             d eps       ncg     rms          rms(c)
DAV:   1    -0.136379095452E+04   -0.14396E+00   -0.10370E+02  1384   0.145E+01    0.176E+00
DAV:   2    -0.136431609075E+04   -0.52514E+00   -0.55176E+00  2304   0.565E+00    0.874E-01
DAV:   3    -0.136434390391E+04   -0.27813E-01   -0.41490E-01  2616   0.108E+00    0.706E-01
DAV:   4    -0.136433620149E+04    0.77024E-02   -0.43282E-02  2592   0.486E-01    0.472E-01
DAV:   5    -0.136433027648E+04    0.59250E-02   -0.21494E-02  2328   0.316E-01    0.185E-01
DAV:   6    -0.136433101694E+04   -0.74046E-03   -0.15580E-02  2432   0.239E-01    0.164E-01
DAV:   7    -0.136433095567E+04    0.61277E-04   -0.57127E-03  2464   0.146E-01    0.126E-01
DAV:   8    -0.136433089297E+04    0.62696E-04   -0.24540E-03  2576   0.897E-02    0.615E-02
DAV:   9    -0.136433085919E+04    0.33786E-04   -0.49657E-04  2456   0.476E-02    0.422E-02
DAV:  10    -0.136433086488E+04   -0.56890E-05   -0.24432E-04  2472   0.293E-02    0.272E-02
DAV:  11    -0.136433086160E+04    0.32732E-05   -0.82462E-05  2440   0.203E-02    0.146E-02
DAV:  12    -0.136433086321E+04   -0.16102E-05   -0.44857E-05  2344   0.135E-02    0.144E-02
DAV:  13    -0.136433086105E+04    0.21580E-05   -0.23768E-05  1984   0.917E-03    0.664E-03
DAV:  14    -0.136433086097E+04    0.86933E-07   -0.73341E-06  1568   0.606E-03
   9 F= -.13643309E+04 E0= -.13643309E+04  d E =-.683867E+00
 BRION: g(F)=  0.251E+00 g(S)=  0.000E+00 retain N=  8 mean eig= 2.70
 eig:   5.899  5.899  2.830  2.830  1.275  1.275  0.622  0.971
 bond charge predicted
       N       E                     dE             d eps       ncg     rms          rms(c)
DAV:   1    -0.136438384277E+04   -0.52982E-01   -0.10252E+02  1384   0.144E+01    0.170E+00
DAV:   2    -0.136491451992E+04   -0.53068E+00   -0.55973E+00  2296   0.568E+00    0.856E-01
DAV:   3    -0.136494474151E+04   -0.30222E-01   -0.42964E-01  2592   0.109E+00    0.706E-01
DAV:   4    -0.136493864054E+04    0.61010E-02   -0.42229E-02  2616   0.481E-01    0.494E-01
DAV:   5    -0.136493262687E+04    0.60137E-02   -0.20752E-02  2304   0.291E-01    0.198E-01
DAV:   6    -0.136493314249E+04   -0.51562E-03   -0.14253E-02  2392   0.220E-01    0.153E-01
DAV:   7    -0.136493312093E+04    0.21567E-04   -0.60608E-03  2432   0.144E-01    0.117E-01
DAV:   8    -0.136493306708E+04    0.53849E-04   -0.22540E-03  2584   0.926E-02    0.677E-02
DAV:   9    -0.136493303787E+04    0.29207E-04   -0.52910E-04  2440   0.466E-02    0.443E-02
DAV:  10    -0.136493304579E+04   -0.79237E-05   -0.21345E-04  2488   0.266E-02    0.260E-02
DAV:  11    -0.136493304914E+04   -0.33449E-05   -0.83097E-05  2456   0.196E-02    0.190E-02
DAV:  12    -0.136493304520E+04    0.39349E-05   -0.45735E-05  2320   0.150E-02    0.144E-02
DAV:  13    -0.136493304421E+04    0.99209E-06   -0.32404E-05  2208   0.101E-02    0.725E-03
DAV:  14    -0.136493304390E+04    0.30856E-06   -0.60362E-06  1456   0.560E-03
  10 F= -.13649330E+04 E0= -.13649330E+04  d E =-.602183E+00
 BRION: g(F)=  0.181E+00 g(S)=  0.000E+00 retain N=  7 mean eig= 3.35
 eig:   7.845  7.845  2.567  2.567  0.854  0.884  0.884
 bond charge predicted
       N       E                     dE             d eps       ncg     rms          rms(c)
DAV:   1    -0.136501650195E+04   -0.83458E-01   -0.64303E+01  1384   0.114E+01    0.135E+00
DAV:   2    -0.136534820556E+04   -0.33170E+00   -0.35013E+00  2280   0.451E+00    0.673E-01
DAV:   3    -0.136536649373E+04   -0.18288E-01   -0.26575E-01  2600   0.863E-01    0.555E-01
DAV:   4    -0.136536210750E+04    0.43862E-02   -0.25883E-02  2616   0.377E-01    0.384E-01
DAV:   5    -0.136535808864E+04    0.40189E-02   -0.14241E-02  2280   0.239E-01    0.140E-01
DAV:   6    -0.136535864761E+04   -0.55897E-03   -0.90955E-03  2456   0.171E-01    0.126E-01
DAV:   7    -0.136535856664E+04    0.80963E-04   -0.29526E-03  2488   0.102E-01    0.862E-02
DAV:   8    -0.136535854063E+04    0.26016E-04   -0.12022E-03  2576   0.653E-02    0.445E-02
DAV:   9    -0.136535853135E+04    0.92715E-05   -0.22226E-04  2336   0.325E-02    0.331E-02
DAV:  10    -0.136535853391E+04   -0.25509E-05   -0.85573E-05  2384   0.179E-02    0.178E-02
DAV:  11    -0.136535853343E+04    0.47288E-06   -0.33639E-05  2400   0.123E-02    0.838E-03
DAV:  12    -0.136535853432E+04   -0.88688E-06   -0.16907E-05  2112   0.867E-03    0.798E-03
DAV:  13    -0.136535853369E+04    0.62583E-06   -0.58861E-06  1480   0.558E-03
  11 F= -.13653585E+04 E0= -.13653585E+04  d E =-.425490E+00
 BRION: g(F)=  0.149E+00 g(S)=  0.000E+00 retain N=  7 mean eig= 3.64
 eig:   6.728  6.728  4.095  4.095  1.371  1.371  1.087
 bond charge predicted
       N       E                     dE             d eps       ncg     rms          rms(c)
DAV:   1    -0.136540362721E+04   -0.45093E-01   -0.55139E+01  1376   0.106E+01    0.124E+00
DAV:   2    -0.136569071457E+04   -0.28709E+00   -0.30355E+00  2288   0.424E+00    0.627E-01
DAV:   3    -0.136570613487E+04   -0.15420E-01   -0.22945E-01  2584   0.796E-01    0.513E-01
DAV:   4    -0.136570220919E+04    0.39257E-02   -0.22027E-02  2592   0.350E-01    0.361E-01
DAV:   5    -0.136569841492E+04    0.37943E-02   -0.13349E-02  2256   0.225E-01    0.134E-01
DAV:   6    -0.136569885392E+04   -0.43900E-03   -0.83933E-03  2416   0.166E-01    0.122E-01
DAV:   7    -0.136569879074E+04    0.63171E-04   -0.32576E-03  2392   0.103E-01    0.834E-02
DAV:   8    -0.136569876437E+04    0.26375E-04   -0.11843E-03  2560   0.663E-02    0.459E-02
DAV:   9    -0.136569875271E+04    0.11655E-04   -0.22171E-04  2392   0.324E-02    0.335E-02
DAV:  10    -0.136569875463E+04   -0.19134E-05   -0.11186E-04  2424   0.194E-02    0.177E-02
DAV:  11    -0.136569875445E+04    0.18312E-06   -0.42428E-05  2400   0.144E-02    0.833E-03
DAV:  12    -0.136569875542E+04   -0.97115E-06   -0.19751E-05  2184   0.942E-03    0.900E-03
DAV:  13    -0.136569875459E+04    0.82492E-06   -0.72675E-06  1568   0.590E-03
  12 F= -.13656988E+04 E0= -.13656988E+04  d E =-.340221E+00
 BRION: g(F)=  0.122E+00 g(S)=  0.000E+00 retain N=  6 mean eig= 3.79
 eig:   7.951  7.951  1.921  1.921  1.507  1.507
 bond charge predicted
       N       E                     dE             d eps       ncg     rms          rms(c)
DAV:   1    -0.136578682081E+04   -0.88065E-01   -0.27255E+01  1368   0.747E+00    0.873E-01
DAV:   2    -0.136592986141E+04   -0.14304E+00   -0.15151E+00  2312   0.297E+00    0.451E-01
DAV:   3    -0.136593768151E+04   -0.78201E-02   -0.11560E-01  2584   0.567E-01    0.372E-01
DAV:   4    -0.136593580472E+04    0.18768E-02   -0.11642E-02  2608   0.250E-01    0.260E-01
DAV:   5    -0.136593393643E+04    0.18683E-02   -0.62791E-03  2224   0.160E-01    0.981E-02
DAV:   6    -0.136593416059E+04   -0.22416E-03   -0.44043E-03  2384   0.120E-01    0.879E-02
DAV:   7    -0.136593412700E+04    0.33590E-04   -0.16604E-03  2376   0.728E-02    0.629E-02
DAV:   8    -0.136593411165E+04    0.15353E-04   -0.65147E-04  2576   0.488E-02    0.330E-02
DAV:   9    -0.136593410513E+04    0.65186E-05   -0.13815E-04  2384   0.246E-02    0.237E-02
DAV:  10    -0.136593410684E+04   -0.17097E-05   -0.52615E-05  2440   0.138E-02    0.146E-02
DAV:  11    -0.136593410624E+04    0.60243E-06   -0.21584E-05  2152   0.103E-02    0.875E-03
DAV:  12    -0.136593410622E+04    0.16109E-07   -0.13764E-05  1856   0.787E-03    0.786E-03
DAV:  13    -0.136593410567E+04    0.55339E-06   -0.57485E-06  1472   0.535E-03
  13 F= -.13659341E+04 E0= -.13659341E+04  d E =-.235351E+00
 BRION: g(F)=  0.101E+00 g(S)=  0.000E+00 retain N=  4 mean eig= 4.79
 eig:   7.962  7.962  1.610  1.610
 bond charge predicted
       N       E                     dE             d eps       ncg     rms          rms(c)
DAV:   1    -0.136601099027E+04   -0.76884E-01   -0.26538E+01  1376   0.735E+00    0.842E-01
DAV:   2    -0.136614929026E+04   -0.13830E+00   -0.14624E+00  2288   0.293E+00    0.429E-01
DAV:   3    -0.136615723558E+04   -0.79453E-02   -0.11361E-01  2576   0.559E-01    0.352E-01
DAV:   4    -0.136615556091E+04    0.16747E-02   -0.10451E-02  2592   0.241E-01    0.254E-01
DAV:   5    -0.136615367558E+04    0.18853E-02   -0.61685E-03  2296   0.158E-01    0.997E-02
DAV:   6    -0.136615384703E+04   -0.17144E-03   -0.44197E-03  2400   0.122E-01    0.860E-02
DAV:   7    -0.136615382543E+04    0.21597E-04   -0.18041E-03  2408   0.769E-02    0.625E-02
DAV:   8    -0.136615380859E+04    0.16842E-04   -0.62063E-04  2536   0.485E-02    0.334E-02
DAV:   9    -0.136615379868E+04    0.99027E-05   -0.14435E-04  2296   0.248E-02    0.225E-02
DAV:  10    -0.136615380123E+04   -0.25408E-05   -0.64000E-05  2352   0.148E-02    0.139E-02
DAV:  11    -0.136615380053E+04    0.69085E-06   -0.22302E-05  2120   0.106E-02    0.794E-03
DAV:  12    -0.136615380073E+04   -0.19481E-06   -0.13185E-05  1808   0.783E-03    0.759E-03
DAV:  13    -0.136615380005E+04    0.67956E-06   -0.40949E-06  1264   0.539E-03
  14 F= -.13661538E+04 E0= -.13661538E+04  d E =-.219694E+00
 BRION: g(F)=  0.877E-01 g(S)=  0.000E+00 retain N=  3 mean eig= 3.67
 eig:   4.837  4.837  1.350
 bond charge predicted
       N       E                     dE             d eps       ncg     rms          rms(c)
DAV:   1    -0.136623748776E+04   -0.83687E-01   -0.15673E+01  1376   0.567E+00    0.652E-01
DAV:   2    -0.136631816260E+04   -0.80675E-01   -0.85404E-01  2296   0.224E+00    0.332E-01
DAV:   3    -0.136632271857E+04   -0.45560E-02   -0.66584E-02  2576   0.432E-01    0.269E-01
DAV:   4    -0.136632161835E+04    0.11002E-02   -0.63172E-03  2584   0.187E-01    0.189E-01
DAV:   5    -0.136632057644E+04    0.10419E-02   -0.37107E-03  2248   0.123E-01    0.720E-02
DAV:   6    -0.136632068860E+04   -0.11216E-03   -0.23921E-03  2424   0.907E-02    0.631E-02
DAV:   7    -0.136632067972E+04    0.88765E-05   -0.87237E-04  2392   0.539E-02    0.443E-02
DAV:   8    -0.136632067239E+04    0.73386E-05   -0.32257E-04  2568   0.346E-02    0.233E-02
DAV:   9    -0.136632066822E+04    0.41648E-05   -0.69248E-05  2320   0.177E-02    0.166E-02
DAV:  10    -0.136632066895E+04   -0.72821E-06   -0.33071E-05  2288   0.109E-02    0.985E-03
DAV:  11    -0.136632066817E+04    0.77694E-06   -0.80811E-06  1528   0.764E-03
  15 F= -.13663207E+04 E0= -.13663207E+04  d E =-.166868E+00
 BRION: g(F)=  0.820E-01 g(S)=  0.000E+00 retain N=  4 mean eig= 4.38
 eig:   7.271  7.271  1.494  1.494
 bond charge predicted
       N       E                     dE             d eps       ncg     rms          rms(c)
DAV:   1    -0.136640245281E+04   -0.81784E-01   -0.14615E+01  1376   0.543E+00    0.617E-01
DAV:   2    -0.136647702995E+04   -0.74577E-01   -0.78763E-01  2296   0.213E+00    0.317E-01
DAV:   3    -0.136648134508E+04   -0.43151E-02   -0.61835E-02  2568   0.410E-01    0.257E-01
DAV:   4    -0.136648040352E+04    0.94156E-03   -0.58007E-03  2592   0.178E-01    0.182E-01
DAV:   5    -0.136647947256E+04    0.93096E-03   -0.31880E-03  2312   0.116E-01    0.714E-02
DAV:   6    -0.136647955302E+04   -0.80464E-04   -0.21624E-03  2400   0.867E-02    0.588E-02
DAV:   7    -0.136647954937E+04    0.36536E-05   -0.84153E-04  2448   0.538E-02    0.437E-02
DAV:   8    -0.136647954140E+04    0.79665E-05   -0.30204E-04  2536   0.336E-02    0.228E-02
DAV:   9    -0.136647953704E+04    0.43652E-05   -0.71699E-05  2272   0.174E-02    0.155E-02
DAV:  10    -0.136647953823E+04   -0.11872E-05   -0.33249E-05  2312   0.109E-02    0.978E-03
DAV:  11    -0.136647953744E+04    0.78981E-06   -0.79780E-06  1544   0.750E-03
  16 F= -.13664795E+04 E0= -.13664795E+04  d E =-.158869E+00
 BRION: g(F)=  0.746E-01 g(S)=  0.000E+00 retain N=  3 mean eig= 3.45
 eig:   4.474  4.474  1.390
 bond charge predicted
       N       E                     dE             d eps       ncg     rms          rms(c)
DAV:   1    -0.136655481676E+04   -0.75279E-01   -0.22461E+01  1368   0.669E+00    0.754E-01
DAV:   2    -0.136666794181E+04   -0.11313E+00   -0.11894E+00  2288   0.259E+00    0.384E-01
DAV:   3    -0.136667446648E+04   -0.65247E-02   -0.92650E-02  2576   0.504E-01    0.306E-01
DAV:   4    -0.136667302579E+04    0.14407E-02   -0.84684E-03  2600   0.213E-01    0.215E-01
DAV:   5    -0.136667166542E+04    0.13604E-02   -0.42324E-03  2320   0.138E-01    0.850E-02
DAV:   6    -0.136667176903E+04   -0.10361E-03   -0.30923E-03  2416   0.103E-01    0.631E-02
DAV:   7    -0.136667178002E+04   -0.10992E-04   -0.10382E-03  2440   0.607E-02    0.498E-02
DAV:   8    -0.136667177199E+04    0.80343E-05   -0.35988E-04  2552   0.367E-02    0.267E-02
DAV:   9    -0.136667176302E+04    0.89669E-05   -0.10907E-04  2336   0.211E-02    0.164E-02
DAV:  10    -0.136667176505E+04   -0.20307E-05   -0.38678E-05  2424   0.125E-02    0.117E-02
DAV:  11    -0.136667176382E+04    0.12309E-05   -0.13106E-05  1808   0.821E-03    0.493E-03
DAV:  12    -0.136667176406E+04   -0.24488E-06   -0.53838E-06  1408   0.631E-03
  17 F= -.13666718E+04 E0= -.13666718E+04  d E =-.192227E+00
 BRION: g(F)=  0.675E-01 g(S)=  0.000E+00 retain N=  3 mean eig= 4.61
 eig:   6.182  6.182  1.455
 bond charge predicted
       N       E                     dE             d eps       ncg     rms          rms(c)
DAV:   1    -0.136674394399E+04   -0.72180E-01   -0.18399E+01  1376   0.608E+00    0.684E-01
DAV:   2    -0.136683716210E+04   -0.93218E-01   -0.98371E-01  2296   0.237E+00    0.351E-01
DAV:   3    -0.136684268150E+04   -0.55194E-02   -0.78195E-02  2576   0.462E-01    0.281E-01
DAV:   4    -0.136684153200E+04    0.11495E-02   -0.70873E-03  2592   0.198E-01    0.200E-01
DAV:   5    -0.136684043948E+04    0.10925E-02   -0.39030E-03  2320   0.125E-01    0.801E-02
DAV:   6    -0.136684051543E+04   -0.75949E-04   -0.23990E-03  2440   0.903E-02    0.620E-02
DAV:   7    -0.136684051606E+04   -0.63129E-06   -0.97732E-04  2448   0.579E-02    0.444E-02
DAV:   8    -0.136684050975E+04    0.63130E-05   -0.35068E-04  2528   0.367E-02    0.266E-02
DAV:   9    -0.136684050469E+04    0.50573E-05   -0.82835E-05  2416   0.189E-02    0.177E-02
DAV:  10    -0.136684050545E+04   -0.76095E-06   -0.43241E-05  2440   0.120E-02    0.958E-03
DAV:  11    -0.136684050531E+04    0.13693E-06   -0.95920E-06  1672   0.796E-03
  18 F= -.13668405E+04 E0= -.13668405E+04  d E =-.168741E+00
 BRION: g(F)=  0.612E-01 g(S)=  0.000E+00 retain N=  3 mean eig= 5.39
 eig:   1.718  7.230  7.230
 bond charge predicted
       N       E                     dE             d eps       ncg     rms          rms(c)
DAV:   1    -0.136690571312E+04   -0.65208E-01   -0.22414E+01  1376   0.665E+00    0.739E-01
DAV:   2    -0.136701663315E+04   -0.11092E+00   -0.11669E+00  2288   0.255E+00    0.378E-01
DAV:   3    -0.136702319998E+04   -0.65668E-02   -0.92850E-02  2576   0.503E-01    0.300E-01
DAV:   4    -0.136702181246E+04    0.13875E-02   -0.83159E-03  2600   0.212E-01    0.211E-01
DAV:   5    -0.136702048733E+04    0.13251E-02   -0.42593E-03  2312   0.137E-01    0.853E-02
DAV:   6    -0.136702057035E+04   -0.83024E-04   -0.29996E-03  2352   0.102E-01    0.648E-02
DAV:   7    -0.136702057955E+04   -0.91947E-05   -0.11178E-03  2472   0.628E-02    0.496E-02
DAV:   8    -0.136702056985E+04    0.97019E-05   -0.37735E-04  2544   0.375E-02    0.270E-02
DAV:   9    -0.136702056286E+04    0.69851E-05   -0.10910E-04  2376   0.209E-02    0.171E-02
DAV:  10    -0.136702056464E+04   -0.17820E-05   -0.42998E-05  2400   0.128E-02    0.116E-02
DAV:  11    -0.136702056360E+04    0.10378E-05   -0.14586E-05  1920   0.872E-03    0.527E-03
DAV:  12    -0.136702056396E+04   -0.35593E-06   -0.75475E-06  1728   0.639E-03
  19 F= -.13670206E+04 E0= -.13670206E+04  d E =-.180059E+00
 BRION: g(F)=  0.549E-01 g(S)=  0.000E+00 retain N=  2 mean eig= 5.45
 eig:   5.450  5.450
 bond charge predicted
       N       E                     dE             d eps       ncg     rms          rms(c)
DAV:   1    -0.136707630737E+04   -0.55744E-01   -0.20070E+01  1384   0.634E+00    0.709E-01
DAV:   2    -0.136717655624E+04   -0.10025E+00   -0.10574E+00  2288   0.245E+00    0.365E-01
DAV:   3    -0.136718244918E+04   -0.58929E-02   -0.83964E-02  2568   0.478E-01    0.290E-01
DAV:   4    -0.136718113526E+04    0.13139E-02   -0.76455E-03  2576   0.205E-01    0.203E-01
DAV:   5    -0.136717996977E+04    0.11655E-02   -0.44618E-03  2288   0.133E-01    0.773E-02
DAV:   6    -0.136718009045E+04   -0.12067E-03   -0.25092E-03  2448   0.918E-02    0.660E-02
DAV:   7    -0.136718008479E+04    0.56594E-05   -0.91335E-04  2480   0.567E-02    0.444E-02
DAV:   8    -0.136718007512E+04    0.96644E-05   -0.33550E-04  2544   0.360E-02    0.248E-02
DAV:   9    -0.136718007190E+04    0.32206E-05   -0.70300E-05  2424   0.181E-02    0.173E-02
DAV:  10    -0.136718007247E+04   -0.57321E-06   -0.39438E-05  2400   0.118E-02    0.886E-03
DAV:  11    -0.136718007219E+04    0.28763E-06   -0.77615E-06  1568   0.781E-03
  20 F= -.13671801E+04 E0= -.13671801E+04  d E =-.159508E+00
 BRION: g(F)=  0.499E-01 g(S)=  0.000E+00 retain N=  2 mean eig= 4.78
 eig:   4.783  4.783
