 running on  160 total cores
 distrk:  each k-point on  160 cores,    1 groups
 distr:  one band on   20 cores,    8 groups
 using from now: INCAR     
 vasp.5.4.4.18Apr17-6-g9f103f2a35 (build May 01 2020 14:22:42) gamma-only       
  
 POSCAR found type information on POSCAR  O  La Zr Li Al
 POSCAR found :  5 types and     190 ions
 scaLAPACK will be used
 LDA part: xc-table for Pade appr. of Perdew
 POSCAR, INCAR and KPOINTS ok, starting setup
 FFT: planning ...
 WAVECAR not read
 WARNING: random wavefunctions but no delay for mixing, default for NELMDL
 entering main loop
       N       E                     dE             d eps       ncg     rms          rms(c)
DAV:   1     0.252953648060E+05    0.25295E+05   -0.42195E+05  1608   0.253E+03
DAV:   2     0.946058645815E+04   -0.15835E+05   -0.14580E+05  1432   0.709E+02
DAV:   3     0.272863355851E+04   -0.67320E+04   -0.61253E+04  1472   0.357E+02
DAV:   4    -0.367659349952E+03   -0.30963E+04   -0.28885E+04  2032   0.223E+02
DAV:   5    -0.141638779644E+04   -0.10487E+04   -0.10087E+04  2544   0.144E+02    0.116E+02
DAV:   6    -0.130753782997E+04    0.10885E+03   -0.14760E+03  2440   0.658E+01    0.504E+01
DAV:   7    -0.132979687151E+04   -0.22259E+02   -0.39314E+02  2552   0.341E+01    0.254E+01
DAV:   8    -0.133912249821E+04   -0.93256E+01   -0.28480E+02  2496   0.278E+01    0.272E+01
DAV:   9    -0.133107906681E+04    0.80434E+01   -0.59818E+01  2496   0.155E+01    0.800E+00
DAV:  10    -0.133215985043E+04   -0.10808E+01   -0.15737E+01  2624   0.841E+00    0.803E+00
DAV:  11    -0.133229783444E+04   -0.13798E+00   -0.71526E+00  2624   0.457E+00    0.426E+00
DAV:  12    -0.133218116465E+04    0.11667E+00   -0.25258E+00  2536   0.360E+00    0.315E+00
DAV:  13    -0.133225772940E+04   -0.76565E-01   -0.86589E-01  2544   0.174E+00    0.216E+00
DAV:  14    -0.133223544800E+04    0.22281E-01   -0.31684E-01  2584   0.114E+00    0.120E+00
DAV:  15    -0.133224409426E+04   -0.86463E-02   -0.98103E-02  2536   0.625E-01    0.105E+00
DAV:  16    -0.133224400824E+04    0.86018E-04   -0.33333E-02  2624   0.340E-01    0.674E-01
DAV:  17    -0.133224127427E+04    0.27340E-02   -0.26728E-02  2392   0.323E-01    0.329E-01
DAV:  18    -0.133224174942E+04   -0.47516E-03   -0.59551E-03  2376   0.165E-01    0.147E-01
DAV:  19    -0.133224179404E+04   -0.44617E-04   -0.17294E-03  2624   0.884E-02    0.979E-02
DAV:  20    -0.133224182468E+04   -0.30643E-04   -0.48756E-04  2624   0.433E-02    0.303E-02
DAV:  21    -0.133224184069E+04   -0.16008E-04   -0.14693E-04  2616   0.232E-02    0.384E-02
DAV:  22    -0.133224185844E+04   -0.17747E-04   -0.61838E-05  2448   0.169E-02    0.144E-02
DAV:  23    -0.133224185288E+04    0.55554E-05   -0.29816E-05  2160   0.110E-02    0.108E-02
DAV:  24    -0.133224185744E+04   -0.45583E-05   -0.10694E-05  1624   0.821E-03    0.301E-03
DAV:  25    -0.133224185745E+04   -0.81782E-08   -0.29264E-06  1008   0.469E-03
   1 F= -.13322419E+04 E0= -.13322419E+04  d E =-.133224E+04
 BRION: g(F)=  0.541E+02 g(S)=  0.000E+00
 bond charge predicted
       N       E                     dE             d eps       ncg     rms          rms(c)
DAV:   1    -0.130036500246E+04    0.31877E+02   -0.66825E+03  1616   0.120E+02    0.286E+01
DAV:   2    -0.135044609752E+04   -0.50081E+02   -0.58487E+02  2568   0.541E+01    0.140E+01
DAV:   3    -0.134868469237E+04    0.17614E+01   -0.34684E+01  2600   0.149E+01    0.937E+00
DAV:   4    -0.134673656873E+04    0.19481E+01   -0.11930E+01  2368   0.733E+00    0.426E+00
DAV:   5    -0.134658163989E+04    0.15493E+00   -0.38398E+00  2504   0.423E+00    0.303E+00
DAV:   6    -0.134652424820E+04    0.57392E-01   -0.25807E+00  2592   0.281E+00    0.175E+00
DAV:   7    -0.134649177767E+04    0.32471E-01   -0.37593E-01  2536   0.156E+00    0.924E-01
DAV:   8    -0.134649788863E+04   -0.61110E-02   -0.33287E-01  2576   0.957E-01    0.694E-01
DAV:   9    -0.134649533473E+04    0.25539E-02   -0.46233E-02  2536   0.495E-01    0.460E-01
DAV:  10    -0.134649336202E+04    0.19727E-02   -0.33220E-02  2480   0.314E-01    0.173E-01
DAV:  11    -0.134649450200E+04   -0.11400E-02   -0.14510E-02  2592   0.216E-01    0.182E-01
DAV:  12    -0.134649424450E+04    0.25751E-03   -0.24071E-03  2616   0.108E-01    0.112E-01
DAV:  13    -0.134649415440E+04    0.90094E-04   -0.22462E-03  2560   0.791E-02    0.220E-02
DAV:  14    -0.134649418467E+04   -0.30263E-04   -0.30457E-04  2552   0.385E-02    0.148E-02
DAV:  15    -0.134649419182E+04   -0.71522E-05   -0.59155E-05  2624   0.161E-02    0.123E-02
DAV:  16    -0.134649419079E+04    0.10287E-05   -0.18082E-05  2040   0.996E-03    0.826E-03
DAV:  17    -0.134649419185E+04   -0.10615E-05   -0.23705E-05  2136   0.854E-03    0.423E-03
DAV:  18    -0.134649419179E+04    0.58295E-07   -0.21676E-06  1104   0.468E-03
   2 F= -.13464942E+04 E0= -.13464942E+04  d E =-.142523E+02
 BRION: g(F)=  0.127E+03 g(S)=  0.000E+00 retain N=  1 mean eig= 0.35
 eig:   0.352
 bond charge predicted
       N       E                     dE             d eps       ncg     rms          rms(c)
DAV:   1    -0.133275778362E+04    0.13736E+02   -0.21259E+03  1320   0.581E+01    0.204E+01
DAV:   2    -0.135919962216E+04   -0.26442E+02   -0.33907E+02  2568   0.300E+01    0.185E+01
DAV:   3    -0.135630503359E+04    0.28946E+01   -0.32599E+01  2528   0.109E+01    0.139E+01
DAV:   4    -0.135404942995E+04    0.22556E+01   -0.34939E+01  2184   0.618E+00    0.682E+00
DAV:   5    -0.135468921125E+04   -0.63978E+00   -0.69292E+00  2440   0.385E+00    0.773E+00
DAV:   6    -0.135368688697E+04    0.10023E+01   -0.12434E+01  2456   0.323E+00    0.202E+00
DAV:   7    -0.135370862390E+04   -0.21737E-01   -0.12913E+00  2496   0.253E+00    0.167E+00
DAV:   8    -0.135368312849E+04    0.25495E-01   -0.65597E-01  2448   0.120E+00    0.500E-01
DAV:   9    -0.135368548090E+04   -0.23524E-02   -0.69042E-02  2464   0.579E-01    0.316E-01
DAV:  10    -0.135368731384E+04   -0.18329E-02   -0.34145E-02  2328   0.293E-01    0.314E-01
DAV:  11    -0.135368722814E+04    0.85704E-04   -0.79495E-03  2512   0.183E-01    0.282E-01
DAV:  12    -0.135368588996E+04    0.13382E-02   -0.48902E-03  2552   0.120E-01    0.131E-01
DAV:  13    -0.135368589304E+04   -0.30851E-05   -0.55604E-03  2536   0.111E-01    0.665E-02
DAV:  14    -0.135368588799E+04    0.50540E-05   -0.64742E-04  2488   0.534E-02    0.465E-02
DAV:  15    -0.135368588368E+04    0.43135E-05   -0.10166E-04  2608   0.209E-02    0.314E-02
DAV:  16    -0.135368587669E+04    0.69893E-05   -0.77388E-05  2472   0.147E-02    0.178E-02
DAV:  17    -0.135368587488E+04    0.18028E-05   -0.23723E-05  2304   0.101E-02    0.817E-03
DAV:  18    -0.135368587418E+04    0.70226E-06   -0.16002E-05  1992   0.673E-03    0.256E-03
DAV:  19    -0.135368587431E+04   -0.13136E-06   -0.22873E-06  1256   0.461E-03
   3 F= -.13536859E+04 E0= -.13536859E+04  d E =-.719168E+01
 BRION: g(F)=  0.182E+02 g(S)=  0.000E+00 retain N=  2 mean eig= 1.80
 eig:   0.196  3.401
 bond charge predicted
       N       E                     dE             d eps       ncg     rms          rms(c)
DAV:   1    -0.135262746927E+04    0.10584E+01   -0.76651E+02  1384   0.326E+01    0.806E+00
DAV:   2    -0.135787327164E+04   -0.52458E+01   -0.63623E+01  2448   0.156E+01    0.485E+00
DAV:   3    -0.135765839867E+04    0.21487E+00   -0.41640E+00  2512   0.490E+00    0.396E+00
DAV:   4    -0.135740101747E+04    0.25738E+00   -0.23259E+00  2208   0.220E+00    0.167E+00
DAV:   5    -0.135740700320E+04   -0.59857E-02   -0.59474E-01  2480   0.138E+00    0.186E+00
DAV:   6    -0.135735053422E+04    0.56469E-01   -0.41847E-01  2448   0.126E+00    0.766E-01
DAV:   7    -0.135735613292E+04   -0.55987E-02   -0.25513E-01  2432   0.770E-01    0.664E-01
DAV:   8    -0.135735541607E+04    0.71685E-03   -0.39533E-02  2560   0.360E-01    0.530E-01
DAV:   9    -0.135735093472E+04    0.44813E-02   -0.16527E-02  2496   0.222E-01    0.249E-01
DAV:  10    -0.135735149194E+04   -0.55722E-03   -0.20932E-02  2400   0.197E-01    0.173E-01
DAV:  11    -0.135735100427E+04    0.48767E-03   -0.29922E-03  2536   0.109E-01    0.745E-02
DAV:  12    -0.135735104196E+04   -0.37687E-04   -0.13355E-03  2552   0.563E-02    0.262E-02
DAV:  13    -0.135735105033E+04   -0.83659E-05   -0.12402E-04  2608   0.243E-02    0.135E-02
DAV:  14    -0.135735105140E+04   -0.10703E-05   -0.35168E-05  2360   0.118E-02    0.717E-03
DAV:  15    -0.135735105281E+04   -0.14113E-05   -0.16450E-05  2080   0.756E-03    0.344E-03
DAV:  16    -0.135735105277E+04    0.33266E-07   -0.15343E-06  1032   0.405E-03
   4 F= -.13573511E+04 E0= -.13573511E+04  d E =-.366518E+01
 BRION: g(F)=  0.552E+01 g(S)=  0.000E+00 retain N=  2 mean eig= 0.34
 eig:   0.341  0.341
 bond charge predicted
       N       E                     dE             d eps       ncg     rms          rms(c)
DAV:   1    -0.135874644779E+04   -0.13954E+01   -0.23433E+02  1368   0.204E+01    0.369E+00
DAV:   2    -0.135988527529E+04   -0.11388E+01   -0.12348E+01  2320   0.776E+00    0.187E+00
DAV:   3    -0.135988866006E+04   -0.33848E-02   -0.78640E-01  2616   0.162E+00    0.155E+00
DAV:   4    -0.135984460383E+04    0.44056E-01   -0.27323E-01  2488   0.987E-01    0.678E-01
DAV:   5    -0.135984259961E+04    0.20042E-02   -0.85143E-02  2464   0.593E-01    0.555E-01
DAV:   6    -0.135984048595E+04    0.21137E-02   -0.70402E-02  2520   0.446E-01    0.244E-01
DAV:   7    -0.135984058949E+04   -0.10353E-03   -0.15606E-02  2368   0.235E-01    0.224E-01
DAV:   8    -0.135984029383E+04    0.29566E-03   -0.57985E-03  2312   0.124E-01    0.116E-01
DAV:   9    -0.135984021890E+04    0.74923E-04   -0.30970E-03  2480   0.886E-02    0.597E-02
DAV:  10    -0.135984023453E+04   -0.15630E-04   -0.69310E-04  2344   0.526E-02    0.511E-02
DAV:  11    -0.135984021697E+04    0.17564E-04   -0.30921E-04  2496   0.320E-02    0.227E-02
DAV:  12    -0.135984022123E+04   -0.42632E-05   -0.14642E-04  2456   0.206E-02    0.135E-02
DAV:  13    -0.135984022183E+04   -0.59934E-06   -0.19444E-05  2120   0.106E-02    0.894E-03
DAV:  14    -0.135984022154E+04    0.28846E-06   -0.12646E-05  1736   0.655E-03    0.418E-03
DAV:  15    -0.135984022141E+04    0.13135E-06   -0.26819E-06  1048   0.515E-03
   5 F= -.13598402E+04 E0= -.13598402E+04  d E =-.248917E+01
 BRION: g(F)=  0.268E+01 g(S)=  0.000E+00 retain N=  3 mean eig= 0.21
 eig:   0.119  0.175  0.330
 bond charge predicted
       N       E                     dE             d eps       ncg     rms          rms(c)
DAV:   1    -0.136055917070E+04   -0.71895E+00   -0.23947E+02  1336   0.209E+01    0.310E+00
DAV:   2    -0.136171413400E+04   -0.11550E+01   -0.12270E+01  2320   0.779E+00    0.164E+00
DAV:   3    -0.136173781251E+04   -0.23679E-01   -0.76498E-01  2608   0.164E+00    0.138E+00
DAV:   4    -0.136170603183E+04    0.31781E-01   -0.16125E-01  2544   0.799E-01    0.760E-01
DAV:   5    -0.136169647713E+04    0.95547E-02   -0.78758E-02  2368   0.531E-01    0.427E-01
DAV:   6    -0.136169670267E+04   -0.22554E-03   -0.33840E-02  2528   0.347E-01    0.314E-01
DAV:   7    -0.136169599327E+04    0.70939E-03   -0.15434E-02  2488   0.222E-01    0.168E-01
DAV:   8    -0.136169600469E+04   -0.11419E-04   -0.41802E-03  2584   0.119E-01    0.829E-02
DAV:   9    -0.136169597786E+04    0.26838E-04   -0.83351E-04  2592   0.591E-02    0.546E-02
DAV:  10    -0.136169601599E+04   -0.38130E-04   -0.51258E-04  2328   0.388E-02    0.478E-02
DAV:  11    -0.136169598033E+04    0.35658E-04   -0.22825E-04  2536   0.298E-02    0.170E-02
DAV:  12    -0.136169598529E+04   -0.49669E-05   -0.11164E-04  2456   0.192E-02    0.121E-02
DAV:  13    -0.136169598426E+04    0.10381E-05   -0.21864E-05  2192   0.996E-03    0.642E-03
DAV:  14    -0.136169598458E+04   -0.31915E-06   -0.10103E-05  1816   0.619E-03    0.375E-03
DAV:  15    -0.136169598457E+04    0.89640E-08   -0.11293E-06  1032   0.383E-03
   6 F= -.13616960E+04 E0= -.13616960E+04  d E =-.185576E+01
 BRION: g(F)=  0.189E+01 g(S)=  0.000E+00 retain N=  4 mean eig= 0.42
 eig:   0.177  0.177  0.870  0.451
 bond charge predicted
       N       E                     dE             d eps       ncg     rms          rms(c)
DAV:   1    -0.136212409815E+04   -0.42811E+00   -0.24378E+02  1352   0.217E+01    0.300E+00
DAV:   2    -0.136333216830E+04   -0.12081E+01   -0.12676E+01  2304   0.827E+00    0.157E+00
DAV:   3    -0.136336472569E+04   -0.32557E-01   -0.83245E-01  2624   0.163E+00    0.125E+00
DAV:   4    -0.136333389514E+04    0.30831E-01   -0.15386E-01  2560   0.811E-01    0.670E-01
DAV:   5    -0.136332618658E+04    0.77086E-02   -0.57037E-02  2472   0.484E-01    0.343E-01
DAV:   6    -0.136332669411E+04   -0.50753E-03   -0.27221E-02  2536   0.312E-01    0.211E-01
DAV:   7    -0.136332644146E+04    0.25264E-03   -0.86821E-03  2264   0.186E-01    0.147E-01
DAV:   8    -0.136332658194E+04   -0.14048E-03   -0.50082E-03  2360   0.110E-01    0.947E-02
DAV:   9    -0.136332648884E+04    0.93096E-04   -0.79969E-04  2608   0.612E-02    0.624E-02
DAV:  10    -0.136332648143E+04    0.74167E-05   -0.90227E-04  2512   0.504E-02    0.416E-02
DAV:  11    -0.136332646953E+04    0.11895E-04   -0.24959E-04  2512   0.323E-02    0.160E-02
DAV:  12    -0.136332647400E+04   -0.44656E-05   -0.69776E-05  2464   0.173E-02    0.101E-02
DAV:  13    -0.136332647453E+04   -0.53532E-06   -0.19515E-05  2096   0.874E-03    0.693E-03
DAV:  14    -0.136332647467E+04   -0.13728E-06   -0.83988E-06  1616   0.605E-03
   7 F= -.13633265E+04 E0= -.13633265E+04  d E =-.163049E+01
 BRION: g(F)=  0.806E+00 g(S)=  0.000E+00 retain N=  5 mean eig= 0.80
 eig:   1.645  1.645  0.111  0.111  0.509
 bond charge predicted
       N       E                     dE             d eps       ncg     rms          rms(c)
DAV:   1    -0.136370693714E+04   -0.38046E+00   -0.90914E+01  1368   0.133E+01    0.189E+00
DAV:   2    -0.136414409283E+04   -0.43716E+00   -0.46190E+00  2288   0.506E+00    0.940E-01
DAV:   3    -0.136416253325E+04   -0.18440E-01   -0.34366E-01  2624   0.986E-01    0.741E-01
DAV:   4    -0.136415250352E+04    0.10030E-01   -0.52345E-02  2528   0.488E-01    0.378E-01
DAV:   5    -0.136415112853E+04    0.13750E-02   -0.20808E-02  2432   0.286E-01    0.193E-01
DAV:   6    -0.136415149284E+04   -0.36432E-03   -0.93887E-03  2568   0.177E-01    0.116E-01
DAV:   7    -0.136415144217E+04    0.50668E-04   -0.20897E-03  2440   0.940E-02    0.807E-02
DAV:   8    -0.136415144937E+04   -0.71961E-05   -0.90325E-04  2504   0.530E-02    0.419E-02
DAV:   9    -0.136415143622E+04    0.13154E-04   -0.18278E-04  2584   0.313E-02    0.260E-02
DAV:  10    -0.136415144593E+04   -0.97171E-05   -0.18753E-04  2472   0.226E-02    0.224E-02
DAV:  11    -0.136415144073E+04    0.52033E-05   -0.51075E-05  2424   0.152E-02    0.899E-03
DAV:  12    -0.136415144146E+04   -0.72754E-06   -0.17827E-05  2016   0.835E-03    0.606E-03
DAV:  13    -0.136415144113E+04    0.32983E-06   -0.21421E-06  1032   0.537E-03
   8 F= -.13641514E+04 E0= -.13641514E+04  d E =-.824966E+00
 BRION: g(F)=  0.520E+00 g(S)=  0.000E+00 retain N=  6 mean eig= 0.82
 eig:   1.712  0.837  0.837  0.663  0.663  0.200
 bond charge predicted
       N       E                     dE             d eps       ncg     rms          rms(c)
DAV:   1    -0.136439854507E+04   -0.24710E+00   -0.11202E+02  1384   0.150E+01    0.201E+00
DAV:   2    -0.136495139318E+04   -0.55285E+00   -0.58073E+00  2304   0.582E+00    0.951E-01
DAV:   3    -0.136497934403E+04   -0.27951E-01   -0.43463E-01  2624   0.108E+00    0.741E-01
DAV:   4    -0.136496922438E+04    0.10120E-01   -0.51558E-02  2552   0.513E-01    0.412E-01
DAV:   5    -0.136496712381E+04    0.21006E-02   -0.23455E-02  2376   0.298E-01    0.171E-01
DAV:   6    -0.136496780688E+04   -0.68307E-03   -0.85940E-03  2560   0.174E-01    0.124E-01
DAV:   7    -0.136496774565E+04    0.61236E-04   -0.23488E-03  2592   0.981E-02    0.820E-02
DAV:   8    -0.136496774199E+04    0.36550E-05   -0.94927E-04  2608   0.589E-02    0.458E-02
DAV:   9    -0.136496773455E+04    0.74449E-05   -0.22037E-04  2544   0.338E-02    0.281E-02
DAV:  10    -0.136496774363E+04   -0.90894E-05   -0.14667E-04  2560   0.214E-02    0.190E-02
DAV:  11    -0.136496773969E+04    0.39427E-05   -0.37269E-05  2424   0.131E-02    0.925E-03
DAV:  12    -0.136496774064E+04   -0.94777E-06   -0.18647E-05  2040   0.798E-03    0.664E-03
DAV:  13    -0.136496773986E+04    0.77979E-06   -0.22084E-06  1016   0.579E-03
   9 F= -.13649677E+04 E0= -.13649677E+04  d E =-.816299E+00
 BRION: g(F)=  0.414E+00 g(S)=  0.000E+00 retain N=  7 mean eig= 0.92
 eig:   1.585  0.594  0.983  0.983  0.665  0.804  0.804
 bond charge predicted
       N       E                     dE             d eps       ncg     rms          rms(c)
DAV:   1    -0.136516803402E+04   -0.20029E+00   -0.87922E+01  1376   0.134E+01    0.160E+00
DAV:   2    -0.136561232134E+04   -0.44429E+00   -0.47096E+00  2280   0.529E+00    0.827E-01
DAV:   3    -0.136563789067E+04   -0.25569E-01   -0.36979E-01  2600   0.102E+00    0.658E-01
DAV:   4    -0.136563156103E+04    0.63296E-02   -0.36972E-02  2592   0.448E-01    0.434E-01
DAV:   5    -0.136562776624E+04    0.37948E-02   -0.20569E-02  2280   0.275E-01    0.162E-01
DAV:   6    -0.136562843499E+04   -0.66875E-03   -0.97292E-03  2544   0.187E-01    0.141E-01
DAV:   7    -0.136562838701E+04    0.47972E-04   -0.42197E-03  2536   0.120E-01    0.902E-02
DAV:   8    -0.136562835874E+04    0.28272E-04   -0.12329E-03  2600   0.708E-02    0.497E-02
DAV:   9    -0.136562835248E+04    0.62659E-05   -0.25027E-04  2544   0.346E-02    0.363E-02
DAV:  10    -0.136562836109E+04   -0.86083E-05   -0.20401E-04  2400   0.248E-02    0.229E-02
DAV:  11    -0.136562835662E+04    0.44680E-05   -0.65964E-05  2440   0.183E-02    0.942E-03
DAV:  12    -0.136562835915E+04   -0.25360E-05   -0.35574E-05  2376   0.113E-02    0.101E-02
DAV:  13    -0.136562835774E+04    0.14086E-05   -0.67584E-06  1472   0.644E-03    0.502E-03
DAV:  14    -0.136562835805E+04   -0.30879E-06   -0.94119E-06  1632   0.644E-03
  10 F= -.13656284E+04 E0= -.13656284E+04  d E =-.660618E+00
 BRION: g(F)=  0.289E+00 g(S)=  0.000E+00 retain N=  8 mean eig= 1.86
 eig:   4.246  4.246  2.953  0.521  0.954  0.390  0.789  0.789
 bond charge predicted
       N       E                     dE             d eps       ncg     rms          rms(c)
DAV:   1    -0.136571230179E+04   -0.83944E-01   -0.10236E+02  1376   0.144E+01    0.172E+00
DAV:   2    -0.136624308459E+04   -0.53078E+00   -0.56187E+00  2296   0.585E+00    0.880E-01
DAV:   3    -0.136627227929E+04   -0.29195E-01   -0.43437E-01  2600   0.109E+00    0.702E-01
DAV:   4    -0.136626466629E+04    0.76130E-02   -0.43945E-02  2592   0.487E-01    0.468E-01
DAV:   5    -0.136625926891E+04    0.53974E-02   -0.20720E-02  2304   0.289E-01    0.179E-01
DAV:   6    -0.136625986447E+04   -0.59555E-03   -0.12229E-02  2416   0.203E-01    0.135E-01
DAV:   7    -0.136625987957E+04   -0.15107E-04   -0.44999E-03  2440   0.125E-01    0.979E-02
DAV:   8    -0.136625987071E+04    0.88615E-05   -0.16882E-03  2592   0.770E-02    0.556E-02
DAV:   9    -0.136625985515E+04    0.15562E-04   -0.38889E-04  2472   0.416E-02    0.400E-02
DAV:  10    -0.136625985960E+04   -0.44523E-05   -0.19153E-04  2504   0.265E-02    0.238E-02
DAV:  11    -0.136625985816E+04    0.14397E-05   -0.82700E-05  2472   0.190E-02    0.107E-02
DAV:  12    -0.136625985952E+04   -0.13548E-05   -0.29830E-05  2344   0.122E-02    0.104E-02
DAV:  13    -0.136625985864E+04    0.88236E-06   -0.13736E-05  1800   0.711E-03    0.533E-03
DAV:  14    -0.136625985866E+04   -0.22454E-07   -0.56380E-06  1448   0.557E-03
  11 F= -.13662599E+04 E0= -.13662599E+04  d E =-.631501E+00
 BRION: g(F)=  0.190E+00 g(S)=  0.000E+00 retain N=  9 mean eig= 2.40
 eig:   5.908  5.908  3.443  1.980  1.980  0.588  0.306  0.763  0.763
 bond charge predicted
       N       E                     dE             d eps       ncg     rms          rms(c)
DAV:   1    -0.136624172522E+04    0.18133E-01   -0.10039E+02  1368   0.144E+01    0.172E+00
DAV:   2    -0.136677440953E+04   -0.53268E+00   -0.56670E+00  2288   0.597E+00    0.882E-01
DAV:   3    -0.136680334953E+04   -0.28940E-01   -0.43725E-01  2600   0.111E+00    0.706E-01
DAV:   4    -0.136679576766E+04    0.75819E-02   -0.45063E-02  2584   0.500E-01    0.479E-01
DAV:   5    -0.136679031544E+04    0.54522E-02   -0.21117E-02  2344   0.284E-01    0.193E-01
DAV:   6    -0.136679065512E+04   -0.33968E-03   -0.11746E-02  2376   0.200E-01    0.132E-01
DAV:   7    -0.136679073342E+04   -0.78303E-04   -0.55542E-03  2408   0.136E-01    0.987E-02
DAV:   8    -0.136679074005E+04   -0.66274E-05   -0.19109E-03  2592   0.851E-02    0.645E-02
DAV:   9    -0.136679071687E+04    0.23176E-04   -0.47833E-04  2552   0.456E-02    0.442E-02
DAV:  10    -0.136679072301E+04   -0.61321E-05   -0.22585E-04  2592   0.277E-02    0.268E-02
DAV:  11    -0.136679072310E+04   -0.95635E-07   -0.88488E-05  2544   0.194E-02    0.144E-02
DAV:  12    -0.136679072255E+04    0.55201E-06   -0.41883E-05  2384   0.139E-02    0.110E-02
DAV:  13    -0.136679072208E+04    0.46927E-06   -0.20011E-05  2176   0.839E-03    0.608E-03
DAV:  14    -0.136679072217E+04   -0.88869E-07   -0.80353E-06  1704   0.557E-03
  12 F= -.13667907E+04 E0= -.13667907E+04  d E =-.530864E+00
 BRION: g(F)=  0.134E+00 g(S)=  0.000E+00 retain N=  8 mean eig= 3.22
 eig:   7.832  7.832  3.007  3.007  0.905  0.905  1.118  1.118
 bond charge predicted
       N       E                     dE             d eps       ncg     rms          rms(c)
DAV:   1    -0.136682919451E+04   -0.38472E-01   -0.48359E+01  1368   0.100E+01    0.122E+00
DAV:   2    -0.136708343753E+04   -0.25424E+00   -0.27025E+00  2296   0.409E+00    0.608E-01
DAV:   3    -0.136709741040E+04   -0.13973E-01   -0.21076E-01  2600   0.769E-01    0.489E-01
DAV:   4    -0.136709378520E+04    0.36252E-02   -0.21139E-02  2592   0.346E-01    0.334E-01
DAV:   5    -0.136709093540E+04    0.28498E-02   -0.10519E-02  2352   0.204E-01    0.135E-01
DAV:   6    -0.136709113204E+04   -0.19664E-03   -0.65095E-03  2408   0.149E-01    0.980E-02
DAV:   7    -0.136709114588E+04   -0.13834E-04   -0.28007E-03  2376   0.968E-02    0.727E-02
DAV:   8    -0.136709114883E+04   -0.29536E-05   -0.10053E-03  2600   0.601E-02    0.431E-02
DAV:   9    -0.136709113689E+04    0.11943E-04   -0.22744E-04  2544   0.318E-02    0.299E-02
DAV:  10    -0.136709113961E+04   -0.27173E-05   -0.11313E-04  2560   0.198E-02    0.181E-02
DAV:  11    -0.136709113955E+04    0.53522E-07   -0.50429E-05  2392   0.145E-02    0.955E-03
DAV:  12    -0.136709113971E+04   -0.15611E-06   -0.18766E-05  2184   0.100E-02    0.878E-03
DAV:  13    -0.136709113912E+04    0.59250E-06   -0.10997E-05  1744   0.637E-03    0.461E-03
DAV:  14    -0.136709113897E+04    0.14753E-06   -0.34449E-06  1208   0.497E-03
  13 F= -.13670911E+04 E0= -.13670911E+04  d E =-.300417E+00
 BRION: g(F)=  0.108E+00 g(S)=  0.000E+00 retain N=  5 mean eig= 4.18
 eig:   7.373  7.373  2.397  2.397  1.377
 bond charge predicted
       N       E                     dE             d eps       ncg     rms          rms(c)
DAV:   1    -0.136713132417E+04   -0.40185E-01   -0.28052E+01  1384   0.766E+00    0.884E-01
DAV:   2    -0.136727817012E+04   -0.14685E+00   -0.15518E+00  2304   0.315E+00    0.447E-01
DAV:   3    -0.136728675320E+04   -0.85831E-02   -0.12016E-01  2616   0.588E-01    0.365E-01
DAV:   4    -0.136728515936E+04    0.15938E-02   -0.10629E-02  2616   0.252E-01    0.271E-01
DAV:   5    -0.136728324900E+04    0.19104E-02   -0.62046E-03  2304   0.159E-01    0.113E-01
DAV:   6    -0.136728335259E+04   -0.10359E-03   -0.47565E-03  2352   0.131E-01    0.884E-02
DAV:   7    -0.136728336626E+04   -0.13667E-04   -0.24184E-03  2400   0.859E-02    0.671E-02
DAV:   8    -0.136728334773E+04    0.18526E-04   -0.69188E-04  2568   0.538E-02    0.384E-02
DAV:   9    -0.136728333686E+04    0.10868E-04   -0.18487E-04  2504   0.271E-02    0.238E-02
DAV:  10    -0.136728334017E+04   -0.33070E-05   -0.66366E-05  2536   0.157E-02    0.147E-02
DAV:  11    -0.136728334100E+04   -0.83144E-06   -0.29426E-05  2344   0.116E-02    0.998E-03
DAV:  12    -0.136728334039E+04    0.60665E-06   -0.13802E-05  1968   0.872E-03    0.887E-03
DAV:  13    -0.136728333977E+04    0.61985E-06   -0.10213E-05  1728   0.628E-03    0.487E-03
DAV:  14    -0.136728333945E+04    0.32736E-06   -0.19020E-06   992   0.463E-03
  14 F= -.13672833E+04 E0= -.13672833E+04  d E =-.192200E+00
 BRION: g(F)=  0.812E-01 g(S)=  0.000E+00 retain N=  5 mean eig= 4.19
 eig:   6.881  6.881  2.809  2.809  1.570
 bond charge predicted
       N       E                     dE             d eps       ncg     rms          rms(c)
DAV:   1    -0.136731303880E+04   -0.29699E-01   -0.32637E+01  1384   0.827E+00    0.950E-01
DAV:   2    -0.136748847542E+04   -0.17544E+00   -0.18621E+00  2320   0.345E+00    0.483E-01
DAV:   3    -0.136749896986E+04   -0.10494E-01   -0.14516E-01  2600   0.636E-01    0.394E-01
DAV:   4    -0.136749730201E+04    0.16678E-02   -0.13146E-02  2600   0.280E-01    0.293E-01
DAV:   5    -0.136749528848E+04    0.20135E-02   -0.64279E-03  2328   0.159E-01    0.132E-01
DAV:   6    -0.136749525159E+04    0.36888E-04   -0.49729E-03  2288   0.132E-01    0.838E-02
DAV:   7    -0.136749532092E+04   -0.69326E-04   -0.28687E-03  2456   0.939E-02    0.740E-02
DAV:   8    -0.136749529711E+04    0.23809E-04   -0.78153E-04  2592   0.585E-02    0.506E-02
DAV:   9    -0.136749527484E+04    0.22268E-04   -0.28203E-04  2544   0.315E-02    0.272E-02
DAV:  10    -0.136749527931E+04   -0.44691E-05   -0.79802E-05  2544   0.177E-02    0.169E-02
DAV:  11    -0.136749528163E+04   -0.23174E-05   -0.20841E-05  2104   0.994E-03    0.132E-02
DAV:  12    -0.136749527978E+04    0.18526E-05   -0.26668E-05  2008   0.104E-02    0.950E-03
DAV:  13    -0.136749527967E+04    0.10226E-06   -0.12221E-05  1840   0.712E-03    0.738E-03
DAV:  14    -0.136749527899E+04    0.68499E-06   -0.38916E-06  1248   0.466E-03
  15 F= -.13674953E+04 E0= -.13674953E+04  d E =-.211940E+00
 BRION: g(F)=  0.694E-01 g(S)=  0.000E+00 retain N=  3 mean eig= 4.22
 eig:   5.600  5.600  1.469
 bond charge predicted
       N       E                     dE             d eps       ncg     rms          rms(c)
DAV:   1    -0.136749131832E+04    0.39614E-02   -0.35460E+01  1384   0.859E+00    0.971E-01
DAV:   2    -0.136767832499E+04   -0.18701E+00   -0.19748E+00  2288   0.355E+00    0.493E-01
DAV:   3    -0.136768925680E+04   -0.10932E-01   -0.15163E-01  2592   0.649E-01    0.397E-01
DAV:   4    -0.136768746120E+04    0.17956E-02   -0.13425E-02  2600   0.281E-01    0.301E-01
DAV:   5    -0.136768505765E+04    0.24036E-02   -0.69028E-03  2368   0.171E-01    0.138E-01
DAV:   6    -0.136768493826E+04    0.11938E-03   -0.59277E-03  2224   0.151E-01    0.875E-02
DAV:   7    -0.136768506776E+04   -0.12950E-03   -0.37562E-03  2416   0.105E-01    0.810E-02
DAV:   8    -0.136768503716E+04    0.30598E-04   -0.74999E-04  2608   0.593E-02    0.563E-02
DAV:   9    -0.136768500267E+04    0.34496E-04   -0.37357E-04  2544   0.354E-02    0.272E-02
DAV:  10    -0.136768501223E+04   -0.95603E-05   -0.13818E-04  2488   0.226E-02    0.185E-02
DAV:  11    -0.136768501345E+04   -0.12201E-05   -0.38063E-05  2408   0.132E-02    0.135E-02
DAV:  12    -0.136768501216E+04    0.12926E-05   -0.38338E-05  2152   0.125E-02    0.121E-02
DAV:  13    -0.136768501125E+04    0.90976E-06   -0.19901E-05  2056   0.880E-03    0.906E-03
DAV:  14    -0.136768501038E+04    0.86930E-06   -0.68184E-06  1528   0.570E-03
  16 F= -.13676850E+04 E0= -.13676850E+04  d E =-.189731E+00
 BRION: g(F)=  0.583E-01 g(S)=  0.000E+00 retain N=  3 mean eig= 5.06
 eig:   1.602  6.783  6.783
 bond charge predicted
       N       E                     dE             d eps       ncg     rms          rms(c)
DAV:   1    -0.136770941836E+04   -0.24407E-01   -0.21342E+01  1384   0.665E+00    0.755E-01
DAV:   2    -0.136782290126E+04   -0.11348E+00   -0.11980E+00  2312   0.276E+00    0.381E-01
DAV:   3    -0.136782970284E+04   -0.68016E-02   -0.91899E-02  2584   0.499E-01    0.311E-01
DAV:   4    -0.136782875286E+04    0.94998E-03   -0.80702E-03  2600   0.217E-01    0.238E-01
DAV:   5    -0.136782734824E+04    0.14046E-02   -0.40757E-03  2344   0.129E-01    0.109E-01
DAV:   6    -0.136782730564E+04    0.42599E-04   -0.34864E-03  2232   0.111E-01    0.683E-02
DAV:   7    -0.136782736409E+04   -0.58442E-04   -0.20591E-03  2496   0.782E-02    0.633E-02
DAV:   8    -0.136782734372E+04    0.20370E-04   -0.47135E-04  2560   0.464E-02    0.449E-02
DAV:   9    -0.136782732143E+04    0.22292E-04   -0.20458E-04  2472   0.262E-02    0.222E-02
DAV:  10    -0.136782732586E+04   -0.44323E-05   -0.77027E-05  2480   0.164E-02    0.132E-02
DAV:  11    -0.136782732769E+04   -0.18321E-05   -0.17782E-05  1984   0.925E-03    0.110E-02
DAV:  12    -0.136782732624E+04    0.14449E-05   -0.17938E-05  1872   0.907E-03    0.883E-03
DAV:  13    -0.136782732585E+04    0.39759E-06   -0.10659E-05  1768   0.705E-03    0.619E-03
DAV:  14    -0.136782732526E+04    0.58475E-06   -0.18451E-06   920   0.465E-03
  17 F= -.13678273E+04 E0= -.13678273E+04  d E =-.142315E+00
 BRION: g(F)=  0.519E-01 g(S)=  0.000E+00 retain N=  2 mean eig= 4.45
 eig:   4.446  4.446
 bond charge predicted
       N       E                     dE             d eps       ncg     rms          rms(c)
DAV:   1    -0.136785563053E+04   -0.28305E-01   -0.17169E+01  1392   0.594E+00    0.672E-01
DAV:   2    -0.136794636016E+04   -0.90730E-01   -0.95536E-01  2312   0.246E+00    0.339E-01
DAV:   3    -0.136795167202E+04   -0.53119E-02   -0.72641E-02  2576   0.441E-01    0.275E-01
DAV:   4    -0.136795083936E+04    0.83266E-03   -0.63571E-03  2584   0.192E-01    0.209E-01
DAV:   5    -0.136794968585E+04    0.11535E-02   -0.34125E-03  2320   0.118E-01    0.925E-02
DAV:   6    -0.136794968362E+04    0.22245E-05   -0.28137E-03  2264   0.988E-02    0.628E-02
DAV:   7    -0.136794971803E+04   -0.34411E-04   -0.15591E-03  2472   0.686E-02    0.541E-02
DAV:   8    -0.136794970225E+04    0.15781E-04   -0.38250E-04  2544   0.415E-02    0.356E-02
DAV:   9    -0.136794968891E+04    0.13346E-04   -0.14838E-04  2472   0.227E-02    0.188E-02
DAV:  10    -0.136794969197E+04   -0.30669E-05   -0.55531E-05  2496   0.141E-02    0.118E-02
DAV:  11    -0.136794969261E+04   -0.63768E-06   -0.14333E-05  1936   0.855E-03    0.867E-03
DAV:  12    -0.136794969195E+04    0.65673E-06   -0.12271E-05  1648   0.761E-03    0.712E-03
DAV:  13    -0.136794969162E+04    0.33659E-06   -0.71655E-06  1592   0.623E-03
  18 F= -.13679497E+04 E0= -.13679497E+04  d E =-.122366E+00
 BRION: g(F)=  0.474E-01 g(S)=  0.000E+00 retain N=  2 mean eig= 3.81
 eig:   3.815  3.815
 bond charge predicted
       N       E                     dE             d eps       ncg     rms          rms(c)
DAV:   1    -0.136797836105E+04   -0.28669E-01   -0.16242E+01  1392   0.576E+00    0.650E-01
DAV:   2    -0.136806386948E+04   -0.85508E-01   -0.90041E-01  2312   0.238E+00    0.329E-01
DAV:   3    -0.136806868895E+04   -0.48195E-02   -0.66806E-02  2584   0.431E-01    0.265E-01
DAV:   4    -0.136806786862E+04    0.82033E-03   -0.59041E-03  2592   0.184E-01    0.200E-01
DAV:   5    -0.136806677185E+04    0.10968E-02   -0.32130E-03  2320   0.118E-01    0.862E-02
DAV:   6    -0.136806678523E+04   -0.13377E-04   -0.26774E-03  2256   0.978E-02    0.609E-02
DAV:   7    -0.136806681465E+04   -0.29414E-04   -0.13862E-03  2432   0.651E-02    0.520E-02
DAV:   8    -0.136806680040E+04    0.14240E-04   -0.34743E-04  2560   0.387E-02    0.320E-02
DAV:   9    -0.136806679022E+04    0.10190E-04   -0.13626E-04  2520   0.219E-02    0.171E-02
DAV:  10    -0.136806679351E+04   -0.32964E-05   -0.49145E-05  2536   0.136E-02    0.120E-02
DAV:  11    -0.136806679321E+04    0.30536E-06   -0.15379E-05  1936   0.881E-03    0.788E-03
DAV:  12    -0.136806679290E+04    0.30850E-06   -0.10501E-05  1656   0.726E-03    0.670E-03
DAV:  13    -0.136806679253E+04    0.37007E-06   -0.57469E-06  1488   0.565E-03
  19 F= -.13680668E+04 E0= -.13680668E+04  d E =-.117101E+00
 BRION: g(F)=  0.427E-01 g(S)=  0.000E+00 retain N=  2 mean eig= 3.55
 eig:   3.551  3.551
 bond charge predicted
       N       E                     dE             d eps       ncg     rms          rms(c)
DAV:   1    -0.136809501859E+04   -0.28226E-01   -0.15588E+01  1392   0.564E+00    0.636E-01
DAV:   2    -0.136817739787E+04   -0.82379E-01   -0.86783E-01  2312   0.233E+00    0.320E-01
DAV:   3    -0.136818217477E+04   -0.47769E-02   -0.65407E-02  2592   0.423E-01    0.261E-01
DAV:   4    -0.136818139494E+04    0.77983E-03   -0.56228E-03  2592   0.182E-01    0.196E-01
DAV:   5    -0.136818037008E+04    0.10249E-02   -0.31644E-03  2304   0.114E-01    0.826E-02
DAV:   6    -0.136818041058E+04   -0.40496E-04   -0.24818E-03  2272   0.917E-02    0.622E-02
DAV:   7    -0.136818042060E+04   -0.10021E-04   -0.12113E-03  2448   0.616E-02    0.496E-02
DAV:   8    -0.136818040813E+04    0.12467E-04   -0.35551E-04  2520   0.384E-02    0.303E-02
DAV:   9    -0.136818039895E+04    0.91798E-05   -0.11505E-04  2424   0.205E-02    0.174E-02
DAV:  10    -0.136818040121E+04   -0.22571E-05   -0.43782E-05  2464   0.125E-02    0.111E-02
DAV:  11    -0.136818040141E+04   -0.20847E-06   -0.13144E-05  1896   0.828E-03    0.778E-03
DAV:  12    -0.136818040092E+04    0.49231E-06   -0.88806E-06  1608   0.672E-03
  20 F= -.13681804E+04 E0= -.13681804E+04  d E =-.113608E+00
 BRION: g(F)=  0.389E-01 g(S)=  0.000E+00 retain N=  3 mean eig= 5.16
 eig:   6.875  6.875  1.745
