 running on  160 total cores
 distrk:  each k-point on  160 cores,    1 groups
 distr:  one band on   20 cores,    8 groups
 using from now: INCAR     
 vasp.5.4.4.18Apr17-6-g9f103f2a35 (build May 01 2020 14:22:42) gamma-only       
  
 POSCAR found type information on POSCAR  O  La Zr Li Al
 POSCAR found :  5 types and     190 ions
 scaLAPACK will be used
 LDA part: xc-table for Pade appr. of Perdew
 POSCAR, INCAR and KPOINTS ok, starting setup
 FFT: planning ...
 WAVECAR not read
 WARNING: random wavefunctions but no delay for mixing, default for NELMDL
 entering main loop
       N       E                     dE             d eps       ncg     rms          rms(c)
DAV:   1     0.252112907823E+05    0.25211E+05   -0.42263E+05  1608   0.253E+03
DAV:   2     0.946439300953E+04   -0.15747E+05   -0.14628E+05  1456   0.713E+02
DAV:   3     0.273637187735E+04   -0.67280E+04   -0.61369E+04  1488   0.354E+02
DAV:   4    -0.369864602814E+03   -0.31062E+04   -0.29002E+04  2064   0.222E+02
DAV:   5    -0.142517141061E+04   -0.10553E+04   -0.10199E+04  2528   0.141E+02    0.116E+02
DAV:   6    -0.130451955584E+04    0.12065E+03   -0.13901E+03  2424   0.653E+01    0.503E+01
DAV:   7    -0.132699243616E+04   -0.22473E+02   -0.37835E+02  2560   0.333E+01    0.244E+01
DAV:   8    -0.133851536445E+04   -0.11523E+02   -0.27951E+02  2520   0.272E+01    0.280E+01
DAV:   9    -0.132887101684E+04    0.96443E+01   -0.66927E+01  2448   0.158E+01    0.758E+00
DAV:  10    -0.133016082923E+04   -0.12898E+01   -0.15413E+01  2624   0.857E+00    0.810E+00
DAV:  11    -0.133026893596E+04   -0.10811E+00   -0.71982E+00  2624   0.456E+00    0.399E+00
DAV:  12    -0.133015961387E+04    0.10932E+00   -0.25825E+00  2576   0.366E+00    0.292E+00
DAV:  13    -0.133024362763E+04   -0.84014E-01   -0.87767E-01  2560   0.179E+00    0.234E+00
DAV:  14    -0.133021116517E+04    0.32462E-01   -0.36349E-01  2576   0.120E+00    0.121E+00
DAV:  15    -0.133022061460E+04   -0.94494E-02   -0.10961E-01  2552   0.673E-01    0.105E+00
DAV:  16    -0.133022053539E+04    0.79216E-04   -0.44210E-02  2616   0.391E-01    0.624E-01
DAV:  17    -0.133021731805E+04    0.32173E-02   -0.27812E-02  2504   0.340E-01    0.264E-01
DAV:  18    -0.133021763760E+04   -0.31955E-03   -0.63090E-03  2544   0.168E-01    0.139E-01
DAV:  19    -0.133021758909E+04    0.48514E-04   -0.25728E-03  2584   0.989E-02    0.867E-02
DAV:  20    -0.133021764818E+04   -0.59095E-04   -0.65104E-04  2624   0.515E-02    0.252E-02
DAV:  21    -0.133021765389E+04   -0.57055E-05   -0.18371E-04  2608   0.286E-02    0.336E-02
DAV:  22    -0.133021767199E+04   -0.18099E-04   -0.68804E-05  2456   0.178E-02    0.151E-02
DAV:  23    -0.133021766709E+04    0.48922E-05   -0.33039E-05  2272   0.106E-02    0.714E-03
DAV:  24    -0.133021767076E+04   -0.36610E-05   -0.86437E-06  1216   0.822E-03    0.322E-03
DAV:  25    -0.133021767050E+04    0.25370E-06   -0.69005E-06  1248   0.571E-03
   1 F= -.13302177E+04 E0= -.13302177E+04  d E =-.133022E+04
 BRION: g(F)=  0.537E+02 g(S)=  0.000E+00
 bond charge predicted
       N       E                     dE             d eps       ncg     rms          rms(c)
DAV:   1    -0.131328539189E+04    0.16932E+02   -0.56682E+03  1712   0.115E+02    0.209E+01
DAV:   2    -0.135302300808E+04   -0.39738E+02   -0.46014E+02  2560   0.524E+01    0.121E+01
DAV:   3    -0.135200828225E+04    0.10147E+01   -0.26892E+01  2624   0.135E+01    0.851E+00
DAV:   4    -0.135051101415E+04    0.14973E+01   -0.91188E+00  2456   0.629E+00    0.428E+00
DAV:   5    -0.135024409695E+04    0.26692E+00   -0.27357E+00  2504   0.390E+00    0.281E+00
DAV:   6    -0.135016929870E+04    0.74798E-01   -0.25417E+00  2600   0.298E+00    0.156E+00
DAV:   7    -0.135016794246E+04    0.13562E-02   -0.54402E-01  2528   0.166E+00    0.120E+00
DAV:   8    -0.135016269966E+04    0.52428E-02   -0.26543E-01  2624   0.871E-01    0.534E-01
DAV:   9    -0.135016303904E+04   -0.33938E-03   -0.35648E-02  2616   0.462E-01    0.366E-01
DAV:  10    -0.135016134413E+04    0.16949E-02   -0.18722E-02  2560   0.306E-01    0.162E-01
DAV:  11    -0.135016237408E+04   -0.10299E-02   -0.12159E-02  2576   0.215E-01    0.163E-01
DAV:  12    -0.135016222930E+04    0.14478E-03   -0.20660E-03  2600   0.927E-02    0.942E-02
DAV:  13    -0.135016214469E+04    0.84601E-04   -0.17999E-03  2408   0.744E-02    0.219E-02
DAV:  14    -0.135016217264E+04   -0.27948E-04   -0.35307E-04  2296   0.438E-02    0.194E-02
DAV:  15    -0.135016218154E+04   -0.88927E-05   -0.67507E-05  2616   0.160E-02    0.172E-02
DAV:  16    -0.135016217848E+04    0.30549E-05   -0.21022E-05  2384   0.101E-02    0.119E-02
DAV:  17    -0.135016217844E+04    0.43336E-07   -0.23934E-05  2160   0.871E-03    0.357E-03
DAV:  18    -0.135016217844E+04   -0.71013E-08   -0.12761E-06  1032   0.462E-03
   2 F= -.13501622E+04 E0= -.13501622E+04  d E =-.199445E+02
 BRION: g(F)=  0.344E+02 g(S)=  0.000E+00 retain N=  1 mean eig= 0.58
 eig:   0.581
 bond charge predicted
       N       E                     dE             d eps       ncg     rms          rms(c)
DAV:   1    -0.134096844395E+04    0.91937E+01   -0.19966E+03  1440   0.618E+01    0.139E+01
DAV:   2    -0.135776382863E+04   -0.16795E+02   -0.20626E+02  2496   0.278E+01    0.105E+01
DAV:   3    -0.135730792279E+04    0.45591E+00   -0.16403E+01  2600   0.945E+00    0.854E+00
DAV:   4    -0.135624897041E+04    0.10590E+01   -0.85396E+00  2272   0.445E+00    0.409E+00
DAV:   5    -0.135636776852E+04   -0.11880E+00   -0.36965E+00  2296   0.341E+00    0.472E+00
DAV:   6    -0.135597476878E+04    0.39300E+00   -0.28501E+00  2448   0.314E+00    0.163E+00
DAV:   7    -0.135601900732E+04   -0.44239E-01   -0.12210E+00  2464   0.190E+00    0.134E+00
DAV:   8    -0.135600670157E+04    0.12306E-01   -0.21361E-01  2568   0.887E-01    0.842E-01
DAV:   9    -0.135599711993E+04    0.95816E-02   -0.77052E-02  2464   0.486E-01    0.360E-01
DAV:  10    -0.135599863964E+04   -0.15197E-02   -0.41445E-02  2528   0.319E-01    0.250E-01
DAV:  11    -0.135599789035E+04    0.74929E-03   -0.49828E-03  2544   0.176E-01    0.140E-01
DAV:  12    -0.135599793728E+04   -0.46933E-04   -0.43802E-03  2408   0.994E-02    0.623E-02
DAV:  13    -0.135599795244E+04   -0.15163E-04   -0.53395E-04  2592   0.545E-02    0.342E-02
DAV:  14    -0.135599795065E+04    0.17966E-05   -0.18647E-04  2480   0.261E-02    0.190E-02
DAV:  15    -0.135599795625E+04   -0.56007E-05   -0.91318E-05  2512   0.183E-02    0.127E-02
DAV:  16    -0.135599795598E+04    0.27241E-06   -0.22539E-05  2344   0.922E-03    0.659E-03
DAV:  17    -0.135599795570E+04    0.27663E-06   -0.37906E-06  1184   0.612E-03
   3 F= -.13559980E+04 E0= -.13559980E+04  d E =-.583578E+01
 BRION: g(F)=  0.672E+01 g(S)=  0.000E+00 retain N=  2 mean eig= 1.03
 eig:   0.382  1.671
 bond charge predicted
       N       E                     dE             d eps       ncg     rms          rms(c)
DAV:   1    -0.135765940263E+04   -0.16614E+01   -0.34155E+02  1376   0.263E+01    0.527E+00
DAV:   2    -0.135938306908E+04   -0.17237E+01   -0.19033E+01  2280   0.971E+00    0.247E+00
DAV:   3    -0.135940803146E+04   -0.24962E-01   -0.14757E+00  2624   0.230E+00    0.204E+00
DAV:   4    -0.135934615077E+04    0.61881E-01   -0.44810E-01  2520   0.137E+00    0.960E-01
DAV:   5    -0.135934272646E+04    0.34243E-02   -0.12855E-01  2456   0.819E-01    0.666E-01
DAV:   6    -0.135934131711E+04    0.14094E-02   -0.10660E-01  2512   0.577E-01    0.343E-01
DAV:   7    -0.135934121632E+04    0.10078E-03   -0.20092E-02  2488   0.296E-01    0.290E-01
DAV:   8    -0.135934069356E+04    0.52276E-03   -0.87206E-03  2352   0.162E-01    0.139E-01
DAV:   9    -0.135934066615E+04    0.27408E-04   -0.40350E-03  2544   0.110E-01    0.850E-02
DAV:  10    -0.135934074315E+04   -0.77000E-04   -0.13032E-03  2264   0.688E-02    0.877E-02
DAV:  11    -0.135934065208E+04    0.91075E-04   -0.55660E-04  2568   0.460E-02    0.401E-02
DAV:  12    -0.135934065450E+04   -0.24287E-05   -0.44955E-04  2520   0.365E-02    0.275E-02
DAV:  13    -0.135934065509E+04   -0.58932E-06   -0.87910E-05  2416   0.199E-02    0.180E-02
DAV:  14    -0.135934065293E+04    0.21650E-05   -0.43155E-05  2232   0.106E-02    0.668E-03
DAV:  15    -0.135934065314E+04   -0.21292E-06   -0.71336E-06  1552   0.678E-03
   4 F= -.13593407E+04 E0= -.13593407E+04  d E =-.334270E+01
 BRION: g(F)=  0.224E+01 g(S)=  0.000E+00 retain N=  3 mean eig= 0.87
 eig:   1.927  0.591  0.096
 bond charge predicted
       N       E                     dE             d eps       ncg     rms          rms(c)
DAV:   1    -0.136007097490E+04   -0.73032E+00   -0.20072E+02  1368   0.197E+01    0.286E+00
DAV:   2    -0.136104440259E+04   -0.97343E+00   -0.10471E+01  2304   0.755E+00    0.142E+00
DAV:   3    -0.136106948857E+04   -0.25086E-01   -0.73414E-01  2616   0.152E+00    0.118E+00
DAV:   4    -0.136104179452E+04    0.27694E-01   -0.13482E-01  2592   0.790E-01    0.673E-01
DAV:   5    -0.136103092584E+04    0.10869E-01   -0.55058E-02  2352   0.483E-01    0.332E-01
DAV:   6    -0.136103147157E+04   -0.54574E-03   -0.33376E-02  2448   0.359E-01    0.254E-01
DAV:   7    -0.136103118421E+04    0.28736E-03   -0.15913E-02  2312   0.225E-01    0.176E-01
DAV:   8    -0.136103124756E+04   -0.63350E-04   -0.56416E-03  2328   0.131E-01    0.995E-02
DAV:   9    -0.136103117260E+04    0.74959E-04   -0.12026E-03  2568   0.679E-02    0.721E-02
DAV:  10    -0.136103119658E+04   -0.23978E-04   -0.10887E-03  2520   0.563E-02    0.640E-02
DAV:  11    -0.136103114195E+04    0.54626E-04   -0.45364E-04  2504   0.430E-02    0.232E-02
DAV:  12    -0.136103115038E+04   -0.84240E-05   -0.17167E-04  2464   0.257E-02    0.179E-02
DAV:  13    -0.136103115014E+04    0.23808E-06   -0.57720E-05  2344   0.142E-02    0.116E-02
DAV:  14    -0.136103114973E+04    0.40411E-06   -0.21184E-05  2088   0.880E-03    0.801E-03
DAV:  15    -0.136103114946E+04    0.26851E-06   -0.71026E-06  1512   0.615E-03
   5 F= -.13610311E+04 E0= -.13610311E+04  d E =-.169050E+01
 BRION: g(F)=  0.110E+01 g(S)=  0.000E+00 retain N=  4 mean eig= 1.25
 eig:   1.744  1.744  0.763  0.763
 bond charge predicted
       N       E                     dE             d eps       ncg     rms          rms(c)
DAV:   1    -0.136148927291E+04   -0.45812E+00   -0.17833E+02  1360   0.191E+01    0.253E+00
DAV:   2    -0.136235603184E+04   -0.86676E+00   -0.91785E+00  2296   0.717E+00    0.128E+00
DAV:   3    -0.136239235078E+04   -0.36319E-01   -0.68164E-01  2600   0.144E+00    0.103E+00
DAV:   4    -0.136237278335E+04    0.19567E-01   -0.96376E-02  2576   0.699E-01    0.609E-01
DAV:   5    -0.136236434506E+04    0.84383E-02   -0.44429E-02  2376   0.457E-01    0.269E-01
DAV:   6    -0.136236543897E+04   -0.10939E-02   -0.25717E-02  2512   0.320E-01    0.227E-01
DAV:   7    -0.136236517490E+04    0.26407E-03   -0.99259E-03  2400   0.192E-01    0.160E-01
DAV:   8    -0.136236517540E+04   -0.50104E-06   -0.47174E-03  2472   0.119E-01    0.834E-02
DAV:   9    -0.136236512289E+04    0.52503E-04   -0.76558E-04  2488   0.622E-02    0.622E-02
DAV:  10    -0.136236512661E+04   -0.37117E-05   -0.81457E-04  2296   0.495E-02    0.464E-02
DAV:  11    -0.136236510706E+04    0.19542E-04   -0.25697E-04  2520   0.367E-02    0.186E-02
DAV:  12    -0.136236511694E+04   -0.98752E-05   -0.14686E-04  2448   0.215E-02    0.199E-02
DAV:  13    -0.136236511190E+04    0.50405E-05   -0.52388E-05  2240   0.142E-02    0.789E-03
DAV:  14    -0.136236511233E+04   -0.43634E-06   -0.12239E-05  1808   0.763E-03    0.416E-03
DAV:  15    -0.136236511245E+04   -0.11417E-06   -0.17236E-06   992   0.456E-03
   6 F= -.13623651E+04 E0= -.13623651E+04  d E =-.133396E+01
 BRION: g(F)=  0.705E+00 g(S)=  0.000E+00 retain N=  5 mean eig= 1.25
 eig:   1.739  1.739  1.043  1.043  0.710
 bond charge predicted
       N       E                     dE             d eps       ncg     rms          rms(c)
DAV:   1    -0.136277641723E+04   -0.41130E+00   -0.59903E+01  1376   0.111E+01    0.160E+00
DAV:   2    -0.136307588368E+04   -0.29947E+00   -0.31819E+00  2280   0.419E+00    0.784E-01
DAV:   3    -0.136309016147E+04   -0.14278E-01   -0.24902E-01  2616   0.874E-01    0.628E-01
DAV:   4    -0.136308383195E+04    0.63295E-02   -0.39320E-02  2552   0.441E-01    0.343E-01
DAV:   5    -0.136308260875E+04    0.12232E-02   -0.15837E-02  2456   0.260E-01    0.175E-01
DAV:   6    -0.136308285485E+04   -0.24610E-03   -0.68423E-03  2576   0.159E-01    0.112E-01
DAV:   7    -0.136308279734E+04    0.57508E-04   -0.21739E-03  2424   0.953E-02    0.747E-02
DAV:   8    -0.136308282522E+04   -0.27876E-04   -0.11167E-03  2456   0.583E-02    0.491E-02
DAV:   9    -0.136308280018E+04    0.25043E-04   -0.20426E-04  2560   0.324E-02    0.318E-02
DAV:  10    -0.136308280353E+04   -0.33515E-05   -0.23685E-04  2408   0.260E-02    0.225E-02
DAV:  11    -0.136308279991E+04    0.36210E-05   -0.66089E-05  2424   0.177E-02    0.829E-03
DAV:  12    -0.136308280151E+04   -0.16053E-05   -0.24073E-05  2168   0.982E-03    0.732E-03
DAV:  13    -0.136308280095E+04    0.56045E-06   -0.52666E-06  1352   0.624E-03
   7 F= -.13630828E+04 E0= -.13630828E+04  d E =-.717689E+00
 BRION: g(F)=  0.520E+00 g(S)=  0.000E+00 retain N=  6 mean eig= 1.70
 eig:   3.361  3.361  0.982  0.982  0.770  0.770
 bond charge predicted
       N       E                     dE             d eps       ncg     rms          rms(c)
DAV:   1    -0.136341401042E+04   -0.33121E+00   -0.65786E+01  1384   0.115E+01    0.147E+00
DAV:   2    -0.136375105015E+04   -0.33704E+00   -0.35862E+00  2280   0.445E+00    0.754E-01
DAV:   3    -0.136376893361E+04   -0.17883E-01   -0.28678E-01  2624   0.922E-01    0.603E-01
DAV:   4    -0.136376268526E+04    0.62484E-02   -0.33161E-02  2608   0.431E-01    0.376E-01
DAV:   5    -0.136375947151E+04    0.32137E-02   -0.16447E-02  2360   0.265E-01    0.151E-01
DAV:   6    -0.136375991229E+04   -0.44078E-03   -0.86485E-03  2496   0.178E-01    0.129E-01
DAV:   7    -0.136375987505E+04    0.37240E-04   -0.33255E-03  2472   0.111E-01    0.905E-02
DAV:   8    -0.136375986432E+04    0.10737E-04   -0.13874E-03  2592   0.681E-02    0.494E-02
DAV:   9    -0.136375984655E+04    0.17772E-04   -0.24127E-04  2568   0.352E-02    0.364E-02
DAV:  10    -0.136375984883E+04   -0.22796E-05   -0.22277E-04  2296   0.262E-02    0.241E-02
DAV:  11    -0.136375984472E+04    0.41104E-05   -0.66483E-05  2368   0.193E-02    0.103E-02
DAV:  12    -0.136375984766E+04   -0.29431E-05   -0.41167E-05  2312   0.116E-02    0.112E-02
DAV:  13    -0.136375984595E+04    0.17096E-05   -0.11390E-05  1736   0.739E-03    0.473E-03
DAV:  14    -0.136375984593E+04    0.18132E-07   -0.33638E-06  1144   0.545E-03
   8 F= -.13637598E+04 E0= -.13637598E+04  d E =-.677045E+00
 BRION: g(F)=  0.406E+00 g(S)=  0.000E+00 retain N=  7 mean eig= 2.08
 eig:   4.236  4.236  1.860  1.860  0.809  0.809  0.717
 bond charge predicted
       N       E                     dE             d eps       ncg     rms          rms(c)
DAV:   1    -0.136407521207E+04   -0.31537E+00   -0.49238E+01  1384   0.101E+01    0.123E+00
DAV:   2    -0.136433102276E+04   -0.25581E+00   -0.27230E+00  2304   0.396E+00    0.630E-01
DAV:   3    -0.136434596669E+04   -0.14944E-01   -0.22030E-01  2608   0.791E-01    0.506E-01
DAV:   4    -0.136434219900E+04    0.37677E-02   -0.23506E-02  2608   0.366E-01    0.337E-01
DAV:   5    -0.136433957699E+04    0.26220E-02   -0.11319E-02  2360   0.222E-01    0.137E-01
DAV:   6    -0.136433983751E+04   -0.26052E-03   -0.68991E-03  2448   0.162E-01    0.111E-01
DAV:   7    -0.136433983103E+04    0.64805E-05   -0.30651E-03  2416   0.106E-01    0.828E-02
DAV:   8    -0.136433982354E+04    0.74877E-05   -0.13165E-03  2600   0.660E-02    0.462E-02
DAV:   9    -0.136433980909E+04    0.14446E-04   -0.24754E-04  2536   0.345E-02    0.335E-02
DAV:  10    -0.136433980882E+04    0.27445E-06   -0.15062E-04  2536   0.220E-02    0.201E-02
DAV:  11    -0.136433980880E+04    0.14770E-07   -0.58321E-05  2416   0.162E-02    0.112E-02
DAV:  12    -0.136433980862E+04    0.18113E-06   -0.20764E-05  2248   0.106E-02    0.995E-03
DAV:  13    -0.136433980785E+04    0.77648E-06   -0.15400E-05  1824   0.721E-03    0.470E-03
DAV:  14    -0.136433980763E+04    0.21404E-06   -0.22018E-06  1016   0.500E-03
   9 F= -.13643398E+04 E0= -.13643398E+04  d E =-.579962E+00
 BRION: g(F)=  0.278E+00 g(S)=  0.000E+00 retain N=  8 mean eig= 2.86
 eig:   7.514  7.514  2.062  2.062  1.045  1.045  0.816  0.816
 bond charge predicted
       N       E                     dE             d eps       ncg     rms          rms(c)
DAV:   1    -0.136462191427E+04   -0.28211E+00   -0.64899E+01  1384   0.114E+01    0.142E+00
DAV:   2    -0.136496681527E+04   -0.34490E+00   -0.36743E+00  2296   0.457E+00    0.707E-01
DAV:   3    -0.136498708608E+04   -0.20271E-01   -0.29306E-01  2584   0.890E-01    0.572E-01
DAV:   4    -0.136498237025E+04    0.47158E-02   -0.30827E-02  2592   0.416E-01    0.386E-01
DAV:   5    -0.136497885545E+04    0.35148E-02   -0.13751E-02  2408   0.246E-01    0.155E-01
DAV:   6    -0.136497916329E+04   -0.30783E-03   -0.87324E-03  2432   0.177E-01    0.115E-01
DAV:   7    -0.136497919007E+04   -0.26781E-04   -0.36197E-03  2464   0.116E-01    0.897E-02
DAV:   8    -0.136497917644E+04    0.13628E-04   -0.14367E-03  2608   0.700E-02    0.501E-02
DAV:   9    -0.136497915816E+04    0.18283E-04   -0.34121E-04  2536   0.380E-02    0.344E-02
DAV:  10    -0.136497916307E+04   -0.49189E-05   -0.16753E-04  2544   0.241E-02    0.241E-02
DAV:  11    -0.136497916104E+04    0.20390E-05   -0.71316E-05  2376   0.175E-02    0.132E-02
DAV:  12    -0.136497916041E+04    0.62695E-06   -0.28617E-05  2328   0.124E-02    0.106E-02
DAV:  13    -0.136497916015E+04    0.26313E-06   -0.22831E-05  2096   0.832E-03    0.570E-03
DAV:  14    -0.136497915981E+04    0.33760E-06   -0.24085E-06  1024   0.511E-03
  10 F= -.13649792E+04 E0= -.13649792E+04  d E =-.639352E+00
 BRION: g(F)=  0.234E+00 g(S)=  0.000E+00 retain N=  7 mean eig= 3.30
 eig:   7.067  7.067  2.687  2.687  1.360  1.360  0.885
 bond charge predicted
       N       E                     dE             d eps       ncg     rms          rms(c)
DAV:   1    -0.136524059364E+04   -0.26143E+00   -0.50521E+01  1384   0.102E+01    0.121E+00
DAV:   2    -0.136551157612E+04   -0.27098E+00   -0.28917E+00  2312   0.410E+00    0.614E-01
DAV:   3    -0.136552730830E+04   -0.15732E-01   -0.22856E-01  2584   0.789E-01    0.502E-01
DAV:   4    -0.136552394142E+04    0.33669E-02   -0.22194E-02  2592   0.359E-01    0.359E-01
DAV:   5    -0.136552045596E+04    0.34855E-02   -0.10619E-02  2344   0.217E-01    0.152E-01
DAV:   6    -0.136552051452E+04   -0.58555E-04   -0.83792E-03  2328   0.172E-01    0.105E-01
DAV:   7    -0.136552058105E+04   -0.66534E-04   -0.35923E-03  2464   0.112E-01    0.891E-02
DAV:   8    -0.136552055077E+04    0.30276E-04   -0.12489E-03  2592   0.677E-02    0.491E-02
DAV:   9    -0.136552053016E+04    0.20618E-04   -0.36982E-04  2488   0.376E-02    0.301E-02
DAV:  10    -0.136552053742E+04   -0.72629E-05   -0.12476E-04  2544   0.213E-02    0.228E-02
DAV:  11    -0.136552053603E+04    0.13851E-05   -0.63287E-05  2384   0.159E-02    0.147E-02
DAV:  12    -0.136552053457E+04    0.14656E-05   -0.29272E-05  2280   0.122E-02    0.120E-02
DAV:  13    -0.136552053371E+04    0.86171E-06   -0.22096E-05  2016   0.825E-03    0.581E-03
DAV:  14    -0.136552053337E+04    0.33545E-06   -0.32972E-06  1152   0.525E-03
  11 F= -.13655205E+04 E0= -.13655205E+04  d E =-.541374E+00
 BRION: g(F)=  0.213E+00 g(S)=  0.000E+00 retain N=  7 mean eig= 3.70
 eig:   7.380  7.380  3.593  3.593  1.422  1.422  1.089
 bond charge predicted
       N       E                     dE             d eps       ncg     rms          rms(c)
DAV:   1    -0.136575777393E+04   -0.23724E+00   -0.32314E+01  1384   0.809E+00    0.951E-01
DAV:   2    -0.136592910771E+04   -0.17133E+00   -0.18227E+00  2296   0.324E+00    0.485E-01
DAV:   3    -0.136593872588E+04   -0.96182E-02   -0.14241E-01  2576   0.626E-01    0.391E-01
DAV:   4    -0.136593644613E+04    0.22798E-02   -0.13783E-02  2576   0.280E-01    0.279E-01
DAV:   5    -0.136593419649E+04    0.22496E-02   -0.67878E-03  2328   0.172E-01    0.116E-01
DAV:   6    -0.136593423639E+04   -0.39900E-04   -0.52099E-03  2312   0.136E-01    0.807E-02
DAV:   7    -0.136593428768E+04   -0.51291E-04   -0.22441E-03  2456   0.874E-02    0.686E-02
DAV:   8    -0.136593426888E+04    0.18803E-04   -0.70856E-04  2600   0.512E-02    0.373E-02
DAV:   9    -0.136593425601E+04    0.12867E-04   -0.22110E-04  2504   0.290E-02    0.228E-02
DAV:  10    -0.136593426051E+04   -0.45053E-05   -0.74621E-05  2512   0.168E-02    0.177E-02
DAV:  11    -0.136593425891E+04    0.15998E-05   -0.39425E-05  2328   0.124E-02    0.101E-02
DAV:  12    -0.136593425856E+04    0.35689E-06   -0.16077E-05  2016   0.923E-03    0.880E-03
DAV:  13    -0.136593425801E+04    0.54266E-06   -0.11636E-05  1728   0.653E-03    0.456E-03
DAV:  14    -0.136593425779E+04    0.21956E-06   -0.24454E-06  1072   0.470E-03
  12 F= -.13659343E+04 E0= -.13659343E+04  d E =-.413724E+00
 BRION: g(F)=  0.198E+00 g(S)=  0.000E+00 retain N=  5 mean eig= 4.32
 eig:   7.789  7.789  1.158  2.442  2.442
 bond charge predicted
       N       E                     dE             d eps       ncg     rms          rms(c)
DAV:   1    -0.136612861795E+04   -0.19436E+00   -0.50229E+01  1376   0.100E+01    0.113E+00
DAV:   2    -0.136639037018E+04   -0.26175E+00   -0.27616E+00  2304   0.399E+00    0.584E-01
DAV:   3    -0.136640547002E+04   -0.15100E-01   -0.21424E-01  2592   0.756E-01    0.478E-01
DAV:   4    -0.136640272330E+04    0.27467E-02   -0.18612E-02  2608   0.328E-01    0.357E-01
DAV:   5    -0.136639908650E+04    0.36368E-02   -0.90115E-03  2344   0.200E-01    0.164E-01
DAV:   6    -0.136639891571E+04    0.17078E-03   -0.89280E-03  2248   0.176E-01    0.101E-01
DAV:   7    -0.136639904855E+04   -0.13284E-03   -0.44803E-03  2464   0.120E-01    0.963E-02
DAV:   8    -0.136639900296E+04    0.45594E-04   -0.10832E-03  2560   0.687E-02    0.613E-02
DAV:   9    -0.136639895413E+04    0.48823E-04   -0.53278E-04  2464   0.415E-02    0.299E-02
DAV:  10    -0.136639896739E+04   -0.13254E-04   -0.17479E-04  2544   0.255E-02    0.238E-02
DAV:  11    -0.136639896611E+04    0.12795E-05   -0.65188E-05  2280   0.162E-02    0.171E-02
DAV:  12    -0.136639896447E+04    0.16414E-05   -0.48257E-05  2264   0.143E-02    0.154E-02
DAV:  13    -0.136639896267E+04    0.18000E-05   -0.28398E-05  2104   0.990E-03    0.910E-03
DAV:  14    -0.136639896211E+04    0.55679E-06   -0.76723E-06  1696   0.579E-03
  13 F= -.13663990E+04 E0= -.13663990E+04  d E =-.464704E+00
 BRION: g(F)=  0.181E+00 g(S)=  0.000E+00 retain N=  3 mean eig= 4.65
 eig:   5.981  5.981  1.995
 bond charge predicted
       N       E                     dE             d eps       ncg     rms          rms(c)
DAV:   1    -0.136661055653E+04   -0.21159E+00   -0.40990E+01  1384   0.907E+00    0.103E+00
DAV:   2    -0.136682112623E+04   -0.21057E+00   -0.22211E+00  2304   0.359E+00    0.536E-01
DAV:   3    -0.136683253399E+04   -0.11408E-01   -0.16920E-01  2600   0.694E-01    0.429E-01
DAV:   4    -0.136682972930E+04    0.28047E-02   -0.16301E-02  2608   0.298E-01    0.295E-01
DAV:   5    -0.136682741517E+04    0.23141E-02   -0.73087E-03  2352   0.179E-01    0.126E-01
DAV:   6    -0.136682744214E+04   -0.26976E-04   -0.52915E-03  2344   0.137E-01    0.818E-02
DAV:   7    -0.136682749441E+04   -0.52268E-04   -0.23585E-03  2440   0.910E-02    0.696E-02
DAV:   8    -0.136682747747E+04    0.16944E-04   -0.76289E-04  2560   0.532E-02    0.420E-02
DAV:   9    -0.136682746467E+04    0.12793E-04   -0.25410E-04  2504   0.306E-02    0.255E-02
DAV:  10    -0.136682746779E+04   -0.31112E-05   -0.89310E-05  2568   0.183E-02    0.184E-02
DAV:  11    -0.136682746616E+04    0.16269E-05   -0.36217E-05  2352   0.125E-02    0.960E-03
DAV:  12    -0.136682746615E+04    0.77853E-08   -0.19845E-05  2160   0.942E-03    0.847E-03
DAV:  13    -0.136682746560E+04    0.54734E-06   -0.98413E-06  1744   0.637E-03
  14 F= -.13668275E+04 E0= -.13668275E+04  d E =-.428503E+00
 BRION: g(F)=  0.166E+00 g(S)=  0.000E+00 retain N=  3 mean eig= 4.49
 eig:   5.704  5.704  2.056
 bond charge predicted
       N       E                     dE             d eps       ncg     rms          rms(c)
DAV:   1    -0.136701073794E+04   -0.18327E+00   -0.44825E+01  1384   0.946E+00    0.106E+00
DAV:   2    -0.136723845913E+04   -0.22772E+00   -0.24004E+00  2312   0.372E+00    0.551E-01
DAV:   3    -0.136725045158E+04   -0.11992E-01   -0.17968E-01  2576   0.728E-01    0.433E-01
DAV:   4    -0.136724736901E+04    0.30826E-02   -0.18054E-02  2536   0.310E-01    0.291E-01
DAV:   5    -0.136724519943E+04    0.21696E-02   -0.79084E-03  2352   0.182E-01    0.122E-01
DAV:   6    -0.136724525627E+04   -0.56842E-04   -0.49155E-03  2360   0.132E-01    0.797E-02
DAV:   7    -0.136724530594E+04   -0.49666E-04   -0.21999E-03  2440   0.890E-02    0.651E-02
DAV:   8    -0.136724530112E+04    0.48159E-05   -0.75512E-04  2608   0.524E-02    0.413E-02
DAV:   9    -0.136724528970E+04    0.11424E-04   -0.22943E-04  2528   0.299E-02    0.266E-02
DAV:  10    -0.136724529170E+04   -0.20025E-05   -0.10297E-04  2568   0.191E-02    0.183E-02
DAV:  11    -0.136724529013E+04    0.15717E-05   -0.42557E-05  2336   0.134E-02    0.891E-03
DAV:  12    -0.136724529008E+04    0.52532E-07   -0.17878E-05  2096   0.944E-03    0.757E-03
DAV:  13    -0.136724528985E+04    0.22823E-06   -0.93454E-06  1744   0.599E-03
  15 F= -.13672453E+04 E0= -.13672453E+04  d E =-.417824E+00
 BRION: g(F)=  0.146E+00 g(S)=  0.000E+00 retain N=  3 mean eig= 5.62
 eig:   7.323  7.323  2.217
 bond charge predicted
       N       E                     dE             d eps       ncg     rms          rms(c)
DAV:   1    -0.136739723183E+04   -0.15194E+00   -0.44589E+01  1376   0.949E+00    0.107E+00
DAV:   2    -0.136762266392E+04   -0.22543E+00   -0.23779E+00  2312   0.373E+00    0.554E-01
DAV:   3    -0.136763514953E+04   -0.12486E-01   -0.18225E-01  2584   0.717E-01    0.442E-01
DAV:   4    -0.136763236791E+04    0.27816E-02   -0.18034E-02  2576   0.312E-01    0.303E-01
DAV:   5    -0.136763010059E+04    0.22673E-02   -0.80955E-03  2352   0.182E-01    0.130E-01
DAV:   6    -0.136763014706E+04   -0.46469E-04   -0.52398E-03  2352   0.135E-01    0.879E-02
DAV:   7    -0.136763017904E+04   -0.31984E-04   -0.24304E-03  2472   0.938E-02    0.698E-02
DAV:   8    -0.136763016845E+04    0.10586E-04   -0.89875E-04  2584   0.571E-02    0.440E-02
DAV:   9    -0.136763015665E+04    0.11804E-04   -0.25034E-04  2504   0.311E-02    0.295E-02
DAV:  10    -0.136763015734E+04   -0.68845E-06   -0.99996E-05  2560   0.186E-02    0.193E-02
DAV:  11    -0.136763015658E+04    0.76226E-06   -0.42835E-05  2336   0.135E-02    0.110E-02
DAV:  12    -0.136763015586E+04    0.71670E-06   -0.20230E-05  2184   0.100E-02    0.882E-03
DAV:  13    -0.136763015546E+04    0.39442E-06   -0.12601E-05  1768   0.675E-03    0.451E-03
DAV:  14    -0.136763015523E+04    0.23475E-06   -0.19689E-06   992   0.481E-03
  16 F= -.13676302E+04 E0= -.13676302E+04  d E =-.384865E+00
 BRION: g(F)=  0.129E+00 g(S)=  0.000E+00 retain N=  3 mean eig= 4.91
 eig:   6.391  6.391  1.953
 bond charge predicted
       N       E                     dE             d eps       ncg     rms          rms(c)
DAV:   1    -0.136772866371E+04   -0.98508E-01   -0.43505E+01  1376   0.934E+00    0.105E+00
DAV:   2    -0.136794693047E+04   -0.21827E+00   -0.22983E+00  2296   0.363E+00    0.553E-01
DAV:   3    -0.136795853922E+04   -0.11609E-01   -0.17465E-01  2576   0.716E-01    0.433E-01
DAV:   4    -0.136795550249E+04    0.30367E-02   -0.18251E-02  2544   0.308E-01    0.288E-01
DAV:   5    -0.136795342232E+04    0.20802E-02   -0.73260E-03  2392   0.179E-01    0.125E-01
DAV:   6    -0.136795337354E+04    0.48779E-04   -0.46547E-03  2344   0.131E-01    0.719E-02
DAV:   7    -0.136795345916E+04   -0.85615E-04   -0.21334E-03  2448   0.882E-02    0.641E-02
DAV:   8    -0.136795344789E+04    0.11267E-04   -0.61931E-04  2608   0.478E-02    0.395E-02
DAV:   9    -0.136795343984E+04    0.80463E-05   -0.24733E-04  2536   0.298E-02    0.240E-02
DAV:  10    -0.136795344340E+04   -0.35586E-05   -0.89187E-05  2536   0.187E-02    0.193E-02
DAV:  11    -0.136795343983E+04    0.35684E-05   -0.41918E-05  2368   0.130E-02    0.785E-03
DAV:  12    -0.136795344042E+04   -0.58889E-06   -0.19224E-05  2016   0.905E-03    0.702E-03
DAV:  13    -0.136795343993E+04    0.49346E-06   -0.46506E-06  1344   0.548E-03
  17 F= -.13679534E+04 E0= -.13679534E+04  d E =-.323285E+00
 BRION: g(F)=  0.109E+00 g(S)=  0.000E+00 retain N=  3 mean eig= 4.70
 eig:   6.216  6.216  1.654
 bond charge predicted
       N       E                     dE             d eps       ncg     rms          rms(c)
DAV:   1    -0.136803801942E+04   -0.84579E-01   -0.29323E+01  1360   0.765E+00    0.859E-01
DAV:   2    -0.136818293170E+04   -0.14491E+00   -0.15230E+00  2296   0.295E+00    0.435E-01
DAV:   3    -0.136819097875E+04   -0.80471E-02   -0.11564E-01  2592   0.576E-01    0.343E-01
DAV:   4    -0.136818918394E+04    0.17948E-02   -0.10842E-02  2584   0.243E-01    0.237E-01
DAV:   5    -0.136818764987E+04    0.15341E-02   -0.52832E-03  2352   0.147E-01    0.943E-02
DAV:   6    -0.136818773577E+04   -0.85897E-04   -0.33425E-03  2416   0.106E-01    0.694E-02
DAV:   7    -0.136818775043E+04   -0.14660E-04   -0.13054E-03  2464   0.691E-02    0.519E-02
DAV:   8    -0.136818774503E+04    0.54000E-05   -0.49546E-04  2536   0.422E-02    0.316E-02
DAV:   9    -0.136818773795E+04    0.70760E-05   -0.11668E-04  2376   0.226E-02    0.217E-02
DAV:  10    -0.136818773811E+04   -0.15603E-06   -0.66206E-05  2432   0.147E-02    0.122E-02
DAV:  11    -0.136818773815E+04   -0.40935E-07   -0.18967E-05  2176   0.102E-02    0.653E-03
DAV:  12    -0.136818773829E+04   -0.14019E-06   -0.10343E-05  1752   0.692E-03    0.585E-03
DAV:  13    -0.136818773788E+04    0.41252E-06   -0.30009E-06  1152   0.502E-03
  18 F= -.13681877E+04 E0= -.13681877E+04  d E =-.234298E+00
 BRION: g(F)=  0.883E-01 g(S)=  0.000E+00 retain N=  3 mean eig= 4.79
 eig:   6.430  6.430  1.503
 bond charge predicted
       N       E                     dE             d eps       ncg     rms          rms(c)
DAV:   1    -0.136825628092E+04   -0.68543E-01   -0.22756E+01  1360   0.675E+00    0.751E-01
DAV:   2    -0.136836875374E+04   -0.11247E+00   -0.11806E+00  2288   0.260E+00    0.380E-01
DAV:   3    -0.136837502632E+04   -0.62726E-02   -0.89227E-02  2576   0.510E-01    0.305E-01
DAV:   4    -0.136837379161E+04    0.12347E-02   -0.84085E-03  2608   0.211E-01    0.218E-01
DAV:   5    -0.136837240146E+04    0.13901E-02   -0.39954E-03  2328   0.133E-01    0.915E-02
DAV:   6    -0.136837241728E+04   -0.15814E-04   -0.31087E-03  2328   0.104E-01    0.635E-02
DAV:   7    -0.136837244706E+04   -0.29787E-04   -0.13014E-03  2432   0.670E-02    0.528E-02
DAV:   8    -0.136837243377E+04    0.13292E-04   -0.42196E-04  2528   0.399E-02    0.299E-02
DAV:   9    -0.136837242642E+04    0.73488E-05   -0.12705E-04  2392   0.223E-02    0.186E-02
DAV:  10    -0.136837242840E+04   -0.19761E-05   -0.51653E-05  2448   0.132E-02    0.125E-02
DAV:  11    -0.136837242774E+04    0.65875E-06   -0.17781E-05  2064   0.965E-03    0.724E-03
DAV:  12    -0.136837242776E+04   -0.14727E-07   -0.11468E-05  1776   0.711E-03    0.655E-03
DAV:  13    -0.136837242726E+04    0.49821E-06   -0.39245E-06  1264   0.513E-03
  19 F= -.13683724E+04 E0= -.13683724E+04  d E =-.184689E+00
 BRION: g(F)=  0.769E-01 g(S)=  0.000E+00 retain N=  3 mean eig= 4.94
 eig:   6.640  6.640  1.530
 bond charge predicted
       N       E                     dE             d eps       ncg     rms          rms(c)
DAV:   1    -0.136837227786E+04    0.14989E-03   -0.44958E+01  1368   0.943E+00    0.105E+00
DAV:   2    -0.136859415728E+04   -0.22188E+00   -0.23215E+00  2280   0.362E+00    0.526E-01
DAV:   3    -0.136860638751E+04   -0.12230E-01   -0.17296E-01  2584   0.705E-01    0.420E-01
DAV:   4    -0.136860400958E+04    0.23779E-02   -0.15744E-02  2600   0.290E-01    0.304E-01
DAV:   5    -0.136860114469E+04    0.28649E-02   -0.75091E-03  2296   0.185E-01    0.124E-01
DAV:   6    -0.136860121538E+04   -0.70689E-04   -0.63749E-03  2336   0.146E-01    0.841E-02
DAV:   7    -0.136860127563E+04   -0.60255E-04   -0.22593E-03  2424   0.884E-02    0.713E-02
DAV:   8    -0.136860125998E+04    0.15654E-04   -0.73797E-04  2576   0.510E-02    0.402E-02
DAV:   9    -0.136860123897E+04    0.21005E-04   -0.23032E-04  2344   0.301E-02    0.238E-02
DAV:  10    -0.136860124375E+04   -0.47734E-05   -0.95341E-05  2360   0.181E-02    0.163E-02
DAV:  11    -0.136860124174E+04    0.20082E-05   -0.27139E-05  2312   0.116E-02    0.726E-03
DAV:  12    -0.136860124238E+04   -0.63980E-06   -0.14913E-05  1944   0.792E-03    0.641E-03
DAV:  13    -0.136860124186E+04    0.51636E-06   -0.40541E-06  1280   0.546E-03
  20 F= -.13686012E+04 E0= -.13686012E+04  d E =-.228815E+00
 BRION: g(F)=  0.651E-01 g(S)=  0.000E+00 retain N=  2 mean eig= 4.55
 eig:   4.545  4.545
