 running on  160 total cores
 distrk:  each k-point on  160 cores,    1 groups
 distr:  one band on   20 cores,    8 groups
 using from now: INCAR     
 vasp.5.4.4.18Apr17-6-g9f103f2a35 (build May 01 2020 14:22:42) gamma-only       
  
 POSCAR found type information on POSCAR  O  La Zr Li Al
 POSCAR found :  5 types and     190 ions
 scaLAPACK will be used
 LDA part: xc-table for Pade appr. of Perdew
 POSCAR, INCAR and KPOINTS ok, starting setup
 FFT: planning ...
 WAVECAR not read
 WARNING: random wavefunctions but no delay for mixing, default for NELMDL
 entering main loop
       N       E                     dE             d eps       ncg     rms          rms(c)
DAV:   1     0.252977766670E+05    0.25298E+05   -0.42229E+05  1584   0.253E+03
DAV:   2     0.934845200619E+04   -0.15949E+05   -0.14707E+05  1432   0.706E+02
DAV:   3     0.265524028927E+04   -0.66932E+04   -0.60934E+04  1496   0.356E+02
DAV:   4    -0.379226549067E+03   -0.30345E+04   -0.28404E+04  2040   0.222E+02
DAV:   5    -0.140928522932E+04   -0.10301E+04   -0.98913E+03  2544   0.139E+02    0.116E+02
DAV:   6    -0.130214012416E+04    0.10715E+03   -0.14910E+03  2424   0.668E+01    0.504E+01
DAV:   7    -0.132520991354E+04   -0.23070E+02   -0.40831E+02  2560   0.345E+01    0.261E+01
DAV:   8    -0.132914117548E+04   -0.39313E+01   -0.21584E+02  2552   0.261E+01    0.218E+01
DAV:   9    -0.132758307485E+04    0.15581E+01   -0.31351E+01  2584   0.127E+01    0.956E+00
DAV:  10    -0.132723881589E+04    0.34426E+00   -0.17566E+01  2544   0.680E+00    0.622E+00
DAV:  11    -0.132771251236E+04   -0.47370E+00   -0.52242E+00  2600   0.399E+00    0.490E+00
DAV:  12    -0.132789102596E+04   -0.17851E+00   -0.27504E+00  2456   0.277E+00    0.434E+00
DAV:  13    -0.132762347864E+04    0.26755E+00   -0.20760E+00  2480   0.254E+00    0.160E+00
DAV:  14    -0.132764096785E+04   -0.17489E-01   -0.39420E-01  2576   0.129E+00    0.138E+00
DAV:  15    -0.132764046358E+04    0.50427E-03   -0.81229E-02  2624   0.584E-01    0.899E-01
DAV:  16    -0.132762986360E+04    0.10600E-01   -0.42229E-02  2560   0.319E-01    0.535E-01
DAV:  17    -0.132762791176E+04    0.19518E-02   -0.13971E-02  2576   0.219E-01    0.402E-01
DAV:  18    -0.132762642560E+04    0.14862E-02   -0.47977E-03  2600   0.121E-01    0.282E-01
DAV:  19    -0.132762515525E+04    0.12704E-02   -0.31808E-03  2448   0.105E-01    0.158E-01
DAV:  20    -0.132762493418E+04    0.22107E-03   -0.17512E-03  2464   0.662E-02    0.627E-02
DAV:  21    -0.132762493585E+04   -0.16655E-05   -0.40105E-04  2616   0.381E-02    0.623E-02
DAV:  22    -0.132762489575E+04    0.40098E-04   -0.42224E-04  2168   0.316E-02    0.172E-02
DAV:  23    -0.132762489958E+04   -0.38273E-05   -0.12070E-04  2472   0.193E-02    0.736E-03
DAV:  24    -0.132762490152E+04   -0.19437E-05   -0.28350E-05  2128   0.103E-02    0.596E-03
DAV:  25    -0.132762490526E+04   -0.37401E-05   -0.91765E-06  1328   0.690E-03    0.301E-03
DAV:  26    -0.132762490558E+04   -0.32094E-06   -0.34069E-06  1088   0.539E-03
   1 F= -.13276249E+04 E0= -.13276146E+04  d E =-.132762E+04
 BRION: g(F)=  0.594E+02 g(S)=  0.000E+00
 bond charge predicted
       N       E                     dE             d eps       ncg     rms          rms(c)
DAV:   1    -0.128434672546E+04    0.43278E+02   -0.79126E+03  1688   0.131E+02    0.311E+01
DAV:   2    -0.134832094360E+04   -0.63974E+02   -0.74552E+02  2552   0.596E+01    0.150E+01
DAV:   3    -0.134670402945E+04    0.16169E+01   -0.43745E+01  2608   0.165E+01    0.100E+01
DAV:   4    -0.134442866074E+04    0.22754E+01   -0.15302E+01  2416   0.807E+00    0.469E+00
DAV:   5    -0.134423978799E+04    0.18887E+00   -0.45792E+00  2520   0.473E+00    0.343E+00
DAV:   6    -0.134413166050E+04    0.10813E+00   -0.29138E+00  2584   0.304E+00    0.175E+00
DAV:   7    -0.134410627296E+04    0.25388E-01   -0.41918E-01  2536   0.166E+00    0.974E-01
DAV:   8    -0.134410990375E+04   -0.36308E-02   -0.31698E-01  2616   0.978E-01    0.669E-01
DAV:   9    -0.134411064006E+04   -0.73631E-03   -0.52756E-02  2584   0.496E-01    0.505E-01
DAV:  10    -0.134410789614E+04    0.27439E-02   -0.35356E-02  2568   0.346E-01    0.199E-01
DAV:  11    -0.134410886739E+04   -0.97124E-03   -0.14948E-02  2544   0.236E-01    0.182E-01
DAV:  12    -0.134410886864E+04   -0.12526E-05   -0.26861E-03  2616   0.115E-01    0.125E-01
DAV:  13    -0.134410868952E+04    0.17911E-03   -0.23887E-03  2344   0.876E-02    0.270E-02
DAV:  14    -0.134410874362E+04   -0.54094E-04   -0.57176E-04  2352   0.525E-02    0.197E-02
DAV:  15    -0.134410875708E+04   -0.13463E-04   -0.10381E-04  2624   0.199E-02    0.216E-02
DAV:  16    -0.134410875086E+04    0.62210E-05   -0.37973E-05  2624   0.133E-02    0.131E-02
DAV:  17    -0.134410875299E+04   -0.21301E-05   -0.45054E-05  2512   0.115E-02    0.750E-03
DAV:  18    -0.134410875178E+04    0.12129E-05   -0.42659E-06  1304   0.648E-03    0.421E-03
DAV:  19    -0.134410875271E+04   -0.93083E-06   -0.15618E-05  1608   0.660E-03    0.492E-03
DAV:  20    -0.134410875231E+04    0.40134E-06   -0.11373E-06   992   0.435E-03
   2 F= -.13441088E+04 E0= -.13441088E+04  d E =-.164838E+02
 BRION: g(F)=  0.106E+03 g(S)=  0.000E+00 retain N=  1 mean eig= 0.40
 eig:   0.399
 bond charge predicted
       N       E                     dE             d eps       ncg     rms          rms(c)
DAV:   1    -0.132746066310E+04    0.16648E+02   -0.23076E+03  1320   0.614E+01    0.214E+01
DAV:   2    -0.135690123699E+04   -0.29441E+02   -0.38254E+02  2560   0.310E+01    0.189E+01
DAV:   3    -0.135407413736E+04    0.28271E+01   -0.37930E+01  2576   0.120E+01    0.145E+01
DAV:   4    -0.135157672037E+04    0.24974E+01   -0.34823E+01  2160   0.598E+00    0.673E+00
DAV:   5    -0.135214026315E+04   -0.56354E+00   -0.64185E+00  2432   0.372E+00    0.726E+00
DAV:   6    -0.135122797276E+04    0.91229E+00   -0.89818E+00  2504   0.317E+00    0.158E+00
DAV:   7    -0.135128827751E+04   -0.60305E-01   -0.11592E+00  2440   0.235E+00    0.150E+00
DAV:   8    -0.135126155836E+04    0.26719E-01   -0.42981E-01  2536   0.107E+00    0.635E-01
DAV:   9    -0.135126128019E+04    0.27818E-03   -0.87849E-02  2528   0.587E-01    0.315E-01
DAV:  10    -0.135126269189E+04   -0.14117E-02   -0.28780E-02  2576   0.299E-01    0.251E-01
DAV:  11    -0.135126232752E+04    0.36437E-03   -0.52693E-03  2608   0.173E-01    0.197E-01
DAV:  12    -0.135126191339E+04    0.41413E-03   -0.58738E-03  2360   0.119E-01    0.533E-02
DAV:  13    -0.135126205564E+04   -0.14225E-03   -0.15411E-03  2568   0.732E-02    0.592E-02
DAV:  14    -0.135126202438E+04    0.31267E-04   -0.20132E-04  2584   0.345E-02    0.432E-02
DAV:  15    -0.135126201033E+04    0.14044E-04   -0.30441E-04  2312   0.271E-02    0.113E-02
DAV:  16    -0.135126201392E+04   -0.35869E-05   -0.51900E-05  2480   0.161E-02    0.460E-03
DAV:  17    -0.135126201511E+04   -0.11922E-05   -0.10023E-05  1920   0.732E-03    0.603E-03
DAV:  18    -0.135126201461E+04    0.50000E-06   -0.12374E-06  1072   0.395E-03
   3 F= -.13512620E+04 E0= -.13512620E+04  d E =-.715326E+01
 BRION: g(F)=  0.179E+02 g(S)=  0.000E+00 retain N=  2 mean eig= 1.30
 eig:   0.219  2.386
 bond charge predicted
       N       E                     dE             d eps       ncg     rms          rms(c)
DAV:   1    -0.135037091686E+04    0.89110E+00   -0.74923E+02  1376   0.308E+01    0.822E+00
DAV:   2    -0.135559068779E+04   -0.52198E+01   -0.64281E+01  2480   0.151E+01    0.507E+00
DAV:   3    -0.135528887401E+04    0.30181E+00   -0.39539E+00  2480   0.468E+00    0.394E+00
DAV:   4    -0.135503467252E+04    0.25420E+00   -0.27064E+00  2208   0.227E+00    0.164E+00
DAV:   5    -0.135504204956E+04   -0.73770E-02   -0.53884E-01  2416   0.139E+00    0.178E+00
DAV:   6    -0.135498756417E+04    0.54485E-01   -0.36310E-01  2400   0.113E+00    0.676E-01
DAV:   7    -0.135499440251E+04   -0.68383E-02   -0.23584E-01  2408   0.715E-01    0.612E-01
DAV:   8    -0.135499394391E+04    0.45860E-03   -0.38153E-02  2560   0.343E-01    0.516E-01
DAV:   9    -0.135498988103E+04    0.40629E-02   -0.17240E-02  2480   0.216E-01    0.206E-01
DAV:  10    -0.135499012517E+04   -0.24414E-03   -0.12455E-02  2464   0.157E-01    0.110E-01
DAV:  11    -0.135499000690E+04    0.11827E-03   -0.12681E-03  2544   0.819E-02    0.710E-02
DAV:  12    -0.135498999372E+04    0.13185E-04   -0.86422E-04  2448   0.435E-02    0.202E-02
DAV:  13    -0.135499000568E+04   -0.11963E-04   -0.12498E-04  2584   0.219E-02    0.162E-02
DAV:  14    -0.135499000512E+04    0.56396E-06   -0.30557E-05  2520   0.115E-02    0.137E-02
DAV:  15    -0.135499000346E+04    0.16558E-05   -0.16586E-05  1944   0.766E-03    0.723E-03
DAV:  16    -0.135499000298E+04    0.48568E-06   -0.61265E-06  1424   0.534E-03
   4 F= -.13549900E+04 E0= -.13549900E+04  d E =-.372799E+01
 BRION: g(F)=  0.511E+01 g(S)=  0.000E+00 retain N=  3 mean eig= 2.69
 eig:   7.276  0.394  0.394
 bond charge predicted
       N       E                     dE             d eps       ncg     rms          rms(c)
DAV:   1    -0.135614376154E+04   -0.11538E+01   -0.31358E+02  1368   0.239E+01    0.426E+00
DAV:   2    -0.135764879395E+04   -0.15050E+01   -0.16169E+01  2272   0.883E+00    0.208E+00
DAV:   3    -0.135766313773E+04   -0.14344E-01   -0.10568E+00  2608   0.186E+00    0.168E+00
DAV:   4    -0.135760884092E+04    0.54297E-01   -0.32148E-01  2512   0.110E+00    0.776E-01
DAV:   5    -0.135760715037E+04    0.16906E-02   -0.10578E-01  2488   0.644E-01    0.562E-01
DAV:   6    -0.135760577468E+04    0.13757E-02   -0.72982E-02  2592   0.467E-01    0.262E-01
DAV:   7    -0.135760565317E+04    0.12151E-03   -0.13883E-02  2464   0.242E-01    0.223E-01
DAV:   8    -0.135760534383E+04    0.30934E-03   -0.60051E-03  2352   0.131E-01    0.103E-01
DAV:   9    -0.135760536006E+04   -0.16233E-04   -0.30719E-03  2424   0.896E-02    0.651E-02
DAV:  10    -0.135760536364E+04   -0.35831E-05   -0.58577E-04  2336   0.494E-02    0.522E-02
DAV:  11    -0.135760534321E+04    0.20431E-04   -0.37526E-04  2448   0.333E-02    0.199E-02
DAV:  12    -0.135760534842E+04   -0.52041E-05   -0.13160E-04  2456   0.213E-02    0.128E-02
DAV:  13    -0.135760534973E+04   -0.13156E-05   -0.24039E-05  2216   0.109E-02    0.885E-03
DAV:  14    -0.135760534963E+04    0.10371E-06   -0.13902E-05  1728   0.664E-03    0.392E-03
DAV:  15    -0.135760534953E+04    0.94442E-07   -0.18969E-06  1032   0.501E-03
   5 F= -.13576053E+04 E0= -.13576053E+04  d E =-.261535E+01
 BRION: g(F)=  0.243E+01 g(S)=  0.000E+00 retain N=  4 mean eig= 2.10
 eig:   6.907  0.293  0.604  0.604
 bond charge predicted
       N       E                     dE             d eps       ncg     rms          rms(c)
DAV:   1    -0.135820510077E+04   -0.59975E+00   -0.22771E+02  1376   0.208E+01    0.318E+00
DAV:   2    -0.135934856928E+04   -0.11435E+01   -0.12187E+01  2296   0.759E+00    0.165E+00
DAV:   3    -0.135938861269E+04   -0.40043E-01   -0.86678E-01  2592   0.165E+00    0.144E+00
DAV:   4    -0.135936005035E+04    0.28562E-01   -0.15114E-01  2592   0.811E-01    0.839E-01
DAV:   5    -0.135934874427E+04    0.11306E-01   -0.98726E-02  2304   0.586E-01    0.440E-01
DAV:   6    -0.135934997499E+04   -0.12307E-02   -0.40009E-02  2536   0.390E-01    0.413E-01
DAV:   7    -0.135934823042E+04    0.17446E-02   -0.23823E-02  2472   0.265E-01    0.200E-01
DAV:   8    -0.135934813030E+04    0.10011E-03   -0.49464E-03  2544   0.139E-01    0.101E-01
DAV:   9    -0.135934811093E+04    0.19377E-04   -0.97834E-04  2576   0.609E-02    0.619E-02
DAV:  10    -0.135934813472E+04   -0.23795E-04   -0.47934E-04  2272   0.388E-02    0.385E-02
DAV:  11    -0.135934811898E+04    0.15744E-04   -0.17511E-04  2584   0.262E-02    0.174E-02
DAV:  12    -0.135934812342E+04   -0.44411E-05   -0.95218E-05  2456   0.177E-02    0.154E-02
DAV:  13    -0.135934812152E+04    0.18968E-05   -0.27182E-05  2272   0.105E-02    0.767E-03
DAV:  14    -0.135934812162E+04   -0.95912E-07   -0.10937E-05  1864   0.634E-03    0.302E-03
DAV:  15    -0.135934812176E+04   -0.14137E-06   -0.13907E-06  1032   0.393E-03
   6 F= -.13593481E+04 E0= -.13593481E+04  d E =-.174277E+01
 BRION: g(F)=  0.169E+01 g(S)=  0.000E+00 retain N=  5 mean eig= 1.93
 eig:   6.868  0.550  0.821  0.821  0.606
 bond charge predicted
       N       E                     dE             d eps       ncg     rms          rms(c)
DAV:   1    -0.135982084232E+04   -0.47272E+00   -0.17183E+02  1376   0.181E+01    0.263E+00
DAV:   2    -0.136068545111E+04   -0.86461E+00   -0.90966E+00  2288   0.675E+00    0.134E+00
DAV:   3    -0.136071595807E+04   -0.30507E-01   -0.64691E-01  2600   0.137E+00    0.108E+00
DAV:   4    -0.136069311182E+04    0.22846E-01   -0.11088E-01  2544   0.709E-01    0.588E-01
DAV:   5    -0.136068748180E+04    0.56300E-02   -0.50320E-02  2432   0.443E-01    0.294E-01
DAV:   6    -0.136068832428E+04   -0.84247E-03   -0.24391E-02  2568   0.288E-01    0.197E-01
DAV:   7    -0.136068807870E+04    0.24558E-03   -0.59795E-03  2472   0.158E-01    0.137E-01
DAV:   8    -0.136068805472E+04    0.23978E-04   -0.27549E-03  2504   0.881E-02    0.663E-02
DAV:   9    -0.136068802414E+04    0.30579E-04   -0.53921E-04  2616   0.488E-02    0.421E-02
DAV:  10    -0.136068803910E+04   -0.14960E-04   -0.32210E-04  2464   0.320E-02    0.325E-02
DAV:  11    -0.136068802986E+04    0.92421E-05   -0.13685E-04  2528   0.233E-02    0.133E-02
DAV:  12    -0.136068803076E+04   -0.89739E-06   -0.47771E-05  2376   0.144E-02    0.927E-03
DAV:  13    -0.136068803101E+04   -0.25747E-06   -0.17427E-05  2072   0.822E-03    0.580E-03
DAV:  14    -0.136068803076E+04    0.25349E-06   -0.28329E-06  1080   0.526E-03
   7 F= -.13606880E+04 E0= -.13606880E+04  d E =-.133991E+01
 BRION: g(F)=  0.888E+00 g(S)=  0.000E+00 retain N=  6 mean eig= 2.04
 eig:   7.020  1.828  1.828  0.330  0.632  0.632
 bond charge predicted
       N       E                     dE             d eps       ncg     rms          rms(c)
DAV:   1    -0.136102631200E+04   -0.33828E+00   -0.10796E+02  1392   0.145E+01    0.201E+00
DAV:   2    -0.136159211397E+04   -0.56580E+00   -0.59580E+00  2304   0.562E+00    0.103E+00
DAV:   3    -0.136161765171E+04   -0.25538E-01   -0.44554E-01  2616   0.111E+00    0.842E-01
DAV:   4    -0.136160531811E+04    0.12334E-01   -0.59240E-02  2560   0.548E-01    0.493E-01
DAV:   5    -0.136160097837E+04    0.43397E-02   -0.28871E-02  2376   0.337E-01    0.203E-01
DAV:   6    -0.136160183896E+04   -0.86059E-03   -0.13593E-02  2544   0.214E-01    0.162E-01
DAV:   7    -0.136160166561E+04    0.17335E-03   -0.40439E-03  2480   0.125E-01    0.107E-01
DAV:   8    -0.136160165592E+04    0.96930E-05   -0.18742E-03  2528   0.757E-02    0.560E-02
DAV:   9    -0.136160163335E+04    0.22565E-04   -0.28180E-04  2496   0.386E-02    0.399E-02
DAV:  10    -0.136160163953E+04   -0.61806E-05   -0.31818E-04  2320   0.309E-02    0.270E-02
DAV:  11    -0.136160163468E+04    0.48496E-05   -0.93057E-05  2440   0.220E-02    0.118E-02
DAV:  12    -0.136160163775E+04   -0.30727E-05   -0.50840E-05  2328   0.123E-02    0.110E-02
DAV:  13    -0.136160163622E+04    0.15331E-05   -0.12941E-05  1872   0.792E-03    0.474E-03
DAV:  14    -0.136160163630E+04   -0.74986E-07   -0.33031E-06  1160   0.528E-03
   8 F= -.13616016E+04 E0= -.13616016E+04  d E =-.913606E+00
 BRION: g(F)=  0.559E+00 g(S)=  0.000E+00 retain N=  6 mean eig= 1.03
 eig:   2.166  2.166  0.265  0.265  0.660  0.660
 bond charge predicted
       N       E                     dE             d eps       ncg     rms          rms(c)
DAV:   1    -0.136195871518E+04   -0.35708E+00   -0.50529E+01  1392   0.100E+01    0.144E+00
DAV:   2    -0.136222078836E+04   -0.26207E+00   -0.27578E+00  2288   0.396E+00    0.693E-01
DAV:   3    -0.136223380870E+04   -0.13020E-01   -0.20775E-01  2600   0.748E-01    0.548E-01
DAV:   4    -0.136222827423E+04    0.55345E-02   -0.27233E-02  2528   0.381E-01    0.297E-01
DAV:   5    -0.136222745608E+04    0.81815E-03   -0.14065E-02  2400   0.237E-01    0.135E-01
DAV:   6    -0.136222775772E+04   -0.30163E-03   -0.54140E-03  2536   0.136E-01    0.931E-02
DAV:   7    -0.136222773072E+04    0.26997E-04   -0.12630E-03  2616   0.767E-02    0.628E-02
DAV:   8    -0.136222771462E+04    0.16103E-04   -0.45016E-04  2624   0.409E-02    0.318E-02
DAV:   9    -0.136222771708E+04   -0.24588E-05   -0.10143E-04  2568   0.235E-02    0.171E-02
DAV:  10    -0.136222772086E+04   -0.37865E-05   -0.55057E-05  2560   0.144E-02    0.117E-02
DAV:  11    -0.136222771953E+04    0.13304E-05   -0.15150E-05  2008   0.863E-03    0.595E-03
DAV:  12    -0.136222771976E+04   -0.22327E-06   -0.61342E-06  1512   0.582E-03
   9 F= -.13622277E+04 E0= -.13622277E+04  d E =-.626083E+00
 BRION: g(F)=  0.462E+00 g(S)=  0.000E+00 retain N=  7 mean eig= 1.23
 eig:   2.407  2.407  1.205  1.205  0.362  0.362  0.648
 bond charge predicted
       N       E                     dE             d eps       ncg     rms          rms(c)
DAV:   1    -0.136256678626E+04   -0.33907E+00   -0.78321E+01  1392   0.126E+01    0.154E+00
DAV:   2    -0.136298061882E+04   -0.41383E+00   -0.43861E+00  2296   0.507E+00    0.779E-01
DAV:   3    -0.136300580004E+04   -0.25181E-01   -0.34696E-01  2592   0.968E-01    0.637E-01
DAV:   4    -0.136300068235E+04    0.51177E-02   -0.33495E-02  2608   0.440E-01    0.436E-01
DAV:   5    -0.136299683015E+04    0.38522E-02   -0.20372E-02  2296   0.282E-01    0.164E-01
DAV:   6    -0.136299765529E+04   -0.82514E-03   -0.10503E-02  2528   0.193E-01    0.160E-01
DAV:   7    -0.136299750312E+04    0.15217E-03   -0.42200E-03  2544   0.121E-01    0.102E-01
DAV:   8    -0.136299743970E+04    0.63423E-04   -0.15654E-03  2608   0.774E-02    0.500E-02
DAV:   9    -0.136299742863E+04    0.11068E-04   -0.25994E-04  2392   0.359E-02    0.356E-02
DAV:  10    -0.136299743736E+04   -0.87343E-05   -0.16188E-04  2456   0.230E-02    0.190E-02
DAV:  11    -0.136299743573E+04    0.16301E-05   -0.47255E-05  2424   0.160E-02    0.950E-03
DAV:  12    -0.136299743810E+04   -0.23619E-05   -0.27984E-05  2320   0.103E-02    0.113E-02
DAV:  13    -0.136299743623E+04    0.18683E-05   -0.99212E-06  1600   0.680E-03    0.497E-03
DAV:  14    -0.136299743615E+04    0.78900E-07   -0.34460E-06  1160   0.582E-03
  10 F= -.13629974E+04 E0= -.13629974E+04  d E =-.769716E+00
 BRION: g(F)=  0.354E+00 g(S)=  0.000E+00 retain N=  8 mean eig= 1.95
 eig:   4.059  4.059  2.525  2.525  0.413  0.413  0.798  0.798
 bond charge predicted
       N       E                     dE             d eps       ncg     rms          rms(c)
DAV:   1    -0.136327159184E+04   -0.27416E+00   -0.96528E+01  1392   0.141E+01    0.165E+00
DAV:   2    -0.136378392511E+04   -0.51233E+00   -0.54244E+00  2304   0.569E+00    0.837E-01
DAV:   3    -0.136381414885E+04   -0.30224E-01   -0.42293E-01  2584   0.108E+00    0.683E-01
DAV:   4    -0.136380820966E+04    0.59392E-02   -0.39769E-02  2624   0.480E-01    0.487E-01
DAV:   5    -0.136380211516E+04    0.60945E-02   -0.21174E-02  2304   0.311E-01    0.199E-01
DAV:   6    -0.136380271484E+04   -0.59967E-03   -0.16150E-02  2368   0.241E-01    0.168E-01
DAV:   7    -0.136380267348E+04    0.41358E-04   -0.64950E-03  2472   0.151E-01    0.128E-01
DAV:   8    -0.136380260309E+04    0.70384E-04   -0.24088E-03  2592   0.942E-02    0.661E-02
DAV:   9    -0.136380255786E+04    0.45234E-04   -0.58593E-04  2304   0.496E-02    0.417E-02
DAV:  10    -0.136380257098E+04   -0.13125E-04   -0.27063E-04  2424   0.305E-02    0.274E-02
DAV:  11    -0.136380256806E+04    0.29226E-05   -0.92205E-05  2456   0.214E-02    0.160E-02
DAV:  12    -0.136380256955E+04   -0.14852E-05   -0.48553E-05  2344   0.144E-02    0.162E-02
DAV:  13    -0.136380256658E+04    0.29685E-05   -0.29369E-05  2072   0.984E-03    0.712E-03
DAV:  14    -0.136380256651E+04    0.66604E-07   -0.66214E-06  1456   0.590E-03
  11 F= -.13638026E+04 E0= -.13638026E+04  d E =-.805130E+00
 BRION: g(F)=  0.256E+00 g(S)=  0.000E+00 retain N=  9 mean eig= 2.47
 eig:   5.282  5.282  3.870  3.870  1.243  1.243  0.437  0.437  0.550
 bond charge predicted
       N       E                     dE             d eps       ncg     rms          rms(c)
DAV:   1    -0.136406375266E+04   -0.26119E+00   -0.66892E+01  1400   0.118E+01    0.140E+00
DAV:   2    -0.136441886214E+04   -0.35511E+00   -0.37694E+00  2296   0.475E+00    0.703E-01
DAV:   3    -0.136443971569E+04   -0.20854E-01   -0.29337E-01  2568   0.912E-01    0.573E-01
DAV:   4    -0.136443544395E+04    0.42717E-02   -0.28830E-02  2608   0.408E-01    0.406E-01
DAV:   5    -0.136443120222E+04    0.42417E-02   -0.15454E-02  2320   0.269E-01    0.165E-01
DAV:   6    -0.136443170050E+04   -0.49828E-03   -0.11326E-02  2408   0.204E-01    0.145E-01
DAV:   7    -0.136443164907E+04    0.51428E-04   -0.42543E-03  2456   0.123E-01    0.110E-01
DAV:   8    -0.136443158749E+04    0.61579E-04   -0.17524E-03  2568   0.800E-02    0.549E-02
DAV:   9    -0.136443155647E+04    0.31021E-04   -0.40650E-04  2296   0.414E-02    0.342E-02
DAV:  10    -0.136443156545E+04   -0.89783E-05   -0.18330E-04  2368   0.255E-02    0.225E-02
DAV:  11    -0.136443156277E+04    0.26819E-05   -0.50230E-05  2440   0.165E-02    0.128E-02
DAV:  12    -0.136443156436E+04   -0.15887E-05   -0.35363E-05  2296   0.116E-02    0.131E-02
DAV:  13    -0.136443156228E+04    0.20715E-05   -0.17581E-05  1808   0.807E-03    0.582E-03
DAV:  14    -0.136443156226E+04    0.22730E-07   -0.46540E-06  1360   0.552E-03
  12 F= -.13644316E+04 E0= -.13644316E+04  d E =-.628996E+00
 BRION: g(F)=  0.214E+00 g(S)=  0.000E+00 retain N= 10 mean eig= 3.01
 eig:   7.374  7.374  4.446  4.446  2.012  2.012  0.370  0.370  0.937  0.803
 bond charge predicted
       N       E                     dE             d eps       ncg     rms          rms(c)
DAV:   1    -0.136466364984E+04   -0.23209E+00   -0.53475E+01  1392   0.105E+01    0.121E+00
DAV:   2    -0.136493990008E+04   -0.27625E+00   -0.29277E+00  2296   0.415E+00    0.603E-01
DAV:   3    -0.136495636186E+04   -0.16462E-01   -0.23066E-01  2568   0.807E-01    0.494E-01
DAV:   4    -0.136495338929E+04    0.29726E-02   -0.21268E-02  2616   0.348E-01    0.364E-01
DAV:   5    -0.136494957162E+04    0.38177E-02   -0.11373E-02  2280   0.234E-01    0.157E-01
DAV:   6    -0.136494973504E+04   -0.16342E-03   -0.10148E-02  2336   0.194E-01    0.128E-01
DAV:   7    -0.136494973488E+04    0.15492E-06   -0.41852E-03  2408   0.121E-01    0.103E-01
DAV:   8    -0.136494968468E+04    0.50203E-04   -0.14447E-03  2568   0.747E-02    0.553E-02
DAV:   9    -0.136494965141E+04    0.33270E-04   -0.43492E-04  2440   0.411E-02    0.312E-02
DAV:  10    -0.136494966174E+04   -0.10326E-04   -0.17484E-04  2456   0.249E-02    0.220E-02
DAV:  11    -0.136494965929E+04    0.24405E-05   -0.47070E-05  2416   0.159E-02    0.134E-02
DAV:  12    -0.136494965971E+04   -0.41183E-06   -0.31710E-05  2248   0.112E-02    0.125E-02
DAV:  13    -0.136494965802E+04    0.16834E-05   -0.17554E-05  1864   0.793E-03    0.536E-03
DAV:  14    -0.136494965792E+04    0.99040E-07   -0.34278E-06  1216   0.513E-03
  13 F= -.13649497E+04 E0= -.13649497E+04  d E =-.518096E+00
 BRION: g(F)=  0.188E+00 g(S)=  0.000E+00 retain N=  7 mean eig= 3.50
 eig:   7.668  7.668  2.750  2.750  1.165  1.165  1.320
 bond charge predicted
       N       E                     dE             d eps       ncg     rms          rms(c)
DAV:   1    -0.136512729432E+04   -0.17764E+00   -0.61244E+01  1360   0.112E+01    0.127E+00
DAV:   2    -0.136544180387E+04   -0.31451E+00   -0.33190E+00  2304   0.439E+00    0.644E-01
DAV:   3    -0.136545988362E+04   -0.18080E-01   -0.25641E-01  2584   0.844E-01    0.522E-01
DAV:   4    -0.136545638412E+04    0.34995E-02   -0.23433E-02  2624   0.366E-01    0.384E-01
DAV:   5    -0.136545203266E+04    0.43515E-02   -0.12570E-02  2304   0.242E-01    0.165E-01
DAV:   6    -0.136545219656E+04   -0.16391E-03   -0.10757E-02  2344   0.194E-01    0.129E-01
DAV:   7    -0.136545220723E+04   -0.10667E-04   -0.42669E-03  2408   0.123E-01    0.103E-01
DAV:   8    -0.136545216106E+04    0.46173E-04   -0.15133E-03  2560   0.758E-02    0.588E-02
DAV:   9    -0.136545211733E+04    0.43734E-04   -0.46202E-04  2328   0.425E-02    0.333E-02
DAV:  10    -0.136545212928E+04   -0.11950E-04   -0.21616E-04  2400   0.268E-02    0.223E-02
DAV:  11    -0.136545212674E+04    0.25342E-05   -0.51002E-05  2432   0.167E-02    0.130E-02
DAV:  12    -0.136545212784E+04   -0.10998E-05   -0.35323E-05  2264   0.115E-02    0.129E-02
DAV:  13    -0.136545212582E+04    0.20240E-05   -0.17570E-05  1832   0.816E-03    0.578E-03
DAV:  14    -0.136545212586E+04   -0.45824E-07   -0.66668E-06  1632   0.561E-03
  14 F= -.13654521E+04 E0= -.13654521E+04  d E =-.502468E+00
 BRION: g(F)=  0.166E+00 g(S)=  0.000E+00 retain N=  6 mean eig= 4.44
 eig:   7.870  7.870  3.801  3.801  1.310  1.999
 bond charge predicted
       N       E                     dE             d eps       ncg     rms          rms(c)
DAV:   1    -0.136559769046E+04   -0.14556E+00   -0.52636E+01  1360   0.103E+01    0.115E+00
DAV:   2    -0.136586174647E+04   -0.26406E+00   -0.27709E+00  2304   0.400E+00    0.582E-01
DAV:   3    -0.136587649497E+04   -0.14748E-01   -0.20789E-01  2576   0.760E-01    0.469E-01
DAV:   4    -0.136587374962E+04    0.27453E-02   -0.18619E-02  2624   0.320E-01    0.346E-01
DAV:   5    -0.136587008160E+04    0.36680E-02   -0.10096E-02  2312   0.218E-01    0.144E-01
DAV:   6    -0.136587027427E+04   -0.19266E-03   -0.88404E-03  2328   0.174E-01    0.113E-01
DAV:   7    -0.136587029749E+04   -0.23219E-04   -0.31923E-03  2424   0.105E-01    0.917E-02
DAV:   8    -0.136587025775E+04    0.39734E-04   -0.10658E-03  2560   0.637E-02    0.490E-02
DAV:   9    -0.136587022078E+04    0.36976E-04   -0.38364E-04  2320   0.383E-02    0.270E-02
DAV:  10    -0.136587023170E+04   -0.10918E-04   -0.13778E-04  2360   0.226E-02    0.215E-02
DAV:  11    -0.136587022618E+04    0.55144E-05   -0.39911E-05  2336   0.139E-02    0.899E-03
DAV:  12    -0.136587022747E+04   -0.12830E-05   -0.22593E-05  2136   0.942E-03    0.765E-03
DAV:  13    -0.136587022685E+04    0.61796E-06   -0.55667E-06  1424   0.600E-03
  15 F= -.13658702E+04 E0= -.13658702E+04  d E =-.418101E+00
 BRION: g(F)=  0.148E+00 g(S)=  0.000E+00 retain N=  3 mean eig= 6.01
 eig:   7.812  7.812  2.396
 bond charge predicted
       N       E                     dE             d eps       ncg     rms          rms(c)
DAV:   1    -0.136603225065E+04   -0.16202E+00   -0.45076E+01  1360   0.957E+00    0.108E+00
DAV:   2    -0.136626574487E+04   -0.23349E+00   -0.24608E+00  2296   0.380E+00    0.546E-01
DAV:   3    -0.136627984424E+04   -0.14099E-01   -0.19395E-01  2576   0.726E-01    0.442E-01
DAV:   4    -0.136627755972E+04    0.22845E-02   -0.17146E-02  2624   0.313E-01    0.330E-01
DAV:   5    -0.136627446309E+04    0.30966E-02   -0.88592E-03  2328   0.200E-01    0.145E-01
DAV:   6    -0.136627450812E+04   -0.45036E-04   -0.76582E-03  2296   0.165E-01    0.105E-01
DAV:   7    -0.136627454554E+04   -0.37421E-04   -0.34472E-03  2424   0.108E-01    0.860E-02
DAV:   8    -0.136627451414E+04    0.31401E-04   -0.10529E-03  2560   0.658E-02    0.517E-02
DAV:   9    -0.136627448440E+04    0.29738E-04   -0.35568E-04  2424   0.364E-02    0.286E-02
DAV:  10    -0.136627449294E+04   -0.85357E-05   -0.14349E-04  2440   0.224E-02    0.188E-02
DAV:  11    -0.136627449295E+04   -0.80472E-08   -0.36624E-05  2408   0.137E-02    0.124E-02
DAV:  12    -0.136627449259E+04    0.35956E-06   -0.27023E-05  2192   0.105E-02    0.113E-02
DAV:  13    -0.136627449133E+04    0.12541E-05   -0.14974E-05  1800   0.765E-03    0.593E-03
DAV:  14    -0.136627449110E+04    0.23592E-06   -0.43278E-06  1304   0.526E-03
  16 F= -.13662745E+04 E0= -.13662745E+04  d E =-.404264E+00
 BRION: g(F)=  0.135E+00 g(S)=  0.000E+00 retain N=  3 mean eig= 6.14
 eig:   7.943  7.943  2.531
 bond charge predicted
       N       E                     dE             d eps       ncg     rms          rms(c)
DAV:   1    -0.136643497387E+04   -0.16048E+00   -0.18755E+01  1376   0.619E+00    0.699E-01
DAV:   2    -0.136653396878E+04   -0.98995E-01   -0.10423E+00  2312   0.250E+00    0.355E-01
DAV:   3    -0.136653996653E+04   -0.59977E-02   -0.81844E-02  2576   0.465E-01    0.283E-01
DAV:   4    -0.136653893672E+04    0.10298E-02   -0.72597E-03  2600   0.205E-01    0.208E-01
DAV:   5    -0.136653773677E+04    0.11999E-02   -0.38066E-03  2320   0.128E-01    0.836E-02
DAV:   6    -0.136653781470E+04   -0.77930E-04   -0.28328E-03  2352   0.985E-02    0.631E-02
DAV:   7    -0.136653782693E+04   -0.12230E-04   -0.11494E-03  2456   0.624E-02    0.483E-02
DAV:   8    -0.136653781723E+04    0.96991E-05   -0.35528E-04  2568   0.382E-02    0.273E-02
DAV:   9    -0.136653781030E+04    0.69317E-05   -0.10327E-04  2336   0.203E-02    0.168E-02
DAV:  10    -0.136653781270E+04   -0.24021E-05   -0.41747E-05  2360   0.124E-02    0.107E-02
DAV:  11    -0.136653781223E+04    0.47525E-06   -0.11305E-05  1784   0.820E-03    0.587E-03
DAV:  12    -0.136653781258E+04   -0.35134E-06   -0.93926E-06  1600   0.680E-03
  17 F= -.13665378E+04 E0= -.13665378E+04  d E =-.263321E+00
 BRION: g(F)=  0.130E+00 g(S)=  0.000E+00 retain N=  3 mean eig= 4.38
 eig:   5.582  5.582  1.961
 bond charge predicted
       N       E                     dE             d eps       ncg     rms          rms(c)
DAV:   1    -0.136669705531E+04   -0.15924E+00   -0.32241E+01  1376   0.809E+00    0.906E-01
DAV:   2    -0.136686553046E+04   -0.16848E+00   -0.17742E+00  2296   0.322E+00    0.461E-01
DAV:   3    -0.136687580097E+04   -0.10271E-01   -0.14072E-01  2576   0.616E-01    0.370E-01
DAV:   4    -0.136687408799E+04    0.17130E-02   -0.12645E-02  2608   0.269E-01    0.271E-01
DAV:   5    -0.136687206433E+04    0.20237E-02   -0.60220E-03  2336   0.164E-01    0.117E-01
DAV:   6    -0.136687209311E+04   -0.28778E-04   -0.48466E-03  2288   0.132E-01    0.791E-02
DAV:   7    -0.136687214237E+04   -0.49261E-04   -0.22860E-03  2488   0.879E-02    0.670E-02
DAV:   8    -0.136687212440E+04    0.17971E-04   -0.64910E-04  2576   0.523E-02    0.414E-02
DAV:   9    -0.136687210825E+04    0.16149E-04   -0.21986E-04  2504   0.285E-02    0.236E-02
DAV:  10    -0.136687211267E+04   -0.44171E-05   -0.86477E-05  2504   0.178E-02    0.151E-02
DAV:  11    -0.136687211311E+04   -0.44412E-06   -0.23588E-05  2216   0.109E-02    0.979E-03
DAV:  12    -0.136687211264E+04    0.47828E-06   -0.18053E-05  2032   0.900E-03    0.840E-03
DAV:  13    -0.136687211213E+04    0.50300E-06   -0.99254E-06  1760   0.642E-03
  18 F= -.13668721E+04 E0= -.13668721E+04  d E =-.334300E+00
 BRION: g(F)=  0.121E+00 g(S)=  0.000E+00 retain N=  2 mean eig= 3.13
 eig:   3.131  3.131
 bond charge predicted
       N       E                     dE             d eps       ncg     rms          rms(c)
DAV:   1    -0.136702346144E+04   -0.15135E+00   -0.22371E+01  1384   0.676E+00    0.755E-01
DAV:   2    -0.136714124897E+04   -0.11779E+00   -0.12396E+00  2296   0.270E+00    0.383E-01
DAV:   3    -0.136714825239E+04   -0.70034E-02   -0.96576E-02  2576   0.519E-01    0.304E-01
DAV:   4    -0.136714696088E+04    0.12915E-02   -0.88257E-03  2592   0.226E-01    0.218E-01
DAV:   5    -0.136714569945E+04    0.12614E-02   -0.43916E-03  2352   0.136E-01    0.876E-02
DAV:   6    -0.136714577675E+04   -0.77303E-04   -0.29293E-03  2408   0.102E-01    0.642E-02
DAV:   7    -0.136714579908E+04   -0.22329E-04   -0.13275E-03  2440   0.668E-02    0.494E-02
DAV:   8    -0.136714578997E+04    0.91174E-05   -0.39985E-04  2544   0.414E-02    0.294E-02
DAV:   9    -0.136714578487E+04    0.50913E-05   -0.11070E-04  2480   0.212E-02    0.188E-02
DAV:  10    -0.136714578659E+04   -0.17145E-05   -0.45204E-05  2512   0.131E-02    0.113E-02
DAV:  11    -0.136714578667E+04   -0.86598E-07   -0.13720E-05  1976   0.874E-03    0.644E-03
DAV:  12    -0.136714578672E+04   -0.45358E-07   -0.95408E-06  1648   0.698E-03
  19 F= -.13671458E+04 E0= -.13671458E+04  d E =-.273675E+00
 BRION: g(F)=  0.113E+00 g(S)=  0.000E+00 retain N=  3 mean eig= 4.67
 eig:   6.236  6.236  1.538
 bond charge predicted
       N       E                     dE             d eps       ncg     rms          rms(c)
DAV:   1    -0.136729023659E+04   -0.14445E+00   -0.24985E+01  1400   0.709E+00    0.788E-01
DAV:   2    -0.136742082704E+04   -0.13059E+00   -0.13720E+00  2296   0.283E+00    0.403E-01
DAV:   3    -0.136742860608E+04   -0.77790E-02   -0.10689E-01  2584   0.540E-01    0.320E-01
DAV:   4    -0.136742718630E+04    0.14198E-02   -0.97231E-03  2592   0.235E-01    0.227E-01
DAV:   5    -0.136742585173E+04    0.13346E-02   -0.44938E-03  2352   0.136E-01    0.931E-02
DAV:   6    -0.136742591482E+04   -0.63088E-04   -0.30538E-03  2392   0.102E-01    0.624E-02
DAV:   7    -0.136742594217E+04   -0.27355E-04   -0.13920E-03  2456   0.688E-02    0.496E-02
DAV:   8    -0.136742593655E+04    0.56174E-05   -0.41583E-04  2568   0.419E-02    0.316E-02
DAV:   9    -0.136742592992E+04    0.66346E-05   -0.12098E-04  2496   0.219E-02    0.198E-02
DAV:  10    -0.136742593143E+04   -0.15079E-05   -0.49352E-05  2560   0.135E-02    0.115E-02
DAV:  11    -0.136742593180E+04   -0.37701E-06   -0.11339E-05  1784   0.830E-03    0.710E-03
DAV:  12    -0.136742593181E+04   -0.88185E-08   -0.12977E-05  1632   0.758E-03    0.589E-03
DAV:  13    -0.136742593137E+04    0.44018E-06   -0.22997E-06   992   0.576E-03
  20 F= -.13674259E+04 E0= -.13674259E+04  d E =-.280145E+00
 BRION: g(F)=  0.106E+00 g(S)=  0.000E+00 retain N=  3 mean eig= 5.89
 eig:   7.945  7.945  1.775
