 running on  160 total cores
 distrk:  each k-point on  160 cores,    1 groups
 distr:  one band on   20 cores,    8 groups
 using from now: INCAR     
 vasp.5.4.4.18Apr17-6-g9f103f2a35 (build May 01 2020 14:22:42) gamma-only       
  
 POSCAR found type information on POSCAR  O  La Zr Li Al
 POSCAR found :  5 types and     190 ions
 scaLAPACK will be used
 LDA part: xc-table for Pade appr. of Perdew
 POSCAR, INCAR and KPOINTS ok, starting setup
 FFT: planning ...
 WAVECAR not read
 WARNING: random wavefunctions but no delay for mixing, default for NELMDL
 entering main loop
       N       E                     dE             d eps       ncg     rms          rms(c)
DAV:   1     0.252576973949E+05    0.25258E+05   -0.42408E+05  1632   0.253E+03
DAV:   2     0.952961002983E+04   -0.15728E+05   -0.14514E+05  1448   0.714E+02
DAV:   3     0.278010226439E+04   -0.67495E+04   -0.61521E+04  1504   0.355E+02
DAV:   4    -0.329499084506E+03   -0.31096E+04   -0.28966E+04  2032   0.222E+02
DAV:   5    -0.141014567321E+04   -0.10806E+04   -0.10375E+04  2536   0.143E+02    0.116E+02
DAV:   6    -0.130862740962E+04    0.10152E+03   -0.14952E+03  2432   0.658E+01    0.505E+01
DAV:   7    -0.133069090359E+04   -0.22063E+02   -0.40182E+02  2552   0.338E+01    0.260E+01
DAV:   8    -0.134006048071E+04   -0.93696E+01   -0.30389E+02  2496   0.285E+01    0.280E+01
DAV:   9    -0.133110483436E+04    0.89556E+01   -0.62710E+01  2448   0.157E+01    0.787E+00
DAV:  10    -0.133219137645E+04   -0.10865E+01   -0.15044E+01  2616   0.835E+00    0.762E+00
DAV:  11    -0.133233858654E+04   -0.14721E+00   -0.76265E+00  2624   0.461E+00    0.403E+00
DAV:  12    -0.133221801954E+04    0.12057E+00   -0.22827E+00  2568   0.362E+00    0.262E+00
DAV:  13    -0.133228557575E+04   -0.67556E-01   -0.91032E-01  2592   0.170E+00    0.194E+00
DAV:  14    -0.133226849119E+04    0.17085E-01   -0.29541E-01  2600   0.112E+00    0.109E+00
DAV:  15    -0.133227804617E+04   -0.95550E-02   -0.97299E-02  2536   0.599E-01    0.917E-01
DAV:  16    -0.133227591759E+04    0.21286E-02   -0.40307E-02  2592   0.379E-01    0.571E-01
DAV:  17    -0.133227452158E+04    0.13960E-02   -0.23687E-02  2576   0.295E-01    0.275E-01
DAV:  18    -0.133227487592E+04   -0.35434E-03   -0.43677E-03  2488   0.148E-01    0.162E-01
DAV:  19    -0.133227474874E+04    0.12718E-03   -0.26596E-03  2472   0.952E-02    0.108E-01
DAV:  20    -0.133227479428E+04   -0.45543E-04   -0.55701E-04  2608   0.477E-02    0.376E-02
DAV:  21    -0.133227481363E+04   -0.19352E-04   -0.17738E-04  2608   0.249E-02    0.358E-02
DAV:  22    -0.133227482425E+04   -0.10615E-04   -0.55498E-05  2392   0.153E-02    0.144E-02
DAV:  23    -0.133227482538E+04   -0.11353E-05   -0.35140E-05  2088   0.101E-02    0.659E-03
DAV:  24    -0.133227482872E+04   -0.33312E-05   -0.65248E-06  1072   0.686E-03    0.167E-03
DAV:  25    -0.133227482875E+04   -0.39247E-07   -0.31654E-06  1016   0.506E-03
   1 F= -.13322748E+04 E0= -.13322748E+04  d E =-.133227E+04
 BRION: g(F)=  0.490E+02 g(S)=  0.000E+00
 bond charge predicted
       N       E                     dE             d eps       ncg     rms          rms(c)
DAV:   1    -0.131113395027E+04    0.21141E+02   -0.55661E+03  1640   0.110E+02    0.225E+01
DAV:   2    -0.135099264092E+04   -0.39859E+02   -0.45910E+02  2576   0.502E+01    0.122E+01
DAV:   3    -0.134988575741E+04    0.11069E+01   -0.26895E+01  2624   0.131E+01    0.844E+00
DAV:   4    -0.134843875014E+04    0.14470E+01   -0.87821E+00  2464   0.598E+00    0.419E+00
DAV:   5    -0.134819999856E+04    0.23875E+00   -0.23767E+00  2552   0.347E+00    0.271E+00
DAV:   6    -0.134812900241E+04    0.70996E-01   -0.21483E+00  2552   0.272E+00    0.136E+00
DAV:   7    -0.134813714935E+04   -0.81469E-02   -0.47752E-01  2536   0.152E+00    0.114E+00
DAV:   8    -0.134813064928E+04    0.65001E-02   -0.21714E-01  2624   0.782E-01    0.479E-01
DAV:   9    -0.134813123887E+04   -0.58959E-03   -0.34856E-02  2592   0.428E-01    0.311E-01
DAV:  10    -0.134813034651E+04    0.89236E-03   -0.12740E-02  2584   0.258E-01    0.153E-01
DAV:  11    -0.134813105111E+04   -0.70460E-03   -0.10427E-02  2616   0.188E-01    0.143E-01
DAV:  12    -0.134813097583E+04    0.75278E-04   -0.17617E-03  2616   0.877E-02    0.796E-02
DAV:  13    -0.134813092232E+04    0.53515E-04   -0.11379E-03  2552   0.609E-02    0.188E-02
DAV:  14    -0.134813094268E+04   -0.20362E-04   -0.22372E-04  2528   0.327E-02    0.135E-02
DAV:  15    -0.134813094922E+04   -0.65404E-05   -0.47636E-05  2624   0.153E-02    0.113E-02
DAV:  16    -0.134813094843E+04    0.78416E-06   -0.12629E-05  1800   0.869E-03    0.896E-03
DAV:  17    -0.134813094906E+04   -0.62457E-06   -0.22746E-05  2024   0.831E-03    0.498E-03
DAV:  18    -0.134813094894E+04    0.12040E-06   -0.18049E-06  1008   0.494E-03
   2 F= -.13481309E+04 E0= -.13481309E+04  d E =-.158561E+02
 BRION: g(F)=  0.851E+02 g(S)=  0.000E+00 retain N=  1 mean eig= 0.40
 eig:   0.399
 bond charge predicted
       N       E                     dE             d eps       ncg     rms          rms(c)
DAV:   1    -0.133709230906E+04    0.11039E+02   -0.16468E+03  1344   0.488E+01    0.173E+01
DAV:   2    -0.135818817031E+04   -0.21096E+02   -0.27903E+02  2544   0.253E+01    0.155E+01
DAV:   3    -0.135544811618E+04    0.27401E+01   -0.28047E+01  2464   0.959E+00    0.107E+01
DAV:   4    -0.135354212468E+04    0.19060E+01   -0.20987E+01  2192   0.501E+00    0.382E+00
DAV:   5    -0.135383835471E+04   -0.29623E+00   -0.39951E+00  2472   0.304E+00    0.464E+00
DAV:   6    -0.135346208408E+04    0.37627E+00   -0.37335E+00  2528   0.246E+00    0.105E+00
DAV:   7    -0.135350402890E+04   -0.41945E-01   -0.58943E-01  2456   0.152E+00    0.125E+00
DAV:   8    -0.135348223305E+04    0.21796E-01   -0.19451E-01  2592   0.779E-01    0.591E-01
DAV:   9    -0.135348110803E+04    0.11250E-02   -0.56398E-02  2528   0.433E-01    0.230E-01
DAV:  10    -0.135348182205E+04   -0.71402E-03   -0.11524E-02  2552   0.212E-01    0.161E-01
DAV:  11    -0.135348167791E+04    0.14415E-03   -0.30524E-03  2624   0.117E-01    0.111E-01
DAV:  12    -0.135348162436E+04    0.53543E-04   -0.24576E-03  2520   0.777E-02    0.356E-02
DAV:  13    -0.135348167195E+04   -0.47590E-04   -0.40648E-04  2608   0.457E-02    0.410E-02
DAV:  14    -0.135348165328E+04    0.18673E-04   -0.92391E-05  2608   0.209E-02    0.251E-02
DAV:  15    -0.135348165077E+04    0.25053E-05   -0.87552E-05  2568   0.161E-02    0.603E-03
DAV:  16    -0.135348165229E+04   -0.15120E-05   -0.11482E-05  2032   0.771E-03    0.218E-03
DAV:  17    -0.135348165238E+04   -0.96770E-07   -0.13350E-06  1024   0.419E-03
   3 F= -.13534817E+04 E0= -.13534817E+04  d E =-.535070E+01
 BRION: g(F)=  0.155E+02 g(S)=  0.000E+00 retain N=  2 mean eig= 1.25
 eig:   0.203  2.296
 bond charge predicted
       N       E                     dE             d eps       ncg     rms          rms(c)
DAV:   1    -0.135226180613E+04    0.12198E+01   -0.64274E+02  1400   0.312E+01    0.739E+00
DAV:   2    -0.135683878077E+04   -0.45770E+01   -0.53625E+01  2416   0.149E+01    0.415E+00
DAV:   3    -0.135673276515E+04    0.10602E+00   -0.37936E+00  2424   0.457E+00    0.362E+00
DAV:   4    -0.135651658645E+04    0.21618E+00   -0.17423E+00  2232   0.207E+00    0.158E+00
DAV:   5    -0.135652978251E+04   -0.13196E-01   -0.72850E-01  2384   0.145E+00    0.191E+00
DAV:   6    -0.135646898456E+04    0.60798E-01   -0.39951E-01  2504   0.123E+00    0.829E-01
DAV:   7    -0.135647290932E+04   -0.39248E-02   -0.20595E-01  2472   0.751E-01    0.633E-01
DAV:   8    -0.135647014240E+04    0.27669E-02   -0.32342E-02  2560   0.351E-01    0.389E-01
DAV:   9    -0.135646772656E+04    0.24158E-02   -0.13320E-02  2424   0.207E-01    0.190E-01
DAV:  10    -0.135646841260E+04   -0.68604E-03   -0.15091E-02  2376   0.180E-01    0.168E-01
DAV:  11    -0.135646797069E+04    0.44191E-03   -0.20009E-03  2520   0.102E-01    0.851E-02
DAV:  12    -0.135646798171E+04   -0.11016E-04   -0.15926E-03  2472   0.600E-02    0.314E-02
DAV:  13    -0.135646798623E+04   -0.45196E-05   -0.18028E-04  2480   0.294E-02    0.131E-02
DAV:  14    -0.135646798979E+04   -0.35681E-05   -0.40145E-05  2496   0.118E-02    0.873E-03
DAV:  15    -0.135646799027E+04   -0.47695E-06   -0.71681E-06  1608   0.642E-03
   4 F= -.13564680E+04 E0= -.13564680E+04  d E =-.298634E+01
 BRION: g(F)=  0.637E+01 g(S)=  0.000E+00 retain N=  3 mean eig= 2.08
 eig:   5.538  0.352  0.352
 bond charge predicted
       N       E                     dE             d eps       ncg     rms          rms(c)
DAV:   1    -0.135790724057E+04   -0.14393E+01   -0.21968E+02  1360   0.200E+01    0.338E+00
DAV:   2    -0.135902059285E+04   -0.11134E+01   -0.12150E+01  2296   0.764E+00    0.191E+00
DAV:   3    -0.135903544889E+04   -0.14856E-01   -0.84054E-01  2616   0.170E+00    0.152E+00
DAV:   4    -0.135899676996E+04    0.38679E-01   -0.22717E-01  2504   0.929E-01    0.711E-01
DAV:   5    -0.135899300765E+04    0.37623E-02   -0.72980E-02  2464   0.553E-01    0.467E-01
DAV:   6    -0.135899248509E+04    0.52256E-03   -0.49325E-02  2568   0.387E-01    0.234E-01
DAV:   7    -0.135899241378E+04    0.71319E-04   -0.10197E-02  2392   0.199E-01    0.181E-01
DAV:   8    -0.135899231906E+04    0.94711E-04   -0.43043E-03  2424   0.109E-01    0.883E-02
DAV:   9    -0.135899229465E+04    0.24417E-04   -0.13450E-03  2616   0.686E-02    0.528E-02
DAV:  10    -0.135899233068E+04   -0.36035E-04   -0.58655E-04  2464   0.439E-02    0.541E-02
DAV:  11    -0.135899229691E+04    0.33777E-04   -0.31472E-04  2520   0.327E-02    0.194E-02
DAV:  12    -0.135899230278E+04   -0.58754E-05   -0.11990E-04  2400   0.197E-02    0.144E-02
DAV:  13    -0.135899230298E+04   -0.19955E-06   -0.23191E-05  2272   0.103E-02    0.103E-02
DAV:  14    -0.135899230210E+04    0.87763E-06   -0.11179E-05  1760   0.644E-03    0.416E-03
DAV:  15    -0.135899230210E+04   -0.19209E-08   -0.21373E-06  1040   0.485E-03
   5 F= -.13589923E+04 E0= -.13589923E+04  d E =-.252431E+01
 BRION: g(F)=  0.287E+01 g(S)=  0.000E+00 retain N=  4 mean eig= 1.74
 eig:   6.043  0.049  0.442  0.442
 bond charge predicted
       N       E                     dE             d eps       ncg     rms          rms(c)
DAV:   1    -0.135985220332E+04   -0.85990E+00   -0.13080E+02  1360   0.153E+01    0.240E+00
DAV:   2    -0.136045577484E+04   -0.60357E+00   -0.64483E+00  2288   0.560E+00    0.124E+00
DAV:   3    -0.136046251076E+04   -0.67359E-02   -0.41343E-01  2608   0.114E+00    0.101E+00
DAV:   4    -0.136043963352E+04    0.22877E-01   -0.11118E-01  2496   0.637E-01    0.471E-01
DAV:   5    -0.136043751974E+04    0.21138E-02   -0.38551E-02  2496   0.380E-01    0.319E-01
DAV:   6    -0.136043717036E+04    0.34938E-03   -0.26086E-02  2552   0.279E-01    0.148E-01
DAV:   7    -0.136043720589E+04   -0.35528E-04   -0.57194E-03  2336   0.144E-01    0.130E-01
DAV:   8    -0.136043713863E+04    0.67261E-04   -0.19174E-03  2352   0.715E-02    0.618E-02
DAV:   9    -0.136043714364E+04   -0.50107E-05   -0.96567E-04  2520   0.514E-02    0.423E-02
DAV:  10    -0.136043713590E+04    0.77351E-05   -0.24708E-04  2424   0.324E-02    0.335E-02
DAV:  11    -0.136043713014E+04    0.57579E-05   -0.17422E-04  2440   0.221E-02    0.132E-02
DAV:  12    -0.136043713161E+04   -0.14637E-05   -0.47783E-05  2272   0.124E-02    0.712E-03
DAV:  13    -0.136043713201E+04   -0.40258E-06   -0.77875E-06  1536   0.668E-03
   6 F= -.13604371E+04 E0= -.13604371E+04  d E =-.144483E+01
 BRION: g(F)=  0.181E+01 g(S)=  0.000E+00 retain N=  5 mean eig= 1.95
 eig:   4.317  3.662  0.626  0.626  0.540
 bond charge predicted
       N       E                     dE             d eps       ncg     rms          rms(c)
DAV:   1    -0.136071617030E+04   -0.27904E+00   -0.30353E+02  1360   0.240E+01    0.336E+00
DAV:   2    -0.136226048106E+04   -0.15443E+01   -0.16183E+01  2280   0.895E+00    0.177E+00
DAV:   3    -0.136230961066E+04   -0.49130E-01   -0.11054E+00  2608   0.183E+00    0.150E+00
DAV:   4    -0.136227409911E+04    0.35512E-01   -0.19002E-01  2592   0.884E-01    0.870E-01
DAV:   5    -0.136225818812E+04    0.15911E-01   -0.77740E-02  2456   0.548E-01    0.390E-01
DAV:   6    -0.136226017546E+04   -0.19873E-02   -0.41048E-02  2512   0.375E-01    0.329E-01
DAV:   7    -0.136225899689E+04    0.11786E-02   -0.14136E-02  2472   0.233E-01    0.199E-01
DAV:   8    -0.136225907067E+04   -0.73784E-04   -0.83072E-03  2512   0.146E-01    0.964E-02
DAV:   9    -0.136225900962E+04    0.61051E-04   -0.11007E-03  2536   0.695E-02    0.707E-02
DAV:  10    -0.136225899723E+04    0.12391E-04   -0.60218E-04  2384   0.435E-02    0.372E-02
DAV:  11    -0.136225899627E+04    0.96745E-06   -0.21691E-04  2512   0.302E-02    0.154E-02
DAV:  12    -0.136225900078E+04   -0.45120E-05   -0.79683E-05  2440   0.183E-02    0.142E-02
DAV:  13    -0.136225900089E+04   -0.11109E-06   -0.39092E-05  2320   0.116E-02    0.103E-02
DAV:  14    -0.136225900045E+04    0.43333E-06   -0.11439E-05  1792   0.677E-03    0.601E-03
DAV:  15    -0.136225900026E+04    0.19497E-06   -0.50947E-06  1384   0.522E-03
   7 F= -.13622590E+04 E0= -.13622590E+04  d E =-.182187E+01
 BRION: g(F)=  0.122E+01 g(S)=  0.000E+00 retain N=  6 mean eig= 1.86
 eig:   5.427  2.409  1.082  1.082  0.580  0.580
 bond charge predicted
       N       E                     dE             d eps       ncg     rms          rms(c)
DAV:   1    -0.136268361149E+04   -0.42461E+00   -0.72924E+01  1376   0.119E+01    0.175E+00
DAV:   2    -0.136305706106E+04   -0.37345E+00   -0.39735E+00  2272   0.458E+00    0.888E-01
DAV:   3    -0.136307419688E+04   -0.17136E-01   -0.31534E-01  2616   0.949E-01    0.708E-01
DAV:   4    -0.136306613668E+04    0.80602E-02   -0.43744E-02  2552   0.460E-01    0.400E-01
DAV:   5    -0.136306377172E+04    0.23650E-02   -0.19265E-02  2376   0.266E-01    0.175E-01
DAV:   6    -0.136306423752E+04   -0.46580E-03   -0.80895E-03  2512   0.167E-01    0.131E-01
DAV:   7    -0.136306415834E+04    0.79176E-04   -0.29570E-03  2400   0.102E-01    0.881E-02
DAV:   8    -0.136306414722E+04    0.11120E-04   -0.11919E-03  2488   0.611E-02    0.506E-02
DAV:   9    -0.136306413042E+04    0.16805E-04   -0.23497E-04  2512   0.334E-02    0.357E-02
DAV:  10    -0.136306413894E+04   -0.85202E-05   -0.30967E-04  2368   0.289E-02    0.276E-02
DAV:  11    -0.136306412942E+04    0.95253E-05   -0.92515E-05  2368   0.209E-02    0.100E-02
DAV:  12    -0.136306413211E+04   -0.26992E-05   -0.37782E-05  2280   0.114E-02    0.873E-03
DAV:  13    -0.136306413111E+04    0.10054E-05   -0.35722E-06  1160   0.610E-03    0.482E-03
DAV:  14    -0.136306413222E+04   -0.11079E-05   -0.16804E-05  1600   0.754E-03    0.546E-03
DAV:  15    -0.136306413178E+04    0.44065E-06   -0.14990E-06  1024   0.488E-03
   8 F= -.13630641E+04 E0= -.13630641E+04  d E =-.805132E+00
 BRION: g(F)=  0.442E+00 g(S)=  0.000E+00 retain N=  6 mean eig= 1.07
 eig:   2.760  2.760  0.146  0.146  0.396  0.205
 bond charge predicted
       N       E                     dE             d eps       ncg     rms          rms(c)
DAV:   1    -0.136327189577E+04   -0.20776E+00   -0.12427E+02  1376   0.159E+01    0.201E+00
DAV:   2    -0.136390995826E+04   -0.63806E+00   -0.67472E+00  2296   0.622E+00    0.101E+00
DAV:   3    -0.136394456765E+04   -0.34609E-01   -0.52215E-01  2608   0.121E+00    0.794E-01
DAV:   4    -0.136393404859E+04    0.10519E-01   -0.59432E-02  2592   0.567E-01    0.488E-01
DAV:   5    -0.136392954294E+04    0.45057E-02   -0.26800E-02  2424   0.334E-01    0.190E-01
DAV:   6    -0.136393049384E+04   -0.95091E-03   -0.13280E-02  2536   0.215E-01    0.148E-01
DAV:   7    -0.136393044992E+04    0.43926E-04   -0.41141E-03  2504   0.129E-01    0.103E-01
DAV:   8    -0.136393045500E+04   -0.50859E-05   -0.18868E-03  2584   0.789E-02    0.557E-02
DAV:   9    -0.136393043914E+04    0.15867E-04   -0.30768E-04  2600   0.416E-02    0.417E-02
DAV:  10    -0.136393044030E+04   -0.11633E-05   -0.27466E-04  2464   0.299E-02    0.235E-02
DAV:  11    -0.136393043956E+04    0.74333E-06   -0.78414E-05  2504   0.196E-02    0.100E-02
DAV:  12    -0.136393044187E+04   -0.23176E-05   -0.31270E-05  2360   0.108E-02    0.950E-03
DAV:  13    -0.136393044088E+04    0.99375E-06   -0.82645E-06  1592   0.677E-03
   9 F= -.13639304E+04 E0= -.13639304E+04  d E =-.866309E+00
 BRION: g(F)=  0.541E+00 g(S)=  0.000E+00 retain N=  7 mean eig= 1.56
 eig:   4.279  4.279  0.915  0.414  0.414  0.169  0.456
 bond charge predicted
       N       E                     dE             d eps       ncg     rms          rms(c)
DAV:   1    -0.136423676247E+04   -0.30632E+00   -0.52924E+01  1376   0.104E+01    0.134E+00
DAV:   2    -0.136451184556E+04   -0.27508E+00   -0.29343E+00  2296   0.410E+00    0.674E-01
DAV:   3    -0.136452645325E+04   -0.14608E-01   -0.23268E-01  2608   0.809E-01    0.539E-01
DAV:   4    -0.136452135537E+04    0.50979E-02   -0.27881E-02  2576   0.389E-01    0.327E-01
DAV:   5    -0.136451921426E+04    0.21411E-02   -0.13000E-02  2328   0.226E-01    0.131E-01
DAV:   6    -0.136451962040E+04   -0.40614E-03   -0.61771E-03  2568   0.146E-01    0.102E-01
DAV:   7    -0.136451960756E+04    0.12836E-04   -0.20197E-03  2544   0.882E-02    0.692E-02
DAV:   8    -0.136451960473E+04    0.28271E-05   -0.74611E-04  2624   0.522E-02    0.384E-02
DAV:   9    -0.136451959862E+04    0.61176E-05   -0.13887E-04  2568   0.268E-02    0.282E-02
DAV:  10    -0.136451960090E+04   -0.22867E-05   -0.11223E-04  2360   0.197E-02    0.171E-02
DAV:  11    -0.136451959979E+04    0.11077E-05   -0.37330E-05  2352   0.136E-02    0.711E-03
DAV:  12    -0.136451960085E+04   -0.10528E-05   -0.14407E-05  1904   0.795E-03    0.675E-03
DAV:  13    -0.136451960009E+04    0.75987E-06   -0.19969E-06  1008   0.566E-03
  10 F= -.13645196E+04 E0= -.13645196E+04  d E =-.589159E+00
 BRION: g(F)=  0.276E+00 g(S)=  0.000E+00 retain N=  8 mean eig= 2.33
 eig:   5.509  5.509  2.952  2.952  0.269  0.269  0.574  0.574
 bond charge predicted
       N       E                     dE             d eps       ncg     rms          rms(c)
DAV:   1    -0.136470273630E+04   -0.18314E+00   -0.82363E+01  1376   0.130E+01    0.160E+00
DAV:   2    -0.136514205731E+04   -0.43932E+00   -0.46959E+00  2296   0.532E+00    0.814E-01
DAV:   3    -0.136516717530E+04   -0.25118E-01   -0.37471E-01  2584   0.102E+00    0.649E-01
DAV:   4    -0.136516044825E+04    0.67270E-02   -0.40306E-02  2584   0.473E-01    0.428E-01
DAV:   5    -0.136515621972E+04    0.42285E-02   -0.19815E-02  2352   0.274E-01    0.163E-01
DAV:   6    -0.136515679931E+04   -0.57959E-03   -0.10163E-02  2472   0.185E-01    0.130E-01
DAV:   7    -0.136515679783E+04    0.14837E-05   -0.40039E-03  2480   0.120E-01    0.905E-02
DAV:   8    -0.136515679110E+04    0.67274E-05   -0.15556E-03  2616   0.750E-02    0.517E-02
DAV:   9    -0.136515678079E+04    0.10308E-04   -0.28471E-04  2568   0.381E-02    0.384E-02
DAV:  10    -0.136515678523E+04   -0.44439E-05   -0.19425E-04  2576   0.251E-02    0.226E-02
DAV:  11    -0.136515678360E+04    0.16363E-05   -0.70073E-05  2432   0.175E-02    0.102E-02
DAV:  12    -0.136515678466E+04   -0.10620E-05   -0.22820E-05  2312   0.108E-02    0.917E-03
DAV:  13    -0.136515678399E+04    0.67383E-06   -0.10713E-05  1680   0.652E-03    0.462E-03
DAV:  14    -0.136515678390E+04    0.85231E-07   -0.30626E-06  1088   0.565E-03
  11 F= -.13651568E+04 E0= -.13651568E+04  d E =-.637184E+00
 BRION: g(F)=  0.198E+00 g(S)=  0.000E+00 retain N=  9 mean eig= 3.03
 eig:   6.915  6.915  5.295  5.295  1.026  0.325  0.325  0.586  0.586
 bond charge predicted
       N       E                     dE             d eps       ncg     rms          rms(c)
DAV:   1    -0.136531250410E+04   -0.15572E+00   -0.60299E+01  1384   0.112E+01    0.135E+00
DAV:   2    -0.136562996158E+04   -0.31746E+00   -0.33878E+00  2288   0.453E+00    0.682E-01
DAV:   3    -0.136564812929E+04   -0.18168E-01   -0.27094E-01  2576   0.863E-01    0.549E-01
DAV:   4    -0.136564330242E+04    0.48269E-02   -0.28183E-02  2592   0.392E-01    0.368E-01
DAV:   5    -0.136563985023E+04    0.34522E-02   -0.14021E-02  2304   0.233E-01    0.140E-01
DAV:   6    -0.136564025467E+04   -0.40444E-03   -0.75823E-03  2464   0.159E-01    0.111E-01
DAV:   7    -0.136564023746E+04    0.17205E-04   -0.28663E-03  2496   0.101E-01    0.755E-02
DAV:   8    -0.136564023434E+04    0.31228E-05   -0.10928E-03  2600   0.638E-02    0.441E-02
DAV:   9    -0.136564022758E+04    0.67563E-05   -0.21132E-04  2544   0.323E-02    0.325E-02
DAV:  10    -0.136564022991E+04   -0.23277E-05   -0.11706E-04  2576   0.201E-02    0.172E-02
DAV:  11    -0.136564022997E+04   -0.59197E-07   -0.41600E-05  2416   0.138E-02    0.849E-03
DAV:  12    -0.136564023038E+04   -0.40740E-06   -0.13963E-05  1968   0.890E-03    0.733E-03
DAV:  13    -0.136564023010E+04    0.27545E-06   -0.80771E-06  1552   0.563E-03
  12 F= -.13656402E+04 E0= -.13656402E+04  d E =-.483446E+00
 BRION: g(F)=  0.175E+00 g(S)=  0.000E+00 retain N=  9 mean eig= 2.81
 eig:   7.331  7.331  2.842  2.842  1.719  1.719  0.429  0.552  0.552
 bond charge predicted
       N       E                     dE             d eps       ncg     rms          rms(c)
DAV:   1    -0.136578345052E+04   -0.14322E+00   -0.47195E+01  1384   0.982E+00    0.116E+00
DAV:   2    -0.136603004708E+04   -0.24660E+00   -0.26187E+00  2304   0.397E+00    0.598E-01
DAV:   3    -0.136604266305E+04   -0.12616E-01   -0.20014E-01  2592   0.750E-01    0.473E-01
DAV:   4    -0.136603822362E+04    0.44394E-02   -0.21648E-02  2584   0.338E-01    0.303E-01
DAV:   5    -0.136603576648E+04    0.24571E-02   -0.10257E-02  2328   0.202E-01    0.112E-01
DAV:   6    -0.136603604435E+04   -0.27787E-03   -0.52380E-03  2464   0.131E-01    0.839E-02
DAV:   7    -0.136603605888E+04   -0.14534E-04   -0.17039E-03  2448   0.791E-02    0.598E-02
DAV:   8    -0.136603606566E+04   -0.67762E-05   -0.68993E-04  2600   0.487E-02    0.342E-02
DAV:   9    -0.136603606243E+04    0.32274E-05   -0.13001E-04  2520   0.262E-02    0.258E-02
DAV:  10    -0.136603606366E+04   -0.12293E-05   -0.94481E-05  2520   0.178E-02    0.150E-02
DAV:  11    -0.136603606293E+04    0.73313E-06   -0.34188E-05  2336   0.125E-02    0.626E-03
DAV:  12    -0.136603606346E+04   -0.53673E-06   -0.10383E-05  1808   0.764E-03    0.554E-03
DAV:  13    -0.136603606305E+04    0.41301E-06   -0.17513E-06  1008   0.468E-03
  13 F= -.13660361E+04 E0= -.13660361E+04  d E =-.395833E+00
 BRION: g(F)=  0.140E+00 g(S)=  0.000E+00 retain N=  6 mean eig= 3.39
 eig:   7.501  7.501  2.091  2.091  0.018  1.125
 bond charge predicted
       N       E                     dE             d eps       ncg     rms          rms(c)
DAV:   1    -0.136614173274E+04   -0.10567E+00   -0.43249E+01  1376   0.945E+00    0.113E+00
DAV:   2    -0.136636885196E+04   -0.22712E+00   -0.24185E+00  2312   0.385E+00    0.587E-01
DAV:   3    -0.136638086298E+04   -0.12011E-01   -0.18717E-01  2576   0.726E-01    0.462E-01
DAV:   4    -0.136637716784E+04    0.36951E-02   -0.20004E-02  2568   0.328E-01    0.306E-01
DAV:   5    -0.136637485537E+04    0.23125E-02   -0.99276E-03  2304   0.193E-01    0.119E-01
DAV:   6    -0.136637508376E+04   -0.22839E-03   -0.49729E-03  2440   0.127E-01    0.892E-02
DAV:   7    -0.136637508530E+04   -0.15446E-05   -0.19859E-03  2440   0.833E-02    0.609E-02
DAV:   8    -0.136637509130E+04   -0.60045E-05   -0.81098E-04  2608   0.539E-02    0.394E-02
DAV:   9    -0.136637508388E+04    0.74203E-05   -0.15379E-04  2544   0.280E-02    0.287E-02
DAV:  10    -0.136637508403E+04   -0.14206E-06   -0.10613E-04  2560   0.180E-02    0.150E-02
DAV:  11    -0.136637508385E+04    0.17640E-06   -0.32735E-05  2328   0.122E-02    0.696E-03
DAV:  12    -0.136637508420E+04   -0.34911E-06   -0.10068E-05  1816   0.778E-03    0.591E-03
DAV:  13    -0.136637508386E+04    0.34287E-06   -0.36521E-06  1216   0.509E-03
  14 F= -.13663751E+04 E0= -.13663751E+04  d E =-.339021E+00
 BRION: g(F)=  0.117E+00 g(S)=  0.000E+00 retain N=  5 mean eig= 3.76
 eig:   6.681  6.681  1.072  2.172  2.172
 bond charge predicted
       N       E                     dE             d eps       ncg     rms          rms(c)
DAV:   1    -0.136649150869E+04   -0.11642E+00   -0.18161E+01  1376   0.609E+00    0.720E-01
DAV:   2    -0.136658529016E+04   -0.93781E-01   -0.99575E-01  2312   0.242E+00    0.377E-01
DAV:   3    -0.136659032446E+04   -0.50343E-02   -0.78258E-02  2584   0.469E-01    0.296E-01
DAV:   4    -0.136658874422E+04    0.15802E-02   -0.84705E-03  2552   0.210E-01    0.189E-01
DAV:   5    -0.136658788456E+04    0.85966E-03   -0.38583E-03  2336   0.124E-01    0.733E-02
DAV:   6    -0.136658797209E+04   -0.87532E-04   -0.19094E-03  2432   0.803E-02    0.520E-02
DAV:   7    -0.136658798041E+04   -0.83159E-05   -0.68767E-04  2440   0.499E-02    0.367E-02
DAV:   8    -0.136658798369E+04   -0.32766E-05   -0.27070E-04  2584   0.309E-02    0.223E-02
DAV:   9    -0.136658798214E+04    0.15424E-05   -0.56513E-05  2496   0.167E-02    0.170E-02
DAV:  10    -0.136658798216E+04   -0.16837E-07   -0.41139E-05  2496   0.118E-02    0.100E-02
DAV:  11    -0.136658798168E+04    0.47714E-06   -0.15162E-05  1960   0.848E-03    0.396E-03
DAV:  12    -0.136658798178E+04   -0.97090E-07   -0.27476E-06  1096   0.548E-03
  15 F= -.13665880E+04 E0= -.13665880E+04  d E =-.212898E+00
 BRION: g(F)=  0.109E+00 g(S)=  0.000E+00 retain N=  3 mean eig= 3.00
 eig:   3.864  3.864  1.271
 bond charge predicted
       N       E                     dE             d eps       ncg     rms          rms(c)
DAV:   1    -0.136667579808E+04   -0.87816E-01   -0.28581E+01  1376   0.765E+00    0.884E-01
DAV:   2    -0.136682392391E+04   -0.14813E+00   -0.15664E+00  2304   0.307E+00    0.463E-01
DAV:   3    -0.136683203707E+04   -0.81132E-02   -0.12212E-01  2584   0.587E-01    0.359E-01
DAV:   4    -0.136682984462E+04    0.21925E-02   -0.12522E-02  2560   0.259E-01    0.240E-01
DAV:   5    -0.136682845241E+04    0.13922E-02   -0.56668E-03  2376   0.148E-01    0.965E-02
DAV:   6    -0.136682851721E+04   -0.64802E-04   -0.28835E-03  2416   0.999E-02    0.613E-02
DAV:   7    -0.136682854999E+04   -0.32771E-04   -0.12097E-03  2440   0.656E-02    0.464E-02
DAV:   8    -0.136682855251E+04   -0.25222E-05   -0.44468E-04  2600   0.409E-02    0.306E-02
DAV:   9    -0.136682854820E+04    0.43054E-05   -0.10686E-04  2536   0.222E-02    0.213E-02
DAV:  10    -0.136682854812E+04    0.85493E-07   -0.57885E-05  2568   0.140E-02    0.121E-02
DAV:  11    -0.136682854787E+04    0.24216E-06   -0.18254E-05  2208   0.918E-03    0.555E-03
DAV:  12    -0.136682854796E+04   -0.89276E-07   -0.73861E-06  1712   0.645E-03
  16 F= -.13668285E+04 E0= -.13668285E+04  d E =-.240566E+00
 BRION: g(F)=  0.932E-01 g(S)=  0.000E+00 retain N=  3 mean eig= 4.46
 eig:   5.957  5.957  1.477
 bond charge predicted
       N       E                     dE             d eps       ncg     rms          rms(c)
DAV:   1    -0.136691704065E+04   -0.88493E-01   -0.16390E+01  1376   0.580E+00    0.655E-01
DAV:   2    -0.136699965018E+04   -0.82610E-01   -0.86878E-01  2304   0.227E+00    0.340E-01
DAV:   3    -0.136700462945E+04   -0.49793E-02   -0.69803E-02  2584   0.435E-01    0.265E-01
DAV:   4    -0.136700363464E+04    0.99481E-03   -0.66263E-03  2592   0.190E-01    0.186E-01
DAV:   5    -0.136700278887E+04    0.84577E-03   -0.31186E-03  2352   0.110E-01    0.756E-02
DAV:   6    -0.136700282541E+04   -0.36535E-04   -0.18085E-03  2384   0.789E-02    0.499E-02
DAV:   7    -0.136700284387E+04   -0.18463E-04   -0.80970E-04  2392   0.523E-02    0.379E-02
DAV:   8    -0.136700284193E+04    0.19402E-05   -0.27332E-04  2584   0.327E-02    0.254E-02
DAV:   9    -0.136700283829E+04    0.36352E-05   -0.74582E-05  2528   0.177E-02    0.165E-02
DAV:  10    -0.136700283859E+04   -0.29460E-06   -0.31144E-05  2488   0.106E-02    0.954E-03
DAV:  11    -0.136700283817E+04    0.41997E-06   -0.51452E-06  1256   0.691E-03
  17 F= -.13670028E+04 E0= -.13670028E+04  d E =-.174290E+00
 BRION: g(F)=  0.859E-01 g(S)=  0.000E+00 retain N=  3 mean eig= 4.40
 eig:   5.889  5.889  1.433
 bond charge predicted
       N       E                     dE             d eps       ncg     rms          rms(c)
DAV:   1    -0.136707136217E+04   -0.68524E-01   -0.27694E+01  1368   0.754E+00    0.839E-01
DAV:   2    -0.136721156102E+04   -0.14020E+00   -0.14726E+00  2296   0.294E+00    0.435E-01
DAV:   3    -0.136722022106E+04   -0.86600E-02   -0.11936E-01  2584   0.572E-01    0.344E-01
DAV:   4    -0.136721875573E+04    0.14653E-02   -0.11005E-02  2592   0.245E-01    0.248E-01
DAV:   5    -0.136721721870E+04    0.15370E-02   -0.47787E-03  2376   0.140E-01    0.109E-01
DAV:   6    -0.136721717912E+04    0.39578E-04   -0.33835E-03  2312   0.108E-01    0.619E-02
DAV:   7    -0.136721724172E+04   -0.62600E-04   -0.16482E-03  2464   0.735E-02    0.550E-02
DAV:   8    -0.136721722888E+04    0.12838E-04   -0.45404E-04  2568   0.440E-02    0.365E-02
DAV:   9    -0.136721722023E+04    0.86506E-05   -0.17009E-04  2520   0.248E-02    0.207E-02
DAV:  10    -0.136721722289E+04   -0.26606E-05   -0.52595E-05  2520   0.143E-02    0.137E-02
DAV:  11    -0.136721722271E+04    0.18340E-06   -0.13077E-05  1968   0.849E-03    0.862E-03
DAV:  12    -0.136721722217E+04    0.53276E-06   -0.17566E-05  1776   0.832E-03    0.604E-03
DAV:  13    -0.136721722214E+04    0.36744E-07   -0.59479E-06  1520   0.600E-03
  18 F= -.13672172E+04 E0= -.13672172E+04  d E =-.214384E+00
 BRION: g(F)=  0.780E-01 g(S)=  0.000E+00 retain N=  3 mean eig= 5.60
 eig:   7.519  7.519  1.766
 bond charge predicted
       N       E                     dE             d eps       ncg     rms          rms(c)
DAV:   1    -0.136723757902E+04   -0.20357E-01   -0.41827E+01  1368   0.925E+00    0.103E+00
DAV:   2    -0.136744773142E+04   -0.21015E+00   -0.22037E+00  2280   0.359E+00    0.534E-01
DAV:   3    -0.136746064470E+04   -0.12913E-01   -0.17808E-01  2592   0.703E-01    0.419E-01
DAV:   4    -0.136745838512E+04    0.22596E-02   -0.16494E-02  2600   0.300E-01    0.301E-01
DAV:   5    -0.136745608744E+04    0.22977E-02   -0.71948E-03  2384   0.172E-01    0.132E-01
DAV:   6    -0.136745603683E+04    0.50607E-04   -0.50757E-03  2336   0.133E-01    0.757E-02
DAV:   7    -0.136745613169E+04   -0.94859E-04   -0.24237E-03  2448   0.899E-02    0.663E-02
DAV:   8    -0.136745611399E+04    0.17697E-04   -0.66372E-04  2568   0.525E-02    0.440E-02
DAV:   9    -0.136745610059E+04    0.13398E-04   -0.25778E-04  2512   0.306E-02    0.246E-02
DAV:  10    -0.136745610520E+04   -0.46028E-05   -0.84440E-05  2560   0.183E-02    0.172E-02
DAV:  11    -0.136745610437E+04    0.82333E-06   -0.24090E-05  2368   0.107E-02    0.950E-03
DAV:  12    -0.136745610394E+04    0.43488E-06   -0.21346E-05  1952   0.915E-03    0.700E-03
DAV:  13    -0.136745610385E+04    0.90135E-07   -0.78481E-06  1680   0.613E-03
  19 F= -.13674561E+04 E0= -.13674561E+04  d E =-.238882E+00
 BRION: g(F)=  0.682E-01 g(S)=  0.000E+00 retain N=  2 mean eig= 4.24
 eig:   4.235  4.235
 bond charge predicted
       N       E                     dE             d eps       ncg     rms          rms(c)
DAV:   1    -0.136751610421E+04   -0.60000E-01   -0.98776E+00  1360   0.450E+00    0.511E-01
DAV:   2    -0.136756512024E+04   -0.49016E-01   -0.51598E-01  2280   0.172E+00    0.265E-01
DAV:   3    -0.136756810523E+04   -0.29850E-02   -0.41828E-02  2592   0.338E-01    0.212E-01
DAV:   4    -0.136756752222E+04    0.58301E-03   -0.39516E-03  2592   0.148E-01    0.150E-01
DAV:   5    -0.136756696853E+04    0.55369E-03   -0.21019E-03  2328   0.908E-02    0.580E-02
DAV:   6    -0.136756701566E+04   -0.47134E-04   -0.12127E-03  2424   0.653E-02    0.460E-02
DAV:   7    -0.136756701578E+04   -0.12148E-06   -0.52834E-04  2400   0.429E-02    0.315E-02
DAV:   8    -0.136756701348E+04    0.23071E-05   -0.18013E-04  2536   0.268E-02    0.196E-02
DAV:   9    -0.136756701203E+04    0.14430E-05   -0.39961E-05  2488   0.135E-02    0.137E-02
DAV:  10    -0.136756701196E+04    0.72003E-07   -0.17026E-05  1992   0.814E-03    0.721E-03
DAV:  11    -0.136756701172E+04    0.23843E-06   -0.22998E-06  1040   0.610E-03
  20 F= -.13675670E+04 E0= -.13675670E+04  d E =-.110908E+00
 BRION: g(F)=  0.645E-01 g(S)=  0.000E+00 retain N=  3 mean eig= 4.06
 eig:   5.499  5.499  1.192
