 running on  160 total cores
 distrk:  each k-point on  160 cores,    1 groups
 distr:  one band on   20 cores,    8 groups
 using from now: INCAR     
 vasp.5.4.4.18Apr17-6-g9f103f2a35 (build May 01 2020 14:22:42) gamma-only       
  
 POSCAR found type information on POSCAR  O  La Zr Li Al
 POSCAR found :  5 types and     190 ions
 scaLAPACK will be used
 LDA part: xc-table for Pade appr. of Perdew
 POSCAR, INCAR and KPOINTS ok, starting setup
 FFT: planning ...
 WAVECAR not read
 WARNING: random wavefunctions but no delay for mixing, default for NELMDL
 entering main loop
       N       E                     dE             d eps       ncg     rms          rms(c)
DAV:   1     0.253107284615E+05    0.25311E+05   -0.42270E+05  1608   0.253E+03
DAV:   2     0.949496932791E+04   -0.15816E+05   -0.14531E+05  1424   0.713E+02
DAV:   3     0.273522624462E+04   -0.67597E+04   -0.61555E+04  1504   0.356E+02
DAV:   4    -0.342255488695E+03   -0.30775E+04   -0.28745E+04  2048   0.221E+02
DAV:   5    -0.139892778548E+04   -0.10567E+04   -0.10139E+04  2528   0.141E+02    0.116E+02
DAV:   6    -0.129379263992E+04    0.10514E+03   -0.14827E+03  2448   0.669E+01    0.504E+01
DAV:   7    -0.131723356258E+04   -0.23441E+02   -0.41559E+02  2552   0.346E+01    0.289E+01
DAV:   8    -0.131839674902E+04   -0.11632E+01   -0.18287E+02  2552   0.240E+01    0.202E+01
DAV:   9    -0.132117512644E+04   -0.27784E+01   -0.39596E+01  2576   0.129E+01    0.148E+01
DAV:  10    -0.131817094350E+04    0.30042E+01   -0.21434E+01  2576   0.815E+00    0.695E+00
DAV:  11    -0.131799584369E+04    0.17510E+00   -0.63109E+00  2624   0.490E+00    0.478E+00
DAV:  12    -0.131852755871E+04   -0.53172E+00   -0.41315E+00  2448   0.328E+00    0.102E+01
DAV:  13    -0.131824993296E+04    0.27763E+00   -0.17135E+00  2552   0.203E+00    0.493E+00
DAV:  14    -0.131804703641E+04    0.20290E+00   -0.10001E+00  2544   0.140E+00    0.287E+00
DAV:  15    -0.131794482918E+04    0.10221E+00   -0.12386E+00  2376   0.154E+00    0.126E+00
DAV:  16    -0.131794693173E+04   -0.21025E-02   -0.15679E-01  2464   0.940E-01    0.118E+00
DAV:  17    -0.131794413851E+04    0.27932E-02   -0.55896E-02  2536   0.370E-01    0.115E+00
DAV:  18    -0.131793606316E+04    0.80753E-02   -0.18400E-02  2496   0.230E-01    0.547E-01
DAV:  19    -0.131793488727E+04    0.11759E-02   -0.10213E-02  2528   0.149E-01    0.227E-01
DAV:  20    -0.131793485445E+04    0.32823E-04   -0.22662E-03  2424   0.921E-02    0.148E-01
DAV:  21    -0.131793467036E+04    0.18408E-03   -0.16459E-03  2528   0.614E-02    0.619E-02
DAV:  22    -0.131793471079E+04   -0.40428E-04   -0.43211E-04  2592   0.370E-02    0.539E-02
DAV:  23    -0.131793468193E+04    0.28857E-04   -0.17145E-04  2480   0.238E-02    0.145E-02
DAV:  24    -0.131793468267E+04   -0.73237E-06   -0.51186E-05  2400   0.148E-02    0.855E-03
DAV:  25    -0.131793468599E+04   -0.33262E-05   -0.75018E-06  1392   0.699E-03    0.599E-03
DAV:  26    -0.131793468621E+04   -0.21781E-06   -0.57086E-06  1312   0.599E-03
   1 F= -.13179347E+04 E0= -.13178483E+04  d E =-.131793E+04
 BRION: g(F)=  0.671E+02 g(S)=  0.000E+00
 bond charge predicted
       N       E                     dE             d eps       ncg     rms          rms(c)
DAV:   1    -0.128864056519E+04    0.29294E+02   -0.77573E+03  1744   0.133E+02    0.277E+01
DAV:   2    -0.134885777359E+04   -0.60217E+02   -0.68975E+02  2560   0.615E+01    0.144E+01
DAV:   3    -0.134779954014E+04    0.10582E+01   -0.41493E+01  2624   0.161E+01    0.960E+00
DAV:   4    -0.134573478463E+04    0.20648E+01   -0.12706E+01  2512   0.750E+00    0.467E+00
DAV:   5    -0.134540511845E+04    0.32967E+00   -0.36327E+00  2576   0.456E+00    0.301E+00
DAV:   6    -0.134531300521E+04    0.92113E-01   -0.25770E+00  2592   0.308E+00    0.152E+00
DAV:   7    -0.134532135445E+04   -0.83492E-02   -0.64387E-01  2552   0.175E+00    0.119E+00
DAV:   8    -0.134531638071E+04    0.49737E-02   -0.31415E-01  2624   0.968E-01    0.693E-01
DAV:   9    -0.134531439141E+04    0.19893E-02   -0.49064E-02  2584   0.544E-01    0.477E-01
DAV:  10    -0.134531243434E+04    0.19571E-02   -0.40954E-02  2576   0.385E-01    0.215E-01
DAV:  11    -0.134531343347E+04   -0.99913E-03   -0.13007E-02  2536   0.231E-01    0.156E-01
DAV:  12    -0.134531337022E+04    0.63252E-04   -0.28665E-03  2624   0.112E-01    0.713E-02
DAV:  13    -0.134531344499E+04   -0.74768E-04   -0.18804E-03  2608   0.751E-02    0.458E-02
DAV:  14    -0.134531343239E+04    0.12603E-04   -0.39474E-04  2568   0.448E-02    0.197E-02
DAV:  15    -0.134531344168E+04   -0.92910E-05   -0.11988E-04  2624   0.231E-02    0.884E-03
DAV:  16    -0.134531344450E+04   -0.28260E-05   -0.31501E-05  2600   0.118E-02    0.644E-03
DAV:  17    -0.134531344474E+04   -0.23519E-06   -0.48957E-06  1384   0.652E-03
   2 F= -.13453134E+04 E0= -.13453134E+04  d E =-.273788E+02
 BRION: g(F)=  0.278E+02 g(S)=  0.000E+00 retain N=  1 mean eig= 0.66
 eig:   0.655
 bond charge predicted
       N       E                     dE             d eps       ncg     rms          rms(c)
DAV:   1    -0.133516531084E+04    0.10148E+02   -0.24037E+03  1432   0.677E+01    0.146E+01
DAV:   2    -0.135225010509E+04   -0.17085E+02   -0.20386E+02  2496   0.302E+01    0.140E+01
DAV:   3    -0.135279657445E+04   -0.54647E+00   -0.13864E+01  2576   0.871E+00    0.112E+01
DAV:   4    -0.135224771402E+04    0.54886E+00   -0.43052E+00  2440   0.403E+00    0.646E+00
DAV:   5    -0.135208171579E+04    0.16600E+00   -0.19289E+00  2176   0.340E+00    0.386E+00
DAV:   6    -0.135192513331E+04    0.15658E+00   -0.20135E+00  2496   0.251E+00    0.186E+00
DAV:   7    -0.135193115113E+04   -0.60178E-02   -0.43234E-01  2512   0.132E+00    0.108E+00
DAV:   8    -0.135192678281E+04    0.43683E-02   -0.72394E-02  2592   0.540E-01    0.755E-01
DAV:   9    -0.135192435405E+04    0.24288E-02   -0.24742E-02  2560   0.331E-01    0.510E-01
DAV:  10    -0.135192174294E+04    0.26111E-02   -0.27861E-02  2336   0.281E-01    0.172E-01
DAV:  11    -0.135192203216E+04   -0.28922E-03   -0.69866E-03  2288   0.172E-01    0.900E-02
DAV:  12    -0.135192211682E+04   -0.84667E-04   -0.16076E-03  2600   0.757E-02    0.593E-02
DAV:  13    -0.135192212331E+04   -0.64890E-05   -0.71007E-04  2592   0.498E-02    0.300E-02
DAV:  14    -0.135192213273E+04   -0.94221E-05   -0.16652E-04  2608   0.285E-02    0.148E-02
DAV:  15    -0.135192213571E+04   -0.29779E-05   -0.71101E-05  2608   0.159E-02    0.916E-03
DAV:  16    -0.135192213741E+04   -0.17015E-05   -0.20900E-05  2488   0.978E-03    0.729E-03
DAV:  17    -0.135192213754E+04   -0.12906E-06   -0.30245E-06  1120   0.498E-03
   3 F= -.13519221E+04 E0= -.13519221E+04  d E =-.660869E+01
 BRION: g(F)=  0.672E+01 g(S)=  0.000E+00 retain N=  2 mean eig= 0.91
 eig:   0.475  1.349
 bond charge predicted
       N       E                     dE             d eps       ncg     rms          rms(c)
DAV:   1    -0.135301031540E+04   -0.10882E+01   -0.46924E+02  1400   0.308E+01    0.672E+00
DAV:   2    -0.135533987576E+04   -0.23296E+01   -0.26449E+01  2304   0.115E+01    0.303E+00
DAV:   3    -0.135539047174E+04   -0.50596E-01   -0.22308E+00  2592   0.291E+00    0.243E+00
DAV:   4    -0.135530994661E+04    0.80525E-01   -0.68362E-01  2544   0.167E+00    0.112E+00
DAV:   5    -0.135530191758E+04    0.80290E-02   -0.16972E-01  2424   0.949E-01    0.828E-01
DAV:   6    -0.135529823824E+04    0.36793E-02   -0.16007E-01  2544   0.712E-01    0.355E-01
DAV:   7    -0.135529850540E+04   -0.26716E-03   -0.28315E-02  2408   0.359E-01    0.301E-01
DAV:   8    -0.135529824060E+04    0.26480E-03   -0.13470E-02  2392   0.191E-01    0.143E-01
DAV:   9    -0.135529825308E+04   -0.12480E-04   -0.36764E-03  2624   0.121E-01    0.919E-02
DAV:  10    -0.135529832722E+04   -0.74139E-04   -0.15844E-03  2552   0.789E-02    0.861E-02
DAV:  11    -0.135529826970E+04    0.57514E-04   -0.81033E-04  2560   0.559E-02    0.354E-02
DAV:  12    -0.135529828361E+04   -0.13905E-04   -0.34713E-04  2520   0.341E-02    0.231E-02
DAV:  13    -0.135529828442E+04   -0.81045E-06   -0.60847E-05  2592   0.172E-02    0.137E-02
DAV:  14    -0.135529828474E+04   -0.32106E-06   -0.31140E-05  2520   0.982E-03    0.580E-03
DAV:  15    -0.135529828499E+04   -0.24943E-06   -0.30602E-06  1216   0.576E-03
   4 F= -.13552983E+04 E0= -.13552983E+04  d E =-.337615E+01
 BRION: g(F)=  0.203E+01 g(S)=  0.000E+00 retain N=  3 mean eig= 1.02
 eig:   0.631  1.213  1.213
 bond charge predicted
       N       E                     dE             d eps       ncg     rms          rms(c)
DAV:   1    -0.135600097328E+04   -0.70269E+00   -0.17357E+02  1352   0.187E+01    0.309E+00
DAV:   2    -0.135684409857E+04   -0.84313E+00   -0.90935E+00  2280   0.701E+00    0.150E+00
DAV:   3    -0.135687480011E+04   -0.30702E-01   -0.70845E-01  2608   0.151E+00    0.121E+00
DAV:   4    -0.135685225910E+04    0.22541E-01   -0.13808E-01  2568   0.792E-01    0.635E-01
DAV:   5    -0.135684940006E+04    0.28590E-02   -0.53200E-02  2448   0.462E-01    0.371E-01
DAV:   6    -0.135684921408E+04    0.18598E-03   -0.25497E-02  2600   0.312E-01    0.219E-01
DAV:   7    -0.135684907817E+04    0.13591E-03   -0.95910E-03  2440   0.184E-01    0.149E-01
DAV:   8    -0.135684906515E+04    0.13016E-04   -0.26433E-03  2616   0.987E-02    0.902E-02
DAV:   9    -0.135684900035E+04    0.64802E-04   -0.98983E-04  2624   0.617E-02    0.497E-02
DAV:  10    -0.135684903759E+04   -0.37236E-04   -0.51582E-04  2384   0.410E-02    0.463E-02
DAV:  11    -0.135684901198E+04    0.25610E-04   -0.21613E-04  2528   0.293E-02    0.176E-02
DAV:  12    -0.135684901552E+04   -0.35474E-05   -0.10168E-04  2440   0.187E-02    0.123E-02
DAV:  13    -0.135684901514E+04    0.38526E-06   -0.18619E-05  2056   0.982E-03    0.706E-03
DAV:  14    -0.135684901534E+04   -0.19568E-06   -0.10966E-05  1680   0.640E-03    0.301E-03
DAV:  15    -0.135684901531E+04    0.29846E-07   -0.12333E-06  1008   0.436E-03
   5 F= -.13568490E+04 E0= -.13568490E+04  d E =-.155073E+01
 BRION: g(F)=  0.130E+01 g(S)=  0.000E+00 retain N=  4 mean eig= 1.62
 eig:   2.569  2.569  0.679  0.679
 bond charge predicted
       N       E                     dE             d eps       ncg     rms          rms(c)
DAV:   1    -0.135740756285E+04   -0.55855E+00   -0.15849E+02  1360   0.178E+01    0.231E+00
DAV:   2    -0.135817105920E+04   -0.76350E+00   -0.80187E+00  2304   0.645E+00    0.122E+00
DAV:   3    -0.135820483263E+04   -0.33773E-01   -0.59173E-01  2616   0.132E+00    0.974E-01
DAV:   4    -0.135818787392E+04    0.16959E-01   -0.88515E-02  2520   0.655E-01    0.548E-01
DAV:   5    -0.135818328488E+04    0.45890E-02   -0.38489E-02  2424   0.401E-01    0.254E-01
DAV:   6    -0.135818412285E+04   -0.83797E-03   -0.17319E-02  2552   0.247E-01    0.174E-01
DAV:   7    -0.135818396498E+04    0.15787E-03   -0.44486E-03  2480   0.136E-01    0.118E-01
DAV:   8    -0.135818397082E+04   -0.58405E-05   -0.22125E-03  2496   0.813E-02    0.634E-02
DAV:   9    -0.135818393834E+04    0.32478E-04   -0.38422E-04  2600   0.444E-02    0.408E-02
DAV:  10    -0.135818394808E+04   -0.97397E-05   -0.34066E-04  2480   0.331E-02    0.298E-02
DAV:  11    -0.135818394361E+04    0.44659E-05   -0.11691E-04  2512   0.227E-02    0.119E-02
DAV:  12    -0.135818394625E+04   -0.26426E-05   -0.45469E-05  2368   0.128E-02    0.113E-02
DAV:  13    -0.135818394522E+04    0.10303E-05   -0.15028E-05  1912   0.822E-03    0.586E-03
DAV:  14    -0.135818394510E+04    0.12318E-06   -0.44625E-06  1280   0.563E-03
   6 F= -.13581839E+04 E0= -.13581839E+04  d E =-.133493E+01
 BRION: g(F)=  0.765E+00 g(S)=  0.000E+00 retain N=  5 mean eig= 1.95
 eig:   3.659  3.659  0.852  0.852  0.736
 bond charge predicted
       N       E                     dE             d eps       ncg     rms          rms(c)
DAV:   1    -0.135863161701E+04   -0.44767E+00   -0.79944E+01  1392   0.128E+01    0.153E+00
DAV:   2    -0.135904234296E+04   -0.41073E+00   -0.43187E+00  2296   0.491E+00    0.794E-01
DAV:   3    -0.135906614969E+04   -0.23807E-01   -0.34157E-01  2616   0.978E-01    0.648E-01
DAV:   4    -0.135906056663E+04    0.55831E-02   -0.36476E-02  2616   0.455E-01    0.432E-01
DAV:   5    -0.135905661022E+04    0.39564E-02   -0.17011E-02  2368   0.257E-01    0.172E-01
DAV:   6    -0.135905708530E+04   -0.47508E-03   -0.99993E-03  2440   0.190E-01    0.137E-01
DAV:   7    -0.135905706025E+04    0.25054E-04   -0.51023E-03  2376   0.131E-01    0.995E-02
DAV:   8    -0.135905705465E+04    0.55933E-05   -0.18740E-03  2616   0.812E-02    0.613E-02
DAV:   9    -0.135905703048E+04    0.24177E-04   -0.37805E-04  2568   0.420E-02    0.440E-02
DAV:  10    -0.135905703054E+04   -0.66371E-07   -0.20962E-04  2584   0.251E-02    0.263E-02
DAV:  11    -0.135905703275E+04   -0.22081E-05   -0.98536E-05  2408   0.200E-02    0.167E-02
DAV:  12    -0.135905702961E+04    0.31403E-05   -0.37171E-05  2304   0.145E-02    0.119E-02
DAV:  13    -0.135905702951E+04    0.95897E-07   -0.29430E-05  2216   0.931E-03    0.639E-03
DAV:  14    -0.135905702917E+04    0.34833E-06   -0.38638E-06  1240   0.516E-03
   7 F= -.13590570E+04 E0= -.13590570E+04  d E =-.873084E+00
 BRION: g(F)=  0.533E+00 g(S)=  0.000E+00 retain N=  6 mean eig= 2.54
 eig:   5.358  5.358  1.461  1.461  0.795  0.795
 bond charge predicted
       N       E                     dE             d eps       ncg     rms          rms(c)
DAV:   1    -0.135940261274E+04   -0.34558E+00   -0.12282E+02  1400   0.159E+01    0.189E+00
DAV:   2    -0.136003425043E+04   -0.63164E+00   -0.66452E+00  2288   0.610E+00    0.975E-01
DAV:   3    -0.136007342276E+04   -0.39172E-01   -0.53187E-01  2600   0.123E+00    0.795E-01
DAV:   4    -0.136006632120E+04    0.71016E-02   -0.53565E-02  2608   0.555E-01    0.549E-01
DAV:   5    -0.136006035780E+04    0.59634E-02   -0.28341E-02  2304   0.336E-01    0.209E-01
DAV:   6    -0.136006148898E+04   -0.11312E-02   -0.16072E-02  2464   0.241E-01    0.184E-01
DAV:   7    -0.136006130228E+04    0.18670E-03   -0.66009E-03  2464   0.151E-01    0.121E-01
DAV:   8    -0.136006125865E+04    0.43636E-04   -0.25241E-03  2600   0.970E-02    0.646E-02
DAV:   9    -0.136006123727E+04    0.21374E-04   -0.43508E-04  2456   0.462E-02    0.478E-02
DAV:  10    -0.136006124193E+04   -0.46578E-05   -0.23981E-04  2544   0.281E-02    0.247E-02
DAV:  11    -0.136006124354E+04   -0.16096E-05   -0.83943E-05  2520   0.195E-02    0.135E-02
DAV:  12    -0.136006124460E+04   -0.10555E-05   -0.31939E-05  2416   0.129E-02    0.123E-02
DAV:  13    -0.136006124344E+04    0.11563E-05   -0.22255E-05  2008   0.836E-03    0.651E-03
DAV:  14    -0.136006124317E+04    0.27173E-06   -0.35883E-06  1200   0.540E-03
   8 F= -.13600612E+04 E0= -.13600612E+04  d E =-.100421E+01
 BRION: g(F)=  0.422E+00 g(S)=  0.000E+00 retain N=  7 mean eig= 2.83
 eig:   6.019  6.019  2.515  2.515  0.932  0.932  0.886
 bond charge predicted
       N       E                     dE             d eps       ncg     rms          rms(c)
DAV:   1    -0.136042770713E+04   -0.36646E+00   -0.82490E+01  1392   0.128E+01    0.157E+00
DAV:   2    -0.136084682006E+04   -0.41911E+00   -0.43827E+00  2288   0.492E+00    0.783E-01
DAV:   3    -0.136087109562E+04   -0.24276E-01   -0.34297E-01  2592   0.965E-01    0.618E-01
DAV:   4    -0.136086508289E+04    0.60127E-02   -0.37781E-02  2552   0.454E-01    0.383E-01
DAV:   5    -0.136086250428E+04    0.25786E-02   -0.16513E-02  2424   0.257E-01    0.142E-01
DAV:   6    -0.136086312344E+04   -0.61916E-03   -0.71080E-03  2568   0.157E-01    0.107E-01
DAV:   7    -0.136086310471E+04    0.18736E-04   -0.23074E-03  2576   0.973E-02    0.719E-02
DAV:   8    -0.136086310652E+04   -0.18156E-05   -0.86257E-04  2600   0.563E-02    0.400E-02
DAV:   9    -0.136086310285E+04    0.36678E-05   -0.17739E-04  2560   0.296E-02    0.301E-02
DAV:  10    -0.136086310469E+04   -0.18379E-05   -0.12475E-04  2600   0.209E-02    0.166E-02
DAV:  11    -0.136086310358E+04    0.11123E-05   -0.39400E-05  2376   0.134E-02    0.691E-03
DAV:  12    -0.136086310463E+04   -0.10464E-05   -0.12469E-05  1904   0.804E-03    0.599E-03
DAV:  13    -0.136086310411E+04    0.51600E-06   -0.17308E-06  1008   0.476E-03
   9 F= -.13608631E+04 E0= -.13608631E+04  d E =-.801861E+00
 BRION: g(F)=  0.346E+00 g(S)=  0.000E+00 retain N=  8 mean eig= 3.52
 eig:   7.848  7.848  4.091  4.091  1.243  1.243  0.886  0.886
 bond charge predicted
       N       E                     dE             d eps       ncg     rms          rms(c)
DAV:   1    -0.136117935179E+04   -0.31625E+00   -0.10052E+02  1376   0.142E+01    0.169E+00
DAV:   2    -0.136169888629E+04   -0.51953E+00   -0.54633E+00  2288   0.547E+00    0.847E-01
DAV:   3    -0.136172993865E+04   -0.31052E-01   -0.43682E-01  2584   0.110E+00    0.670E-01
DAV:   4    -0.136172330838E+04    0.66303E-02   -0.43249E-02  2568   0.492E-01    0.449E-01
DAV:   5    -0.136171891494E+04    0.43934E-02   -0.20826E-02  2352   0.279E-01    0.168E-01
DAV:   6    -0.136171956335E+04   -0.64841E-03   -0.10087E-02  2480   0.185E-01    0.126E-01
DAV:   7    -0.136171958281E+04   -0.19451E-04   -0.40662E-03  2520   0.119E-01    0.849E-02
DAV:   8    -0.136171957366E+04    0.91437E-05   -0.12079E-03  2616   0.706E-02    0.513E-02
DAV:   9    -0.136171956491E+04    0.87480E-05   -0.31610E-04  2560   0.371E-02    0.371E-02
DAV:  10    -0.136171956997E+04   -0.50545E-05   -0.17111E-04  2600   0.242E-02    0.211E-02
DAV:  11    -0.136171956904E+04    0.92301E-06   -0.63671E-05  2472   0.167E-02    0.923E-03
DAV:  12    -0.136171956991E+04   -0.86981E-06   -0.20597E-05  2072   0.107E-02    0.775E-03
DAV:  13    -0.136171956958E+04    0.33937E-06   -0.74104E-06  1496   0.576E-03
  10 F= -.13617196E+04 E0= -.13617196E+04  d E =-.856465E+00
 BRION: g(F)=  0.296E+00 g(S)=  0.000E+00 retain N=  6 mean eig= 3.80
 eig:   7.770  7.770  2.435  2.435  1.196  1.196
 bond charge predicted
       N       E                     dE             d eps       ncg     rms          rms(c)
DAV:   1    -0.136205099006E+04   -0.33142E+00   -0.51016E+01  1368   0.102E+01    0.119E+00
DAV:   2    -0.136231405218E+04   -0.26306E+00   -0.27643E+00  2296   0.391E+00    0.604E-01
DAV:   3    -0.136232933419E+04   -0.15282E-01   -0.21890E-01  2568   0.782E-01    0.476E-01
DAV:   4    -0.136232569174E+04    0.36424E-02   -0.21668E-02  2560   0.349E-01    0.322E-01
DAV:   5    -0.136232307136E+04    0.26204E-02   -0.10471E-02  2328   0.209E-01    0.121E-01
DAV:   6    -0.136232338592E+04   -0.31457E-03   -0.62461E-03  2456   0.148E-01    0.944E-02
DAV:   7    -0.136232340343E+04   -0.17511E-04   -0.22077E-03  2464   0.881E-02    0.701E-02
DAV:   8    -0.136232338921E+04    0.14222E-04   -0.75836E-04  2624   0.531E-02    0.379E-02
DAV:   9    -0.136232337874E+04    0.10472E-04   -0.18996E-04  2440   0.289E-02    0.261E-02
DAV:  10    -0.136232338151E+04   -0.27749E-05   -0.96451E-05  2456   0.190E-02    0.166E-02
DAV:  11    -0.136232338021E+04    0.13071E-05   -0.37312E-05  2352   0.131E-02    0.709E-03
DAV:  12    -0.136232338125E+04   -0.10433E-05   -0.13494E-05  1808   0.846E-03    0.718E-03
DAV:  13    -0.136232338053E+04    0.72028E-06   -0.37395E-06  1216   0.554E-03
  11 F= -.13623234E+04 E0= -.13623234E+04  d E =-.603811E+00
 BRION: g(F)=  0.269E+00 g(S)=  0.000E+00 retain N=  3 mean eig= 4.05
 eig:   5.295  5.295  1.552
 bond charge predicted
       N       E                     dE             d eps       ncg     rms          rms(c)
DAV:   1    -0.136265123871E+04   -0.32786E+00   -0.41153E+01  1368   0.914E+00    0.107E+00
DAV:   2    -0.136286598938E+04   -0.21475E+00   -0.22688E+00  2296   0.356E+00    0.537E-01
DAV:   3    -0.136287895845E+04   -0.12969E-01   -0.18307E-01  2576   0.721E-01    0.428E-01
DAV:   4    -0.136287637905E+04    0.25794E-02   -0.17226E-02  2576   0.316E-01    0.303E-01
DAV:   5    -0.136287402328E+04    0.23558E-02   -0.91515E-03  2344   0.189E-01    0.122E-01
DAV:   6    -0.136287418555E+04   -0.16227E-03   -0.53983E-03  2376   0.137E-01    0.956E-02
DAV:   7    -0.136287419191E+04   -0.63633E-05   -0.23939E-03  2480   0.902E-02    0.679E-02
DAV:   8    -0.136287417672E+04    0.15194E-04   -0.84413E-04  2576   0.569E-02    0.412E-02
DAV:   9    -0.136287416741E+04    0.93146E-05   -0.20034E-04  2528   0.292E-02    0.279E-02
DAV:  10    -0.136287416806E+04   -0.65085E-06   -0.90047E-05  2576   0.177E-02    0.156E-02
DAV:  11    -0.136287416911E+04   -0.10517E-05   -0.36044E-05  2376   0.128E-02    0.909E-03
DAV:  12    -0.136287416857E+04    0.53355E-06   -0.12292E-05  1840   0.891E-03    0.753E-03
DAV:  13    -0.136287416839E+04    0.18644E-06   -0.99333E-06  1696   0.602E-03
  12 F= -.13628742E+04 E0= -.13628742E+04  d E =-.550788E+00
 BRION: g(F)=  0.253E+00 g(S)=  0.000E+00 retain N=  3 mean eig= 4.73
 eig:   6.186  6.186  1.807
 bond charge predicted
       N       E                     dE             d eps       ncg     rms          rms(c)
DAV:   1    -0.136318123447E+04   -0.30707E+00   -0.29601E+01  1368   0.776E+00    0.910E-01
DAV:   2    -0.136333537709E+04   -0.15414E+00   -0.16276E+00  2288   0.304E+00    0.460E-01
DAV:   3    -0.136334469811E+04   -0.93210E-02   -0.13156E-01  2576   0.608E-01    0.370E-01
DAV:   4    -0.136334275590E+04    0.19422E-02   -0.12416E-02  2592   0.267E-01    0.262E-01
DAV:   5    -0.136334095055E+04    0.18054E-02   -0.65560E-03  2320   0.164E-01    0.104E-01
DAV:   6    -0.136334109069E+04   -0.14014E-03   -0.42229E-03  2416   0.122E-01    0.835E-02
DAV:   7    -0.136334108785E+04    0.28423E-05   -0.17359E-03  2440   0.764E-02    0.619E-02
DAV:   8    -0.136334107132E+04    0.16530E-04   -0.65531E-04  2568   0.495E-02    0.347E-02
DAV:   9    -0.136334106287E+04    0.84461E-05   -0.14907E-04  2432   0.253E-02    0.233E-02
DAV:  10    -0.136334106404E+04   -0.11709E-05   -0.71752E-05  2472   0.158E-02    0.137E-02
DAV:  11    -0.136334106419E+04   -0.14940E-06   -0.25664E-05  2256   0.109E-02    0.753E-03
DAV:  12    -0.136334106413E+04    0.68860E-07   -0.10038E-05  1776   0.775E-03    0.669E-03
DAV:  13    -0.136334106385E+04    0.27484E-06   -0.71979E-06  1616   0.548E-03
  13 F= -.13633411E+04 E0= -.13633411E+04  d E =-.466895E+00
 BRION: g(F)=  0.244E+00 g(S)=  0.000E+00 retain N=  3 mean eig= 3.58
 eig:   4.573  4.573  1.597
 bond charge predicted
       N       E                     dE             d eps       ncg     rms          rms(c)
DAV:   1    -0.136363068044E+04   -0.28962E+00   -0.24523E+01  1376   0.702E+00    0.817E-01
DAV:   2    -0.136375762970E+04   -0.12695E+00   -0.13374E+00  2304   0.276E+00    0.413E-01
DAV:   3    -0.136376503131E+04   -0.74016E-02   -0.10609E-01  2584   0.541E-01    0.325E-01
DAV:   4    -0.136376333219E+04    0.16991E-02   -0.99261E-03  2592   0.239E-01    0.226E-01
DAV:   5    -0.136376192026E+04    0.14119E-02   -0.49793E-03  2336   0.146E-01    0.904E-02
DAV:   6    -0.136376200571E+04   -0.85454E-04   -0.31933E-03  2392   0.106E-01    0.676E-02
DAV:   7    -0.136376202158E+04   -0.15867E-04   -0.12217E-03  2472   0.652E-02    0.519E-02
DAV:   8    -0.136376200987E+04    0.11707E-04   -0.43040E-04  2600   0.407E-02    0.290E-02
DAV:   9    -0.136376200392E+04    0.59473E-05   -0.11533E-04  2384   0.217E-02    0.189E-02
DAV:  10    -0.136376200540E+04   -0.14729E-05   -0.52746E-05  2456   0.140E-02    0.123E-02
DAV:  11    -0.136376200469E+04    0.70673E-06   -0.19835E-05  2120   0.980E-03    0.549E-03
DAV:  12    -0.136376200511E+04   -0.41579E-06   -0.81582E-06  1760   0.670E-03
  14 F= -.13637620E+04 E0= -.13637620E+04  d E =-.420941E+00
 BRION: g(F)=  0.233E+00 g(S)=  0.000E+00 retain N=  3 mean eig= 3.70
 eig:   4.814  4.814  1.479
 bond charge predicted
       N       E                     dE             d eps       ncg     rms          rms(c)
DAV:   1    -0.136406761448E+04   -0.30561E+00   -0.31729E+01  1376   0.802E+00    0.919E-01
DAV:   2    -0.136423142833E+04   -0.16381E+00   -0.17280E+00  2288   0.315E+00    0.465E-01
DAV:   3    -0.136424148242E+04   -0.10054E-01   -0.14025E-01  2576   0.624E-01    0.372E-01
DAV:   4    -0.136423955862E+04    0.19238E-02   -0.12683E-02  2608   0.271E-01    0.269E-01
DAV:   5    -0.136423751081E+04    0.20478E-02   -0.65108E-03  2336   0.168E-01    0.112E-01
DAV:   6    -0.136423757009E+04   -0.59280E-04   -0.46282E-03  2352   0.128E-01    0.828E-02
DAV:   7    -0.136423759197E+04   -0.21880E-04   -0.19986E-03  2488   0.824E-02    0.648E-02
DAV:   8    -0.136423756992E+04    0.22054E-04   -0.65077E-04  2568   0.515E-02    0.371E-02
DAV:   9    -0.136423756006E+04    0.98593E-05   -0.19021E-04  2424   0.271E-02    0.227E-02
DAV:  10    -0.136423756282E+04   -0.27648E-05   -0.72522E-05  2464   0.162E-02    0.144E-02
DAV:  11    -0.136423756277E+04    0.55123E-07   -0.27135E-05  2320   0.114E-02    0.836E-03
DAV:  12    -0.136423756256E+04    0.20630E-06   -0.12470E-05  1824   0.814E-03    0.747E-03
DAV:  13    -0.136423756218E+04    0.37641E-06   -0.82114E-06  1632   0.572E-03
  15 F= -.13642376E+04 E0= -.13642376E+04  d E =-.475557E+00
 BRION: g(F)=  0.222E+00 g(S)=  0.000E+00 retain N=  3 mean eig= 3.82
 eig:   5.007  5.007  1.432
 bond charge predicted
       N       E                     dE             d eps       ncg     rms          rms(c)
DAV:   1    -0.136454687073E+04   -0.30931E+00   -0.43973E+01  1384   0.944E+00    0.108E+00
DAV:   2    -0.136477351916E+04   -0.22665E+00   -0.23906E+00  2288   0.369E+00    0.551E-01
DAV:   3    -0.136478731992E+04   -0.13801E-01   -0.19490E-01  2584   0.733E-01    0.436E-01
DAV:   4    -0.136478442014E+04    0.28998E-02   -0.17984E-02  2608   0.323E-01    0.308E-01
DAV:   5    -0.136478175173E+04    0.26684E-02   -0.86411E-03  2352   0.193E-01    0.128E-01
DAV:   6    -0.136478182691E+04   -0.75189E-04   -0.59412E-03  2376   0.144E-01    0.911E-02
DAV:   7    -0.136478186627E+04   -0.39358E-04   -0.24990E-03  2480   0.930E-02    0.716E-02
DAV:   8    -0.136478184512E+04    0.21157E-04   -0.80476E-04  2600   0.571E-02    0.427E-02
DAV:   9    -0.136478183056E+04    0.14553E-04   -0.24434E-04  2456   0.306E-02    0.257E-02
DAV:  10    -0.136478183516E+04   -0.45942E-05   -0.10894E-04  2464   0.197E-02    0.172E-02
DAV:  11    -0.136478183419E+04    0.96679E-06   -0.38994E-05  2376   0.135E-02    0.898E-03
DAV:  12    -0.136478183433E+04   -0.14305E-06   -0.17849E-05  2136   0.935E-03    0.840E-03
DAV:  13    -0.136478183368E+04    0.65184E-06   -0.97221E-06  1680   0.636E-03
  16 F= -.13647818E+04 E0= -.13647818E+04  d E =-.544271E+00
 BRION: g(F)=  0.206E+00 g(S)=  0.000E+00 retain N=  3 mean eig= 4.51
 eig:   5.987  5.987  1.548
 bond charge predicted
       N       E                     dE             d eps       ncg     rms          rms(c)
DAV:   1    -0.136505292211E+04   -0.27109E+00   -0.72169E+01  1376   0.121E+01    0.138E+00
DAV:   2    -0.136542489996E+04   -0.37198E+00   -0.39273E+00  2288   0.472E+00    0.703E-01
DAV:   3    -0.136544756120E+04   -0.22661E-01   -0.32085E-01  2584   0.945E-01    0.562E-01
DAV:   4    -0.136544305622E+04    0.45050E-02   -0.29372E-02  2624   0.411E-01    0.404E-01
DAV:   5    -0.136543824975E+04    0.48065E-02   -0.13695E-02  2360   0.247E-01    0.176E-01
DAV:   6    -0.136543813629E+04    0.11346E-03   -0.10550E-02  2296   0.193E-01    0.115E-01
DAV:   7    -0.136543826934E+04   -0.13304E-03   -0.49564E-03  2464   0.127E-01    0.976E-02
DAV:   8    -0.136543822377E+04    0.45569E-04   -0.12900E-03  2592   0.756E-02    0.606E-02
DAV:   9    -0.136543819254E+04    0.31224E-04   -0.58757E-04  2528   0.448E-02    0.326E-02
DAV:  10    -0.136543820487E+04   -0.12331E-04   -0.17518E-04  2560   0.269E-02    0.256E-02
DAV:  11    -0.136543820138E+04    0.34903E-05   -0.70018E-05  2472   0.174E-02    0.137E-02
DAV:  12    -0.136543820140E+04   -0.20184E-07   -0.41993E-05  2312   0.130E-02    0.125E-02
DAV:  13    -0.136543820031E+04    0.10948E-05   -0.19092E-05  1992   0.839E-03    0.734E-03
DAV:  14    -0.136543819987E+04    0.43967E-06   -0.61612E-06  1504   0.579E-03
  17 F= -.13654382E+04 E0= -.13654382E+04  d E =-.656366E+00
 BRION: g(F)=  0.182E+00 g(S)=  0.000E+00 retain N=  2 mean eig= 4.71
 eig:   4.709  4.709
 bond charge predicted
       N       E                     dE             d eps       ncg     rms          rms(c)
DAV:   1    -0.136567170810E+04   -0.23351E+00   -0.59814E+01  1392   0.110E+01    0.128E+00
DAV:   2    -0.136597928750E+04   -0.30758E+00   -0.32584E+00  2304   0.429E+00    0.657E-01
DAV:   3    -0.136599816656E+04   -0.18879E-01   -0.26995E-01  2584   0.855E-01    0.521E-01
DAV:   4    -0.136599407810E+04    0.40885E-02   -0.25824E-02  2608   0.386E-01    0.365E-01
DAV:   5    -0.136599042648E+04    0.36516E-02   -0.12377E-02  2360   0.227E-01    0.152E-01
DAV:   6    -0.136599052533E+04   -0.98845E-04   -0.79314E-03  2408   0.166E-01    0.109E-01
DAV:   7    -0.136599055468E+04   -0.29350E-04   -0.34434E-03  2464   0.111E-01    0.814E-02
DAV:   8    -0.136599053850E+04    0.16176E-04   -0.11934E-03  2608   0.682E-02    0.513E-02
DAV:   9    -0.136599051991E+04    0.18589E-04   -0.32956E-04  2520   0.363E-02    0.324E-02
DAV:  10    -0.136599052326E+04   -0.33468E-05   -0.14593E-04  2560   0.228E-02    0.201E-02
DAV:  11    -0.136599052364E+04   -0.38256E-06   -0.56073E-05  2432   0.158E-02    0.117E-02
DAV:  12    -0.136599052296E+04    0.68516E-06   -0.24907E-05  2248   0.113E-02    0.988E-03
DAV:  13    -0.136599052241E+04    0.54156E-06   -0.15415E-05  1824   0.727E-03    0.546E-03
DAV:  14    -0.136599052213E+04    0.27900E-06   -0.32602E-06  1160   0.526E-03
  18 F= -.13659905E+04 E0= -.13659905E+04  d E =-.552322E+00
 BRION: g(F)=  0.161E+00 g(S)=  0.000E+00 retain N=  2 mean eig= 4.77
 eig:   4.765  4.765
 bond charge predicted
       N       E                     dE             d eps       ncg     rms          rms(c)
DAV:   1    -0.136618400409E+04   -0.19348E+00   -0.35060E+01  1376   0.841E+00    0.967E-01
DAV:   2    -0.136636305558E+04   -0.17905E+00   -0.18902E+00  2296   0.324E+00    0.496E-01
DAV:   3    -0.136637371089E+04   -0.10655E-01   -0.15470E-01  2600   0.653E-01    0.391E-01
DAV:   4    -0.136637116599E+04    0.25449E-02   -0.14515E-02  2584   0.288E-01    0.271E-01
DAV:   5    -0.136636894189E+04    0.22241E-02   -0.68674E-03  2384   0.170E-01    0.109E-01
DAV:   6    -0.136636899947E+04   -0.57580E-04   -0.46155E-03  2392   0.123E-01    0.740E-02
DAV:   7    -0.136636903750E+04   -0.38031E-04   -0.16834E-03  2456   0.781E-02    0.565E-02
DAV:   8    -0.136636903103E+04    0.64631E-05   -0.53809E-04  2616   0.452E-02    0.330E-02
DAV:   9    -0.136636902334E+04    0.76972E-05   -0.17106E-04  2432   0.262E-02    0.214E-02
DAV:  10    -0.136636902623E+04   -0.28963E-05   -0.69143E-05  2488   0.164E-02    0.153E-02
DAV:  11    -0.136636902464E+04    0.15978E-05   -0.30439E-05  2312   0.114E-02    0.614E-03
DAV:  12    -0.136636902534E+04   -0.70270E-06   -0.10713E-05  1784   0.766E-03    0.605E-03
DAV:  13    -0.136636902479E+04    0.55287E-06   -0.22373E-06  1056   0.488E-03
  19 F= -.13663690E+04 E0= -.13663690E+04  d E =-.378503E+00
 BRION: g(F)=  0.144E+00 g(S)=  0.000E+00 retain N=  3 mean eig= 5.87
 eig:   7.879  7.879  1.864
 bond charge predicted
       N       E                     dE             d eps       ncg     rms          rms(c)
DAV:   1    -0.136653745069E+04   -0.16843E+00   -0.34362E+01  1392   0.834E+00    0.950E-01
DAV:   2    -0.136671289765E+04   -0.17545E+00   -0.18596E+00  2304   0.322E+00    0.490E-01
DAV:   3    -0.136672381339E+04   -0.10916E-01   -0.15477E-01  2576   0.642E-01    0.396E-01
DAV:   4    -0.136672168271E+04    0.21307E-02   -0.14320E-02  2592   0.285E-01    0.285E-01
DAV:   5    -0.136671930547E+04    0.23772E-02   -0.72421E-03  2352   0.173E-01    0.118E-01
DAV:   6    -0.136671932746E+04   -0.21985E-04   -0.50277E-03  2352   0.131E-01    0.849E-02
DAV:   7    -0.136671935568E+04   -0.28216E-04   -0.21745E-03  2488   0.868E-02    0.642E-02
DAV:   8    -0.136671933747E+04    0.18210E-04   -0.69654E-04  2576   0.529E-02    0.369E-02
DAV:   9    -0.136671933090E+04    0.65661E-05   -0.20711E-04  2464   0.284E-02    0.243E-02
DAV:  10    -0.136671933361E+04   -0.27076E-05   -0.71214E-05  2504   0.162E-02    0.166E-02
DAV:  11    -0.136671933293E+04    0.67370E-06   -0.34294E-05  2312   0.124E-02    0.946E-03
DAV:  12    -0.136671933269E+04    0.24027E-06   -0.16643E-05  2000   0.933E-03    0.830E-03
DAV:  13    -0.136671933216E+04    0.53098E-06   -0.83742E-06  1632   0.601E-03
  20 F= -.13667193E+04 E0= -.13667193E+04  d E =-.350307E+00
 BRION: g(F)=  0.127E+00 g(S)=  0.000E+00 retain N=  3 mean eig= 5.23
 eig:   7.039  7.039  1.613
