 running on  160 total cores
 distrk:  each k-point on  160 cores,    1 groups
 distr:  one band on   20 cores,    8 groups
 using from now: INCAR     
 vasp.5.4.4.18Apr17-6-g9f103f2a35 (build May 01 2020 14:22:42) gamma-only       
  
 POSCAR found type information on POSCAR  O  La Zr Li Al
 POSCAR found :  5 types and     190 ions
 scaLAPACK will be used
 LDA part: xc-table for Pade appr. of Perdew
 POSCAR, INCAR and KPOINTS ok, starting setup
 FFT: planning ...
 WAVECAR not read
 WARNING: random wavefunctions but no delay for mixing, default for NELMDL
 entering main loop
       N       E                     dE             d eps       ncg     rms          rms(c)
DAV:   1     0.252787336160E+05    0.25279E+05   -0.42254E+05  1600   0.253E+03
DAV:   2     0.946615220634E+04   -0.15813E+05   -0.14552E+05  1424   0.711E+02
DAV:   3     0.274883572782E+04   -0.67173E+04   -0.61089E+04  1496   0.356E+02
DAV:   4    -0.348479656683E+03   -0.30973E+04   -0.28843E+04  2032   0.221E+02
DAV:   5    -0.140710545470E+04   -0.10586E+04   -0.10156E+04  2536   0.144E+02    0.116E+02
DAV:   6    -0.130259262418E+04    0.10451E+03   -0.14835E+03  2432   0.666E+01    0.504E+01
DAV:   7    -0.132472107525E+04   -0.22128E+02   -0.40477E+02  2560   0.343E+01    0.262E+01
DAV:   8    -0.133176328327E+04   -0.70422E+01   -0.27432E+02  2520   0.281E+01    0.258E+01
DAV:   9    -0.132548956458E+04    0.62737E+01   -0.49435E+01  2520   0.146E+01    0.831E+00
DAV:  10    -0.132609693920E+04   -0.60737E+00   -0.16065E+01  2616   0.772E+00    0.690E+00
DAV:  11    -0.132642229967E+04   -0.32536E+00   -0.55992E+00  2624   0.416E+00    0.426E+00
DAV:  12    -0.132631372732E+04    0.10857E+00   -0.20165E+00  2560   0.331E+00    0.298E+00
DAV:  13    -0.132634571274E+04   -0.31985E-01   -0.93500E-01  2560   0.175E+00    0.190E+00
DAV:  14    -0.132633326669E+04    0.12446E-01   -0.22487E-01  2616   0.102E+00    0.111E+00
DAV:  15    -0.132633863486E+04   -0.53682E-02   -0.81851E-02  2552   0.548E-01    0.794E-01
DAV:  16    -0.132633917802E+04   -0.54317E-03   -0.23212E-02  2624   0.292E-01    0.537E-01
DAV:  17    -0.132633912827E+04    0.49759E-04   -0.19832E-02  2368   0.275E-01    0.292E-01
DAV:  18    -0.132633931952E+04   -0.19126E-03   -0.46198E-03  2312   0.145E-01    0.151E-01
DAV:  19    -0.132633922816E+04    0.91363E-04   -0.25037E-03  2496   0.982E-02    0.769E-02
DAV:  20    -0.132633927372E+04   -0.45563E-04   -0.60430E-04  2528   0.446E-02    0.380E-02
DAV:  21    -0.132633929644E+04   -0.22714E-04   -0.22300E-04  2608   0.285E-02    0.353E-02
DAV:  22    -0.132633931207E+04   -0.15632E-04   -0.63630E-05  2520   0.154E-02    0.159E-02
DAV:  23    -0.132633930695E+04    0.51177E-05   -0.32573E-05  2184   0.110E-02    0.152E-02
DAV:  24    -0.132633931150E+04   -0.45489E-05   -0.18764E-05  1848   0.859E-03    0.382E-03
DAV:  25    -0.132633931002E+04    0.14768E-05   -0.42286E-06   984   0.576E-03    0.603E-03
DAV:  26    -0.132633931251E+04   -0.24880E-05   -0.29051E-06  1016   0.513E-03    0.144E-03
DAV:  27    -0.132633931217E+04    0.34178E-06   -0.15462E-06   944   0.459E-03
   1 F= -.13263393E+04 E0= -.13263390E+04  d E =-.132634E+04
 BRION: g(F)=  0.644E+02 g(S)=  0.000E+00
 bond charge predicted
       N       E                     dE             d eps       ncg     rms          rms(c)
DAV:   1    -0.128148588538E+04    0.44853E+02   -0.86140E+03  1648   0.141E+02    0.324E+01
DAV:   2    -0.134776272504E+04   -0.66277E+02   -0.77298E+02  2568   0.616E+01    0.156E+01
DAV:   3    -0.134596307293E+04    0.17997E+01   -0.45504E+01  2608   0.171E+01    0.103E+01
DAV:   4    -0.134338956457E+04    0.25735E+01   -0.14416E+01  2416   0.823E+00    0.479E+00
DAV:   5    -0.134315450878E+04    0.23506E+00   -0.50442E+00  2520   0.496E+00    0.339E+00
DAV:   6    -0.134307865638E+04    0.75852E-01   -0.30980E+00  2576   0.312E+00    0.181E+00
DAV:   7    -0.134303634609E+04    0.42310E-01   -0.43646E-01  2536   0.172E+00    0.871E-01
DAV:   8    -0.134304488557E+04   -0.85395E-02   -0.32217E-01  2624   0.102E+00    0.710E-01
DAV:   9    -0.134304414042E+04    0.74516E-03   -0.51630E-02  2608   0.501E-01    0.492E-01
DAV:  10    -0.134304217650E+04    0.19639E-02   -0.42902E-02  2464   0.352E-01    0.236E-01
DAV:  11    -0.134304343157E+04   -0.12551E-02   -0.20117E-02  2544   0.261E-01    0.237E-01
DAV:  12    -0.134304292925E+04    0.50232E-03   -0.32941E-03  2576   0.130E-01    0.161E-01
DAV:  13    -0.134304269987E+04    0.22938E-03   -0.31416E-03  2496   0.951E-02    0.439E-02
DAV:  14    -0.134304274673E+04   -0.46861E-04   -0.81549E-04  2624   0.533E-02    0.236E-02
DAV:  15    -0.134304275734E+04   -0.10611E-04   -0.10880E-04  2624   0.261E-02    0.215E-02
DAV:  16    -0.134304275397E+04    0.33666E-05   -0.40540E-05  2592   0.129E-02    0.156E-02
DAV:  17    -0.134304275288E+04    0.10958E-05   -0.21758E-05  2424   0.954E-03    0.760E-03
DAV:  18    -0.134304275284E+04    0.42259E-07   -0.12249E-05  1768   0.729E-03    0.292E-03
DAV:  19    -0.134304275302E+04   -0.18798E-06   -0.15185E-06  1048   0.502E-03
   2 F= -.13430428E+04 E0= -.13430428E+04  d E =-.167034E+02
 BRION: g(F)=  0.121E+03 g(S)=  0.000E+00 retain N=  1 mean eig= 0.39
 eig:   0.392
 bond charge predicted
       N       E                     dE             d eps       ncg     rms          rms(c)
DAV:   1    -0.132668825281E+04    0.16355E+02   -0.24294E+03  1360   0.646E+01    0.221E+01
DAV:   2    -0.135726036105E+04   -0.30572E+02   -0.40027E+02  2544   0.321E+01    0.197E+01
DAV:   3    -0.135385572611E+04    0.34046E+01   -0.44172E+01  2568   0.132E+01    0.146E+01
DAV:   4    -0.135103934461E+04    0.28164E+01   -0.36102E+01  2216   0.630E+00    0.660E+00
DAV:   5    -0.135171347347E+04   -0.67413E+00   -0.74108E+00  2408   0.403E+00    0.738E+00
DAV:   6    -0.135083296370E+04    0.88051E+00   -0.10516E+01  2488   0.333E+00    0.190E+00
DAV:   7    -0.135088080298E+04   -0.47839E-01   -0.12343E+00  2448   0.258E+00    0.188E+00
DAV:   8    -0.135083115262E+04    0.49650E-01   -0.61762E-01  2424   0.123E+00    0.586E-01
DAV:   9    -0.135083501401E+04   -0.38614E-02   -0.10627E-01  2464   0.662E-01    0.327E-01
DAV:  10    -0.135083600807E+04   -0.99405E-03   -0.30197E-02  2512   0.307E-01    0.238E-01
DAV:  11    -0.135083629623E+04   -0.28816E-03   -0.75015E-03  2616   0.182E-01    0.219E-01
DAV:  12    -0.135083561783E+04    0.67840E-03   -0.45839E-03  2504   0.116E-01    0.795E-02
DAV:  13    -0.135083572346E+04   -0.10563E-03   -0.26554E-03  2616   0.875E-02    0.565E-02
DAV:  14    -0.135083571716E+04    0.63015E-05   -0.33393E-04  2560   0.402E-02    0.432E-02
DAV:  15    -0.135083570205E+04    0.15110E-04   -0.16106E-04  2624   0.225E-02    0.198E-02
DAV:  16    -0.135083570512E+04   -0.30729E-05   -0.89334E-05  2552   0.168E-02    0.102E-02
DAV:  17    -0.135083570313E+04    0.19924E-05   -0.16510E-05  2104   0.953E-03    0.515E-03
DAV:  18    -0.135083570332E+04   -0.19273E-06   -0.11591E-05  1888   0.621E-03    0.468E-03
DAV:  19    -0.135083570304E+04    0.28036E-06   -0.13138E-06  1072   0.394E-03
   3 F= -.13508357E+04 E0= -.13508357E+04  d E =-.779295E+01
 BRION: g(F)=  0.183E+02 g(S)=  0.000E+00 retain N=  2 mean eig= 1.38
 eig:   0.219  2.546
 bond charge predicted
       N       E                     dE             d eps       ncg     rms          rms(c)
DAV:   1    -0.134986314804E+04    0.97256E+00   -0.79993E+02  1424   0.329E+01    0.855E+00
DAV:   2    -0.135527718614E+04   -0.54140E+01   -0.66648E+01  2440   0.153E+01    0.512E+00
DAV:   3    -0.135503342606E+04    0.24376E+00   -0.44704E+00  2552   0.476E+00    0.410E+00
DAV:   4    -0.135475984765E+04    0.27358E+00   -0.24275E+00  2280   0.221E+00    0.172E+00
DAV:   5    -0.135476457492E+04   -0.47273E-02   -0.59912E-01  2472   0.140E+00    0.182E+00
DAV:   6    -0.135471256562E+04    0.52009E-01   -0.42780E-01  2504   0.123E+00    0.716E-01
DAV:   7    -0.135471757464E+04   -0.50090E-02   -0.22408E-01  2440   0.714E-01    0.662E-01
DAV:   8    -0.135471630633E+04    0.12683E-02   -0.42479E-02  2608   0.359E-01    0.494E-01
DAV:   9    -0.135471259741E+04    0.37089E-02   -0.16960E-02  2488   0.220E-01    0.219E-01
DAV:  10    -0.135471309903E+04   -0.50162E-03   -0.15884E-02  2448   0.172E-01    0.152E-01
DAV:  11    -0.135471274088E+04    0.35815E-03   -0.18057E-03  2560   0.921E-02    0.849E-02
DAV:  12    -0.135471272146E+04    0.19416E-04   -0.16131E-03  2432   0.556E-02    0.282E-02
DAV:  13    -0.135471273298E+04   -0.11518E-04   -0.15339E-04  2472   0.267E-02    0.199E-02
DAV:  14    -0.135471272905E+04    0.39351E-05   -0.46302E-05  2456   0.130E-02    0.107E-02
DAV:  15    -0.135471273007E+04   -0.10204E-05   -0.27923E-05  2200   0.936E-03    0.520E-03
DAV:  16    -0.135471272983E+04    0.23689E-06   -0.25288E-06  1048   0.475E-03
   4 F= -.13547127E+04 E0= -.13547127E+04  d E =-.387703E+01
 BRION: g(F)=  0.529E+01 g(S)=  0.000E+00 retain N=  3 mean eig= 2.73
 eig:   7.394  0.394  0.394
 bond charge predicted
       N       E                     dE             d eps       ncg     rms          rms(c)
DAV:   1    -0.135589686475E+04   -0.11841E+01   -0.30292E+02  1376   0.233E+01    0.423E+00
DAV:   2    -0.135737533543E+04   -0.14785E+01   -0.15832E+01  2272   0.860E+00    0.206E+00
DAV:   3    -0.135738572496E+04   -0.10390E-01   -0.10359E+00  2624   0.183E+00    0.168E+00
DAV:   4    -0.135733168721E+04    0.54038E-01   -0.33716E-01  2520   0.110E+00    0.770E-01
DAV:   5    -0.135732956552E+04    0.21217E-02   -0.96642E-02  2488   0.628E-01    0.564E-01
DAV:   6    -0.135732818894E+04    0.13766E-02   -0.70318E-02  2552   0.453E-01    0.254E-01
DAV:   7    -0.135732795739E+04    0.23155E-03   -0.15479E-02  2320   0.239E-01    0.223E-01
DAV:   8    -0.135732781834E+04    0.13905E-03   -0.63845E-03  2416   0.130E-01    0.130E-01
DAV:   9    -0.135732765063E+04    0.16771E-03   -0.32546E-03  2592   0.946E-02    0.596E-02
DAV:  10    -0.135732766877E+04   -0.18136E-04   -0.76618E-04  2464   0.555E-02    0.497E-02
DAV:  11    -0.135732765761E+04    0.11160E-04   -0.33454E-04  2528   0.334E-02    0.216E-02
DAV:  12    -0.135732766057E+04   -0.29642E-05   -0.11346E-04  2448   0.189E-02    0.110E-02
DAV:  13    -0.135732766243E+04   -0.18639E-05   -0.21282E-05  2232   0.103E-02    0.837E-03
DAV:  14    -0.135732766225E+04    0.18181E-06   -0.95225E-06  1768   0.629E-03
   5 F= -.13573277E+04 E0= -.13573277E+04  d E =-.261493E+01
 BRION: g(F)=  0.267E+01 g(S)=  0.000E+00 retain N=  4 mean eig= 2.13
 eig:   7.153  0.269  0.559  0.559
 bond charge predicted
       N       E                     dE             d eps       ncg     rms          rms(c)
DAV:   1    -0.135801839438E+04   -0.69073E+00   -0.27962E+02  1344   0.231E+01    0.325E+00
DAV:   2    -0.135937806027E+04   -0.13597E+01   -0.14384E+01  2272   0.844E+00    0.170E+00
DAV:   3    -0.135941883937E+04   -0.40779E-01   -0.97806E-01  2600   0.182E+00    0.147E+00
DAV:   4    -0.135938588342E+04    0.32956E-01   -0.16414E-01  2576   0.836E-01    0.883E-01
DAV:   5    -0.135936783866E+04    0.18045E-01   -0.91390E-02  2336   0.587E-01    0.410E-01
DAV:   6    -0.135937015639E+04   -0.23177E-02   -0.49211E-02  2504   0.412E-01    0.412E-01
DAV:   7    -0.135936832972E+04    0.18267E-02   -0.20768E-02  2456   0.265E-01    0.231E-01
DAV:   8    -0.135936822591E+04    0.10381E-03   -0.80941E-03  2480   0.158E-01    0.981E-02
DAV:   9    -0.135936819274E+04    0.33174E-04   -0.12018E-03  2424   0.711E-02    0.691E-02
DAV:  10    -0.135936822627E+04   -0.33528E-04   -0.67246E-04  2328   0.432E-02    0.444E-02
DAV:  11    -0.135936820246E+04    0.23808E-04   -0.19785E-04  2536   0.327E-02    0.212E-02
DAV:  12    -0.135936821056E+04   -0.80983E-05   -0.18204E-04  2440   0.232E-02    0.216E-02
DAV:  13    -0.135936820524E+04    0.53127E-05   -0.61955E-05  2344   0.152E-02    0.849E-03
DAV:  14    -0.135936820568E+04   -0.43727E-06   -0.11176E-05  1792   0.783E-03    0.460E-03
DAV:  15    -0.135936820601E+04   -0.32714E-06   -0.52985E-06  1464   0.490E-03
   6 F= -.13593682E+04 E0= -.13593682E+04  d E =-.204054E+01
 BRION: g(F)=  0.182E+01 g(S)=  0.000E+00 retain N=  5 mean eig= 1.97
 eig:   7.087  0.459  0.688  0.688  0.912
 bond charge predicted
       N       E                     dE             d eps       ncg     rms          rms(c)
DAV:   1    -0.135982153700E+04   -0.45333E+00   -0.20022E+02  1360   0.197E+01    0.268E+00
DAV:   2    -0.136083983143E+04   -0.10183E+01   -0.10676E+01  2304   0.735E+00    0.142E+00
DAV:   3    -0.136087015700E+04   -0.30326E-01   -0.72743E-01  2592   0.152E+00    0.116E+00
DAV:   4    -0.136084497129E+04    0.25186E-01   -0.12923E-01  2544   0.745E-01    0.665E-01
DAV:   5    -0.136083488681E+04    0.10084E-01   -0.52641E-02  2424   0.463E-01    0.313E-01
DAV:   6    -0.136083561893E+04   -0.73212E-03   -0.28425E-02  2480   0.326E-01    0.244E-01
DAV:   7    -0.136083513847E+04    0.48046E-03   -0.11192E-02  2312   0.203E-01    0.167E-01
DAV:   8    -0.136083520467E+04   -0.66202E-04   -0.56982E-03  2400   0.121E-01    0.916E-02
DAV:   9    -0.136083514257E+04    0.62099E-04   -0.90919E-04  2456   0.619E-02    0.640E-02
DAV:  10    -0.136083513802E+04    0.45526E-05   -0.74510E-04  2352   0.466E-02    0.476E-02
DAV:  11    -0.136083512045E+04    0.17564E-04   -0.29055E-04  2528   0.348E-02    0.184E-02
DAV:  12    -0.136083512352E+04   -0.30681E-05   -0.95853E-05  2488   0.201E-02    0.146E-02
DAV:  13    -0.136083512314E+04    0.38145E-06   -0.38843E-05  2224   0.116E-02    0.804E-03
DAV:  14    -0.136083512357E+04   -0.43014E-06   -0.10736E-05  1808   0.656E-03    0.608E-03
DAV:  15    -0.136083512328E+04    0.29353E-06   -0.18061E-06  1056   0.464E-03
   7 F= -.13608351E+04 E0= -.13608351E+04  d E =-.146692E+01
 BRION: g(F)=  0.792E+00 g(S)=  0.000E+00 retain N=  6 mean eig= 2.25
 eig:   7.899  2.067  2.067  0.226  0.627  0.627
 bond charge predicted
       N       E                     dE             d eps       ncg     rms          rms(c)
DAV:   1    -0.136117016343E+04   -0.33504E+00   -0.11430E+02  1360   0.148E+01    0.204E+00
DAV:   2    -0.136173113022E+04   -0.56097E+00   -0.58631E+00  2296   0.562E+00    0.105E+00
DAV:   3    -0.136175208159E+04   -0.20951E-01   -0.41783E-01  2608   0.109E+00    0.821E-01
DAV:   4    -0.136173700862E+04    0.15073E-01   -0.71829E-02  2472   0.568E-01    0.409E-01
DAV:   5    -0.136173518460E+04    0.18240E-02   -0.28026E-02  2456   0.339E-01    0.223E-01
DAV:   6    -0.136173555395E+04   -0.36936E-03   -0.12008E-02  2552   0.196E-01    0.117E-01
DAV:   7    -0.136173546591E+04    0.88037E-04   -0.22610E-03  2440   0.107E-01    0.802E-02
DAV:   8    -0.136173550389E+04   -0.37973E-04   -0.12642E-03  2376   0.583E-02    0.428E-02
DAV:   9    -0.136173548933E+04    0.14560E-04   -0.19558E-04  2616   0.337E-02    0.268E-02
DAV:  10    -0.136173549301E+04   -0.36784E-05   -0.21862E-04  2480   0.260E-02    0.200E-02
DAV:  11    -0.136173549135E+04    0.16545E-05   -0.60910E-05  2424   0.169E-02    0.108E-02
DAV:  12    -0.136173549254E+04   -0.11840E-05   -0.33980E-05  2216   0.103E-02    0.791E-03
DAV:  13    -0.136173549163E+04    0.90158E-06   -0.27110E-06  1048   0.624E-03
   8 F= -.13617355E+04 E0= -.13617355E+04  d E =-.900368E+00
 BRION: g(F)=  0.597E+00 g(S)=  0.000E+00 retain N=  6 mean eig= 1.16
 eig:   3.003  1.387  1.387  0.425  0.425  0.348
 bond charge predicted
       N       E                     dE             d eps       ncg     rms          rms(c)
DAV:   1    -0.136208821247E+04   -0.35272E+00   -0.42851E+01  1384   0.912E+00    0.128E+00
DAV:   2    -0.136230020519E+04   -0.21199E+00   -0.22296E+00  2280   0.357E+00    0.622E-01
DAV:   3    -0.136230958941E+04   -0.93842E-02   -0.16295E-01  2624   0.676E-01    0.493E-01
DAV:   4    -0.136230481749E+04    0.47719E-02   -0.23050E-02  2528   0.337E-01    0.262E-01
DAV:   5    -0.136230412295E+04    0.69455E-03   -0.10649E-02  2408   0.205E-01    0.124E-01
DAV:   6    -0.136230432795E+04   -0.20500E-03   -0.39368E-03  2552   0.117E-01    0.785E-02
DAV:   7    -0.136230430628E+04    0.21669E-04   -0.89050E-04  2600   0.648E-02    0.517E-02
DAV:   8    -0.136230430160E+04    0.46801E-05   -0.34497E-04  2600   0.352E-02    0.276E-02
DAV:   9    -0.136230430030E+04    0.13029E-05   -0.85675E-05  2520   0.217E-02    0.150E-02
DAV:  10    -0.136230430404E+04   -0.37416E-05   -0.52298E-05  2504   0.133E-02    0.109E-02
DAV:  11    -0.136230430256E+04    0.14769E-05   -0.11391E-05  1776   0.795E-03    0.562E-03
DAV:  12    -0.136230430297E+04   -0.40926E-06   -0.76822E-06  1616   0.577E-03
   9 F= -.13623043E+04 E0= -.13623043E+04  d E =-.568811E+00
 BRION: g(F)=  0.449E+00 g(S)=  0.000E+00 retain N=  7 mean eig= 1.15
 eig:   3.527  1.401  1.401  0.545  0.545  0.447  0.212
 bond charge predicted
       N       E                     dE             d eps       ncg     rms          rms(c)
DAV:   1    -0.136262734111E+04   -0.32304E+00   -0.81218E+01  1376   0.129E+01    0.155E+00
DAV:   2    -0.136304544848E+04   -0.41811E+00   -0.44197E+00  2280   0.515E+00    0.795E-01
DAV:   3    -0.136306850382E+04   -0.23055E-01   -0.33744E-01  2576   0.994E-01    0.638E-01
DAV:   4    -0.136306273353E+04    0.57703E-02   -0.35905E-02  2584   0.440E-01    0.428E-01
DAV:   5    -0.136305872722E+04    0.40063E-02   -0.20487E-02  2288   0.284E-01    0.164E-01
DAV:   6    -0.136305947102E+04   -0.74380E-03   -0.10396E-02  2512   0.194E-01    0.151E-01
DAV:   7    -0.136305935135E+04    0.11967E-03   -0.42562E-03  2504   0.122E-01    0.981E-02
DAV:   8    -0.136305931802E+04    0.33328E-04   -0.16174E-03  2624   0.778E-02    0.516E-02
DAV:   9    -0.136305930947E+04    0.85515E-05   -0.27344E-04  2512   0.369E-02    0.373E-02
DAV:  10    -0.136305931632E+04   -0.68508E-05   -0.17512E-04  2560   0.236E-02    0.206E-02
DAV:  11    -0.136305931521E+04    0.11136E-05   -0.55895E-05  2488   0.168E-02    0.996E-03
DAV:  12    -0.136305931670E+04   -0.14964E-05   -0.24691E-05  2288   0.104E-02    0.100E-02
DAV:  13    -0.136305931562E+04    0.10858E-05   -0.97469E-06  1632   0.660E-03    0.491E-03
DAV:  14    -0.136305931539E+04    0.22918E-06   -0.26073E-06  1040   0.553E-03
  10 F= -.13630593E+04 E0= -.13630593E+04  d E =-.755012E+00
 BRION: g(F)=  0.364E+00 g(S)=  0.000E+00 retain N=  8 mean eig= 1.58
 eig:   3.721  3.721  0.880  0.495  0.495  0.487  0.106  2.725
 bond charge predicted
       N       E                     dE             d eps       ncg     rms          rms(c)
DAV:   1    -0.136336466458E+04   -0.30535E+00   -0.81378E+01  1360   0.129E+01    0.161E+00
DAV:   2    -0.136378507884E+04   -0.42041E+00   -0.44633E+00  2288   0.507E+00    0.805E-01
DAV:   3    -0.136380652176E+04   -0.21443E-01   -0.33689E-01  2592   0.103E+00    0.626E-01
DAV:   4    -0.136379967041E+04    0.68514E-02   -0.38004E-02  2560   0.451E-01    0.392E-01
DAV:   5    -0.136379659304E+04    0.30774E-02   -0.18793E-02  2328   0.274E-01    0.152E-01
DAV:   6    -0.136379720126E+04   -0.60821E-03   -0.82263E-03  2536   0.171E-01    0.121E-01
DAV:   7    -0.136379719732E+04    0.39375E-05   -0.26904E-03  2592   0.103E-01    0.806E-02
DAV:   8    -0.136379718770E+04    0.96181E-05   -0.10488E-03  2608   0.637E-02    0.444E-02
DAV:   9    -0.136379718476E+04    0.29465E-05   -0.20431E-04  2552   0.329E-02    0.313E-02
DAV:  10    -0.136379719075E+04   -0.59934E-05   -0.15509E-04  2624   0.230E-02    0.183E-02
DAV:  11    -0.136379718819E+04    0.25580E-05   -0.40897E-05  2440   0.142E-02    0.766E-03
DAV:  12    -0.136379718946E+04   -0.12741E-05   -0.16830E-05  2016   0.841E-03    0.623E-03
DAV:  13    -0.136379718891E+04    0.55939E-06   -0.13840E-06   992   0.511E-03
  11 F= -.13637972E+04 E0= -.13637972E+04  d E =-.737874E+00
 BRION: g(F)=  0.265E+00 g(S)=  0.000E+00 retain N=  9 mean eig= 2.27
 eig:   6.185  4.070  4.070  1.772  1.772  0.342  0.342  0.942  0.942
 bond charge predicted
       N       E                     dE             d eps       ncg     rms          rms(c)
DAV:   1    -0.136409243812E+04   -0.29525E+00   -0.51494E+01  1360   0.103E+01    0.126E+00
DAV:   2    -0.136436047996E+04   -0.26804E+00   -0.28493E+00  2296   0.405E+00    0.634E-01
DAV:   3    -0.136437375227E+04   -0.13272E-01   -0.21394E-01  2568   0.828E-01    0.492E-01
DAV:   4    -0.136436912629E+04    0.46260E-02   -0.24776E-02  2536   0.365E-01    0.310E-01
DAV:   5    -0.136436685889E+04    0.22674E-02   -0.12164E-02  2360   0.227E-01    0.123E-01
DAV:   6    -0.136436720184E+04   -0.34295E-03   -0.58942E-03  2520   0.145E-01    0.970E-02
DAV:   7    -0.136436720778E+04   -0.59429E-05   -0.18223E-03  2536   0.864E-02    0.684E-02
DAV:   8    -0.136436720359E+04    0.41942E-05   -0.83667E-04  2592   0.543E-02    0.367E-02
DAV:   9    -0.136436719912E+04    0.44672E-05   -0.14405E-04  2520   0.282E-02    0.267E-02
DAV:  10    -0.136436720023E+04   -0.11141E-05   -0.11544E-04  2584   0.202E-02    0.152E-02
DAV:  11    -0.136436719950E+04    0.73033E-06   -0.32096E-05  2392   0.125E-02    0.655E-03
DAV:  12    -0.136436720042E+04   -0.91281E-06   -0.11140E-05  1792   0.731E-03    0.562E-03
DAV:  13    -0.136436719997E+04    0.44571E-06   -0.14306E-06   992   0.473E-03
  12 F= -.13643672E+04 E0= -.13643672E+04  d E =-.570011E+00
 BRION: g(F)=  0.227E+00 g(S)=  0.000E+00 retain N= 10 mean eig= 3.02
 eig:   7.219  7.243  7.243  2.400  2.400  0.332  0.616  0.616  1.086  1.086
 bond charge predicted
       N       E                     dE             d eps       ncg     rms          rms(c)
DAV:   1    -0.136462160395E+04   -0.25440E+00   -0.65416E+01  1368   0.116E+01    0.142E+00
DAV:   2    -0.136496197935E+04   -0.34038E+00   -0.36289E+00  2280   0.457E+00    0.700E-01
DAV:   3    -0.136498193869E+04   -0.19959E-01   -0.29363E-01  2560   0.935E-01    0.556E-01
DAV:   4    -0.136497730497E+04    0.46337E-02   -0.30093E-02  2568   0.403E-01    0.378E-01
DAV:   5    -0.136497384991E+04    0.34551E-02   -0.14589E-02  2360   0.250E-01    0.155E-01
DAV:   6    -0.136497411994E+04   -0.27003E-03   -0.81324E-03  2400   0.172E-01    0.115E-01
DAV:   7    -0.136497415660E+04   -0.36664E-04   -0.33203E-03  2488   0.109E-01    0.837E-02
DAV:   8    -0.136497414748E+04    0.91256E-05   -0.13337E-03  2600   0.708E-02    0.503E-02
DAV:   9    -0.136497413467E+04    0.12806E-04   -0.29324E-04  2520   0.364E-02    0.337E-02
DAV:  10    -0.136497413772E+04   -0.30523E-05   -0.15404E-04  2576   0.233E-02    0.193E-02
DAV:  11    -0.136497413744E+04    0.28621E-06   -0.47583E-05  2472   0.152E-02    0.975E-03
DAV:  12    -0.136497413795E+04   -0.51263E-06   -0.19238E-05  2224   0.998E-03    0.850E-03
DAV:  13    -0.136497413751E+04    0.43918E-06   -0.11062E-05  1760   0.661E-03    0.461E-03
DAV:  14    -0.136497413729E+04    0.21822E-06   -0.20288E-06  1024   0.477E-03
  13 F= -.13649741E+04 E0= -.13649741E+04  d E =-.606937E+00
 BRION: g(F)=  0.198E+00 g(S)=  0.000E+00 retain N=  6 mean eig= 3.64
 eig:   7.096  7.096  2.444  2.444  1.366  1.366
 bond charge predicted
       N       E                     dE             d eps       ncg     rms          rms(c)
DAV:   1    -0.136520398682E+04   -0.22985E+00   -0.34796E+01  1376   0.853E+00    0.105E+00
DAV:   2    -0.136538461896E+04   -0.18063E+00   -0.19235E+00  2272   0.336E+00    0.510E-01
DAV:   3    -0.136539488196E+04   -0.10263E-01   -0.15372E-01  2584   0.697E-01    0.401E-01
DAV:   4    -0.136539210475E+04    0.27772E-02   -0.15735E-02  2560   0.296E-01    0.268E-01
DAV:   5    -0.136539026881E+04    0.18359E-02   -0.83981E-03  2328   0.193E-01    0.103E-01
DAV:   6    -0.136539051869E+04   -0.24989E-03   -0.46789E-03  2504   0.130E-01    0.878E-02
DAV:   7    -0.136539052488E+04   -0.61805E-05   -0.14992E-03  2520   0.748E-02    0.616E-02
DAV:   8    -0.136539051056E+04    0.14312E-04   -0.60151E-04  2600   0.469E-02    0.310E-02
DAV:   9    -0.136539050828E+04    0.22806E-05   -0.10781E-04  2496   0.238E-02    0.219E-02
DAV:  10    -0.136539050937E+04   -0.10901E-05   -0.67370E-05  2560   0.164E-02    0.120E-02
DAV:  11    -0.136539050894E+04    0.43337E-06   -0.19827E-05  2216   0.102E-02    0.537E-03
DAV:  12    -0.136539050960E+04   -0.65888E-06   -0.82343E-06  1664   0.622E-03
  14 F= -.13653905E+04 E0= -.13653905E+04  d E =-.416372E+00
 BRION: g(F)=  0.183E+00 g(S)=  0.000E+00 retain N=  6 mean eig= 4.22
 eig:   7.779  7.779  3.522  3.522  1.369  1.369
 bond charge predicted
       N       E                     dE             d eps       ncg     rms          rms(c)
DAV:   1    -0.136558231244E+04   -0.19180E+00   -0.32302E+01  1368   0.814E+00    0.951E-01
DAV:   2    -0.136574638072E+04   -0.16407E+00   -0.17388E+00  2288   0.319E+00    0.468E-01
DAV:   3    -0.136575636686E+04   -0.99861E-02   -0.13949E-01  2560   0.632E-01    0.378E-01
DAV:   4    -0.136575446779E+04    0.18991E-02   -0.12739E-02  2592   0.267E-01    0.275E-01
DAV:   5    -0.136575230509E+04    0.21627E-02   -0.75275E-03  2264   0.179E-01    0.107E-01
DAV:   6    -0.136575251372E+04   -0.20864E-03   -0.51171E-03  2384   0.133E-01    0.957E-02
DAV:   7    -0.136575249295E+04    0.20776E-04   -0.17921E-03  2440   0.794E-02    0.671E-02
DAV:   8    -0.136575247200E+04    0.20952E-04   -0.71662E-04  2600   0.509E-02    0.336E-02
DAV:   9    -0.136575246515E+04    0.68495E-05   -0.14060E-04  2320   0.259E-02    0.230E-02
DAV:  10    -0.136575246679E+04   -0.16458E-05   -0.57549E-05  2392   0.148E-02    0.119E-02
DAV:  11    -0.136575246677E+04    0.25393E-07   -0.13894E-05  2080   0.904E-03    0.588E-03
DAV:  12    -0.136575246747E+04   -0.70392E-06   -0.10174E-05  1712   0.622E-03    0.586E-03
DAV:  13    -0.136575246701E+04    0.45921E-06   -0.14351E-06   984   0.463E-03
  15 F= -.13657525E+04 E0= -.13657525E+04  d E =-.361957E+00
 BRION: g(F)=  0.170E+00 g(S)=  0.000E+00 retain N=  4 mean eig= 4.40
 eig:   6.813  6.813  1.977  1.977
 bond charge predicted
       N       E                     dE             d eps       ncg     rms          rms(c)
DAV:   1    -0.136596486134E+04   -0.21239E+00   -0.44612E+01  1368   0.960E+00    0.113E+00
DAV:   2    -0.136619628191E+04   -0.23142E+00   -0.24629E+00  2312   0.380E+00    0.565E-01
DAV:   3    -0.136620999150E+04   -0.13710E-01   -0.19653E-01  2568   0.738E-01    0.448E-01
DAV:   4    -0.136620706844E+04    0.29231E-02   -0.18554E-02  2600   0.323E-01    0.317E-01
DAV:   5    -0.136620430820E+04    0.27602E-02   -0.97845E-03  2336   0.204E-01    0.129E-01
DAV:   6    -0.136620447071E+04   -0.16252E-03   -0.62878E-03  2416   0.149E-01    0.998E-02
DAV:   7    -0.136620448485E+04   -0.14138E-04   -0.24012E-03  2456   0.923E-02    0.718E-02
DAV:   8    -0.136620447113E+04    0.13718E-04   -0.92520E-04  2608   0.590E-02    0.406E-02
DAV:   9    -0.136620446193E+04    0.92060E-05   -0.21197E-04  2472   0.308E-02    0.272E-02
DAV:  10    -0.136620446425E+04   -0.23225E-05   -0.94522E-05  2520   0.189E-02    0.157E-02
DAV:  11    -0.136620446418E+04    0.68219E-07   -0.32492E-05  2464   0.126E-02    0.794E-03
DAV:  12    -0.136620446470E+04   -0.52135E-06   -0.13530E-05  1872   0.845E-03    0.769E-03
DAV:  13    -0.136620446415E+04    0.55130E-06   -0.73660E-06  1520   0.598E-03
  16 F= -.13662045E+04 E0= -.13662045E+04  d E =-.451997E+00
 BRION: g(F)=  0.159E+00 g(S)=  0.000E+00 retain N=  3 mean eig= 3.88
 eig:   5.084  5.084  1.485
 bond charge predicted
       N       E                     dE             d eps       ncg     rms          rms(c)
DAV:   1    -0.136637186066E+04   -0.16740E+00   -0.52213E+01  1368   0.104E+01    0.123E+00
DAV:   2    -0.136664076596E+04   -0.26891E+00   -0.28502E+00  2304   0.408E+00    0.611E-01
DAV:   3    -0.136665617442E+04   -0.15408E-01   -0.22425E-01  2576   0.794E-01    0.478E-01
DAV:   4    -0.136665239534E+04    0.37791E-02   -0.21663E-02  2584   0.346E-01    0.331E-01
DAV:   5    -0.136664932370E+04    0.30716E-02   -0.11277E-02  2328   0.220E-01    0.129E-01
DAV:   6    -0.136664958291E+04   -0.25921E-03   -0.67997E-03  2456   0.153E-01    0.101E-01
DAV:   7    -0.136664959998E+04   -0.17072E-04   -0.22474E-03  2488   0.904E-02    0.733E-02
DAV:   8    -0.136664958071E+04    0.19268E-04   -0.94970E-04  2608   0.588E-02    0.401E-02
DAV:   9    -0.136664957320E+04    0.75148E-05   -0.19497E-04  2480   0.306E-02    0.274E-02
DAV:  10    -0.136664957403E+04   -0.82649E-06   -0.97344E-05  2520   0.196E-02    0.148E-02
DAV:  11    -0.136664957405E+04   -0.22410E-07   -0.28915E-05  2400   0.120E-02    0.662E-03
DAV:  12    -0.136664957489E+04   -0.84218E-06   -0.12074E-05  1824   0.760E-03    0.629E-03
DAV:  13    -0.136664957436E+04    0.52652E-06   -0.24031E-06  1056   0.511E-03
  17 F= -.13666496E+04 E0= -.13666496E+04  d E =-.445110E+00
 BRION: g(F)=  0.141E+00 g(S)=  0.000E+00 retain N=  3 mean eig= 4.47
 eig:   5.947  5.947  1.518
 bond charge predicted
       N       E                     dE             d eps       ncg     rms          rms(c)
DAV:   1    -0.136681666207E+04   -0.16709E+00   -0.34184E+01  1368   0.833E+00    0.970E-01
DAV:   2    -0.136699219634E+04   -0.17553E+00   -0.18641E+00  2312   0.328E+00    0.486E-01
DAV:   3    -0.136700253939E+04   -0.10343E-01   -0.14852E-01  2584   0.633E-01    0.386E-01
DAV:   4    -0.136700027517E+04    0.22642E-02   -0.13467E-02  2600   0.276E-01    0.275E-01
DAV:   5    -0.136699802104E+04    0.22541E-02   -0.74684E-03  2304   0.177E-01    0.110E-01
DAV:   6    -0.136699815981E+04   -0.13877E-03   -0.49929E-03  2408   0.130E-01    0.889E-02
DAV:   7    -0.136699816028E+04   -0.47407E-06   -0.18442E-03  2456   0.800E-02    0.641E-02
DAV:   8    -0.136699814567E+04    0.14608E-04   -0.72259E-04  2608   0.518E-02    0.348E-02
DAV:   9    -0.136699813836E+04    0.73114E-05   -0.15821E-04  2400   0.265E-02    0.238E-02
DAV:  10    -0.136699813985E+04   -0.14890E-05   -0.67800E-05  2440   0.159E-02    0.137E-02
DAV:  11    -0.136699813949E+04    0.35389E-06   -0.23032E-05  2280   0.106E-02    0.650E-03
DAV:  12    -0.136699814006E+04   -0.56272E-06   -0.10863E-05  1760   0.724E-03    0.646E-03
DAV:  13    -0.136699813947E+04    0.58679E-06   -0.26361E-06  1072   0.502E-03
  18 F= -.13669981E+04 E0= -.13669981E+04  d E =-.348565E+00
 BRION: g(F)=  0.127E+00 g(S)=  0.000E+00 retain N=  2 mean eig= 3.76
 eig:   3.764  3.764
 bond charge predicted
       N       E                     dE             d eps       ncg     rms          rms(c)
DAV:   1    -0.136713953928E+04   -0.14140E+00   -0.35696E+01  1376   0.858E+00    0.997E-01
DAV:   2    -0.136732397714E+04   -0.18444E+00   -0.19599E+00  2312   0.339E+00    0.500E-01
DAV:   3    -0.136733487399E+04   -0.10897E-01   -0.15638E-01  2584   0.655E-01    0.400E-01
DAV:   4    -0.136733253116E+04    0.23428E-02   -0.14327E-02  2600   0.286E-01    0.287E-01
DAV:   5    -0.136733008490E+04    0.24463E-02   -0.79902E-03  2280   0.182E-01    0.116E-01
DAV:   6    -0.136733021638E+04   -0.13148E-03   -0.54071E-03  2384   0.134E-01    0.943E-02
DAV:   7    -0.136733021885E+04   -0.24695E-05   -0.21517E-03  2408   0.857E-02    0.684E-02
DAV:   8    -0.136733020038E+04    0.18468E-04   -0.82493E-04  2608   0.552E-02    0.391E-02
DAV:   9    -0.136733019021E+04    0.10174E-04   -0.18937E-04  2416   0.288E-02    0.256E-02
DAV:  10    -0.136733019253E+04   -0.23245E-05   -0.85628E-05  2464   0.175E-02    0.149E-02
DAV:  11    -0.136733019223E+04    0.30400E-06   -0.25698E-05  2328   0.115E-02    0.787E-03
DAV:  12    -0.136733019273E+04   -0.50418E-06   -0.14353E-05  1896   0.793E-03    0.766E-03
DAV:  13    -0.136733019201E+04    0.72022E-06   -0.51994E-06  1408   0.569E-03
  19 F= -.13673302E+04 E0= -.13673302E+04  d E =-.332053E+00
 BRION: g(F)=  0.117E+00 g(S)=  0.000E+00 retain N=  2 mean eig= 4.18
 eig:   4.177  4.177
 bond charge predicted
       N       E                     dE             d eps       ncg     rms          rms(c)
DAV:   1    -0.136743858309E+04   -0.10839E+00   -0.45165E+01  1376   0.956E+00    0.111E+00
DAV:   2    -0.136766984079E+04   -0.23126E+00   -0.24465E+00  2312   0.375E+00    0.554E-01
DAV:   3    -0.136768294334E+04   -0.13103E-01   -0.19138E-01  2576   0.720E-01    0.442E-01
DAV:   4    -0.136767991823E+04    0.30251E-02   -0.17581E-02  2576   0.312E-01    0.319E-01
DAV:   5    -0.136767654886E+04    0.33694E-02   -0.97346E-03  2248   0.206E-01    0.127E-01
DAV:   6    -0.136767670091E+04   -0.15205E-03   -0.74503E-03  2320   0.158E-01    0.102E-01
DAV:   7    -0.136767672974E+04   -0.28827E-04   -0.27294E-03  2392   0.945E-02    0.802E-02
DAV:   8    -0.136767669827E+04    0.31470E-04   -0.96807E-04  2608   0.596E-02    0.422E-02
DAV:   9    -0.136767668236E+04    0.15906E-04   -0.28050E-04  2360   0.335E-02    0.262E-02
DAV:  10    -0.136767668783E+04   -0.54620E-05   -0.89776E-05  2408   0.192E-02    0.197E-02
DAV:  11    -0.136767668457E+04    0.32542E-05   -0.40469E-05  2376   0.132E-02    0.886E-03
DAV:  12    -0.136767668552E+04   -0.94771E-06   -0.17599E-05  1944   0.895E-03    0.854E-03
DAV:  13    -0.136767668476E+04    0.75558E-06   -0.78977E-06  1552   0.619E-03
  20 F= -.13676767E+04 E0= -.13676767E+04  d E =-.346493E+00
 BRION: g(F)=  0.106E+00 g(S)=  0.000E+00 retain N=  2 mean eig= 4.66
 eig:   4.661  4.661
