 running on  160 total cores
 distrk:  each k-point on  160 cores,    1 groups
 distr:  one band on   20 cores,    8 groups
 using from now: INCAR     
 vasp.5.4.4.18Apr17-6-g9f103f2a35 (build May 01 2020 14:22:42) gamma-only       
  
 POSCAR found type information on POSCAR  O  La Zr Li Al
 POSCAR found :  5 types and     190 ions
 scaLAPACK will be used
 LDA part: xc-table for Pade appr. of Perdew
 POSCAR, INCAR and KPOINTS ok, starting setup
 FFT: planning ...
 WAVECAR not read
 WARNING: random wavefunctions but no delay for mixing, default for NELMDL
 entering main loop
       N       E                     dE             d eps       ncg     rms          rms(c)
DAV:   1     0.253008079435E+05    0.25301E+05   -0.42171E+05  1592   0.253E+03
DAV:   2     0.945127979279E+04   -0.15850E+05   -0.14625E+05  1432   0.710E+02
DAV:   3     0.270572471109E+04   -0.67456E+04   -0.61491E+04  1496   0.356E+02
DAV:   4    -0.371593197688E+03   -0.30773E+04   -0.28731E+04  2040   0.222E+02
DAV:   5    -0.142281700968E+04   -0.10512E+04   -0.10179E+04  2520   0.142E+02    0.116E+02
DAV:   6    -0.130160766901E+04    0.12121E+03   -0.13956E+03  2432   0.657E+01    0.502E+01
DAV:   7    -0.132483679710E+04   -0.23229E+02   -0.38727E+02  2568   0.336E+01    0.247E+01
DAV:   8    -0.133605736561E+04   -0.11221E+02   -0.27980E+02  2544   0.273E+01    0.277E+01
DAV:   9    -0.132677413933E+04    0.92832E+01   -0.62262E+01  2456   0.155E+01    0.827E+00
DAV:  10    -0.132772975105E+04   -0.95561E+00   -0.16268E+01  2616   0.824E+00    0.751E+00
DAV:  11    -0.132795657415E+04   -0.22682E+00   -0.65051E+00  2616   0.446E+00    0.425E+00
DAV:  12    -0.132783265656E+04    0.12392E+00   -0.24151E+00  2560   0.346E+00    0.284E+00
DAV:  13    -0.132787598685E+04   -0.43330E-01   -0.78656E-01  2592   0.175E+00    0.181E+00
DAV:  14    -0.132787016325E+04    0.58236E-02   -0.18939E-01  2624   0.932E-01    0.110E+00
DAV:  15    -0.132787296732E+04   -0.28041E-02   -0.85898E-02  2576   0.558E-01    0.781E-01
DAV:  16    -0.132787304111E+04   -0.73789E-04   -0.34812E-02  2568   0.355E-01    0.420E-01
DAV:  17    -0.132787235941E+04    0.68170E-03   -0.20714E-02  2480   0.273E-01    0.196E-01
DAV:  18    -0.132787248914E+04   -0.12973E-03   -0.42049E-03  2488   0.135E-01    0.118E-01
DAV:  19    -0.132787251838E+04   -0.29237E-04   -0.18907E-03  2536   0.832E-02    0.821E-02
DAV:  20    -0.132787253815E+04   -0.19768E-04   -0.50170E-04  2592   0.445E-02    0.256E-02
DAV:  21    -0.132787254725E+04   -0.91075E-05   -0.21803E-04  2616   0.262E-02    0.202E-02
DAV:  22    -0.132787256063E+04   -0.13379E-04   -0.60563E-05  2464   0.165E-02    0.101E-02
DAV:  23    -0.132787256401E+04   -0.33728E-05   -0.13895E-05  1120   0.725E-03    0.643E-03
DAV:  24    -0.132787256405E+04   -0.40440E-07   -0.15731E-05  1632   0.733E-03    0.265E-03
DAV:  25    -0.132787256511E+04   -0.10605E-05   -0.31206E-06   968   0.519E-03    0.174E-03
DAV:  26    -0.132787256570E+04   -0.59800E-06   -0.16736E-06   968   0.411E-03
   1 F= -.13278726E+04 E0= -.13278689E+04  d E =-.132787E+04
 BRION: g(F)=  0.612E+02 g(S)=  0.000E+00
 bond charge predicted
       N       E                     dE             d eps       ncg     rms          rms(c)
DAV:   1    -0.129026490604E+04    0.37608E+02   -0.72487E+03  1744   0.127E+02    0.313E+01
DAV:   2    -0.134985704694E+04   -0.59592E+02   -0.68400E+02  2592   0.609E+01    0.154E+01
DAV:   3    -0.134793561292E+04    0.19214E+01   -0.41894E+01  2616   0.157E+01    0.103E+01
DAV:   4    -0.134592568343E+04    0.20099E+01   -0.16048E+01  2360   0.848E+00    0.483E+00
DAV:   5    -0.134590847123E+04    0.17212E-01   -0.52546E+00  2528   0.466E+00    0.342E+00
DAV:   6    -0.134585535399E+04    0.53117E-01   -0.31754E+00  2584   0.303E+00    0.214E+00
DAV:   7    -0.134581971138E+04    0.35643E-01   -0.43813E-01  2544   0.176E+00    0.126E+00
DAV:   8    -0.134582055175E+04   -0.84037E-03   -0.54480E-01  2488   0.117E+00    0.821E-01
DAV:   9    -0.134582111376E+04   -0.56200E-03   -0.83103E-02  2536   0.592E-01    0.604E-01
DAV:  10    -0.134581683529E+04    0.42785E-02   -0.33110E-02  2616   0.335E-01    0.256E-01
DAV:  11    -0.134581755587E+04   -0.72058E-03   -0.16589E-02  2552   0.220E-01    0.147E-01
DAV:  12    -0.134581760012E+04   -0.44256E-04   -0.23975E-03  2616   0.109E-01    0.793E-02
DAV:  13    -0.134581758862E+04    0.11506E-04   -0.10958E-03  2608   0.601E-02    0.270E-02
DAV:  14    -0.134581761021E+04   -0.21594E-04   -0.24124E-04  2624   0.309E-02    0.153E-02
DAV:  15    -0.134581761549E+04   -0.52789E-05   -0.76971E-05  2616   0.166E-02    0.812E-03
DAV:  16    -0.134581761735E+04   -0.18632E-05   -0.22177E-05  2064   0.989E-03    0.601E-03
DAV:  17    -0.134581761844E+04   -0.10884E-05   -0.14854E-05  1960   0.770E-03    0.645E-03
DAV:  18    -0.134581761810E+04    0.34223E-06   -0.26685E-06  1112   0.489E-03
   2 F= -.13458176E+04 E0= -.13458176E+04  d E =-.179451E+02
 BRION: g(F)=  0.582E+02 g(S)=  0.000E+00 retain N=  1 mean eig= 0.51
 eig:   0.509
 bond charge predicted
       N       E                     dE             d eps       ncg     rms          rms(c)
DAV:   1    -0.132536517820E+04    0.20452E+02   -0.29593E+03  1344   0.721E+01    0.189E+01
DAV:   2    -0.135591577019E+04   -0.30551E+02   -0.36485E+02  2520   0.338E+01    0.189E+01
DAV:   3    -0.135604402909E+04   -0.12826E+00   -0.26643E+01  2584   0.112E+01    0.152E+01
DAV:   4    -0.135468895095E+04    0.13551E+01   -0.19815E+01  2312   0.615E+00    0.844E+00
DAV:   5    -0.135514146612E+04   -0.45252E+00   -0.60896E+00  2408   0.442E+00    0.776E+00
DAV:   6    -0.135408934395E+04    0.10521E+01   -0.73241E+00  2376   0.431E+00    0.189E+00
DAV:   7    -0.135419048503E+04   -0.10114E+00   -0.16865E+00  2320   0.246E+00    0.121E+00
DAV:   8    -0.135418997205E+04    0.51297E-03   -0.25711E-01  2616   0.883E-01    0.724E-01
DAV:   9    -0.135418936689E+04    0.60516E-03   -0.91823E-02  2616   0.518E-01    0.428E-01
DAV:  10    -0.135419031273E+04   -0.94584E-03   -0.20110E-02  2312   0.258E-01    0.159E-01
DAV:  11    -0.135419026535E+04    0.47380E-04   -0.57664E-03  2592   0.136E-01    0.919E-02
DAV:  12    -0.135419047288E+04   -0.20752E-03   -0.30897E-03  2584   0.857E-02    0.752E-02
DAV:  13    -0.135419046630E+04    0.65709E-05   -0.75266E-04  2608   0.518E-02    0.474E-02
DAV:  14    -0.135419047578E+04   -0.94719E-05   -0.53141E-04  2600   0.323E-02    0.165E-02
DAV:  15    -0.135419048384E+04   -0.80668E-05   -0.10420E-04  2528   0.193E-02    0.117E-02
DAV:  16    -0.135419048621E+04   -0.23669E-05   -0.46203E-05  2384   0.101E-02    0.647E-03
DAV:  17    -0.135419048797E+04   -0.17607E-05   -0.11057E-05  1256   0.623E-03    0.525E-03
DAV:  18    -0.135419048838E+04   -0.40536E-06   -0.40958E-06  1040   0.470E-03
   3 F= -.13541905E+04 E0= -.13541905E+04  d E =-.837287E+01
 BRION: g(F)=  0.687E+01 g(S)=  0.000E+00 retain N=  2 mean eig= 1.66
 eig:   0.358  2.959
 bond charge predicted
       N       E                     dE             d eps       ncg     rms          rms(c)
DAV:   1    -0.135558030918E+04   -0.13898E+01   -0.40161E+02  1408   0.283E+01    0.535E+00
DAV:   2    -0.135768830695E+04   -0.21080E+01   -0.23636E+01  2288   0.111E+01    0.247E+00
DAV:   3    -0.135777095779E+04   -0.82651E-01   -0.19593E+00  2600   0.266E+00    0.207E+00
DAV:   4    -0.135771726511E+04    0.53693E-01   -0.42092E-01  2576   0.137E+00    0.116E+00
DAV:   5    -0.135770426221E+04    0.13003E-01   -0.15924E-01  2376   0.810E-01    0.643E-01
DAV:   6    -0.135770472042E+04   -0.45821E-03   -0.78745E-02  2584   0.559E-01    0.460E-01
DAV:   7    -0.135770385347E+04    0.86695E-03   -0.40245E-02  2472   0.361E-01    0.284E-01
DAV:   8    -0.135770384334E+04    0.10126E-04   -0.11606E-02  2584   0.203E-01    0.151E-01
DAV:   9    -0.135770375038E+04    0.92964E-04   -0.26848E-03  2600   0.108E-01    0.903E-02
DAV:  10    -0.135770387631E+04   -0.12592E-03   -0.17080E-03  2376   0.739E-02    0.906E-02
DAV:  11    -0.135770377678E+04    0.99523E-04   -0.93733E-04  2488   0.581E-02    0.304E-02
DAV:  12    -0.135770379276E+04   -0.15981E-04   -0.28103E-04  2488   0.349E-02    0.230E-02
DAV:  13    -0.135770379390E+04   -0.11313E-05   -0.78846E-05  2568   0.171E-02    0.140E-02
DAV:  14    -0.135770379403E+04   -0.13402E-06   -0.32996E-05  2496   0.104E-02    0.611E-03
DAV:  15    -0.135770379447E+04   -0.43977E-06   -0.36942E-06  1280   0.570E-03
   4 F= -.13577038E+04 E0= -.13577038E+04  d E =-.351331E+01
 BRION: g(F)=  0.283E+01 g(S)=  0.000E+00 retain N=  3 mean eig= 1.56
 eig:   3.701  0.312  0.679
 bond charge predicted
       N       E                     dE             d eps       ncg     rms          rms(c)
DAV:   1    -0.135860272711E+04   -0.89893E+00   -0.20459E+02  1368   0.201E+01    0.328E+00
DAV:   2    -0.135956620982E+04   -0.96348E+00   -0.10457E+01  2304   0.757E+00    0.162E+00
DAV:   3    -0.135958912512E+04   -0.22915E-01   -0.76724E-01  2600   0.160E+00    0.133E+00
DAV:   4    -0.135955901225E+04    0.30113E-01   -0.18398E-01  2528   0.879E-01    0.660E-01
DAV:   5    -0.135955373591E+04    0.52763E-02   -0.60158E-02  2432   0.524E-01    0.421E-01
DAV:   6    -0.135955331349E+04    0.42242E-03   -0.38143E-02  2552   0.379E-01    0.232E-01
DAV:   7    -0.135955316772E+04    0.14576E-03   -0.13613E-02  2240   0.219E-01    0.172E-01
DAV:   8    -0.135955324163E+04   -0.73910E-04   -0.50224E-03  2328   0.119E-01    0.102E-01
DAV:   9    -0.135955312250E+04    0.11914E-03   -0.12990E-03  2608   0.727E-02    0.630E-02
DAV:  10    -0.135955315693E+04   -0.34432E-04   -0.11380E-03  2520   0.582E-02    0.600E-02
DAV:  11    -0.135955311682E+04    0.40107E-04   -0.39576E-04  2504   0.394E-02    0.204E-02
DAV:  12    -0.135955312372E+04   -0.68930E-05   -0.10764E-04  2464   0.223E-02    0.116E-02
DAV:  13    -0.135955312565E+04   -0.19337E-05   -0.32347E-05  2368   0.110E-02    0.942E-03
DAV:  14    -0.135955312512E+04    0.52643E-06   -0.11110E-05  1736   0.709E-03    0.614E-03
DAV:  15    -0.135955312529E+04   -0.16695E-06   -0.75947E-06  1536   0.595E-03
   5 F= -.13595531E+04 E0= -.13595531E+04  d E =-.184933E+01
 BRION: g(F)=  0.160E+01 g(S)=  0.000E+00 retain N=  4 mean eig= 1.17
 eig:   3.000  0.217  0.728  0.728
 bond charge predicted
       N       E                     dE             d eps       ncg     rms          rms(c)
DAV:   1    -0.136005464105E+04   -0.50152E+00   -0.20564E+02  1360   0.199E+01    0.339E+00
DAV:   2    -0.136103607947E+04   -0.98144E+00   -0.10379E+01  2280   0.743E+00    0.161E+00
DAV:   3    -0.136106042607E+04   -0.24347E-01   -0.70943E-01  2616   0.152E+00    0.122E+00
DAV:   4    -0.136103402598E+04    0.26400E-01   -0.17751E-01  2448   0.863E-01    0.514E-01
DAV:   5    -0.136103455792E+04   -0.53194E-03   -0.50198E-02  2488   0.481E-01    0.359E-01
DAV:   6    -0.136103482332E+04   -0.26540E-03   -0.29853E-02  2584   0.293E-01    0.175E-01
DAV:   7    -0.136103458862E+04    0.23471E-03   -0.43224E-03  2528   0.151E-01    0.116E-01
DAV:   8    -0.136103466100E+04   -0.72386E-04   -0.26974E-03  2584   0.859E-02    0.557E-02
DAV:   9    -0.136103464281E+04    0.18194E-04   -0.38050E-04  2624   0.474E-02    0.362E-02
DAV:  10    -0.136103464718E+04   -0.43696E-05   -0.26610E-04  2584   0.282E-02    0.183E-02
DAV:  11    -0.136103464979E+04   -0.26092E-05   -0.71784E-05  2536   0.177E-02    0.150E-02
DAV:  12    -0.136103464915E+04    0.63571E-06   -0.27715E-05  2384   0.959E-03    0.103E-02
DAV:  13    -0.136103464827E+04    0.88193E-06   -0.15228E-05  1848   0.813E-03    0.433E-03
DAV:  14    -0.136103464842E+04   -0.14939E-06   -0.49609E-06  1400   0.603E-03
   6 F= -.13610346E+04 E0= -.13610346E+04  d E =-.148152E+01
 BRION: g(F)=  0.805E+00 g(S)=  0.000E+00 retain N=  5 mean eig= 1.49
 eig:   2.798  1.823  1.823  0.329  0.685
 bond charge predicted
       N       E                     dE             d eps       ncg     rms          rms(c)
DAV:   1    -0.136150761095E+04   -0.47296E+00   -0.95907E+01  1368   0.140E+01    0.195E+00
DAV:   2    -0.136197358398E+04   -0.46597E+00   -0.49668E+00  2296   0.531E+00    0.983E-01
DAV:   3    -0.136199483132E+04   -0.21247E-01   -0.37286E-01  2608   0.108E+00    0.790E-01
DAV:   4    -0.136198516577E+04    0.96656E-02   -0.58824E-02  2552   0.535E-01    0.443E-01
DAV:   5    -0.136198273971E+04    0.24261E-02   -0.25550E-02  2408   0.331E-01    0.221E-01
DAV:   6    -0.136198315922E+04   -0.41951E-03   -0.11216E-02  2576   0.209E-01    0.162E-01
DAV:   7    -0.136198299717E+04    0.16205E-03   -0.44522E-03  2488   0.128E-01    0.103E-01
DAV:   8    -0.136198301460E+04   -0.17431E-04   -0.18343E-03  2544   0.791E-02    0.614E-02
DAV:   9    -0.136198298082E+04    0.33783E-04   -0.36702E-04  2552   0.420E-02    0.388E-02
DAV:  10    -0.136198299706E+04   -0.16244E-04   -0.36726E-04  2344   0.322E-02    0.322E-02
DAV:  11    -0.136198298417E+04    0.12891E-04   -0.11940E-04  2472   0.240E-02    0.108E-02
DAV:  12    -0.136198298837E+04   -0.41990E-05   -0.57412E-05  2352   0.140E-02    0.123E-02
DAV:  13    -0.136198298663E+04    0.17336E-05   -0.14120E-05  1816   0.818E-03    0.585E-03
DAV:  14    -0.136198298664E+04   -0.32887E-08   -0.65545E-06  1488   0.579E-03
   7 F= -.13619830E+04 E0= -.13619830E+04  d E =-.948338E+00
 BRION: g(F)=  0.542E+00 g(S)=  0.000E+00 retain N=  6 mean eig= 1.99
 eig:   2.982  3.405  3.405  0.224  0.966  0.966
 bond charge predicted
       N       E                     dE             d eps       ncg     rms          rms(c)
DAV:   1    -0.136239386996E+04   -0.41088E+00   -0.66251E+01  1376   0.117E+01    0.149E+00
DAV:   2    -0.136273422311E+04   -0.34035E+00   -0.36410E+00  2296   0.460E+00    0.775E-01
DAV:   3    -0.136275273747E+04   -0.18514E-01   -0.29078E-01  2592   0.914E-01    0.635E-01
DAV:   4    -0.136274705800E+04    0.56795E-02   -0.36499E-02  2592   0.437E-01    0.400E-01
DAV:   5    -0.136274402509E+04    0.30329E-02   -0.16779E-02  2344   0.262E-01    0.173E-01
DAV:   6    -0.136274447789E+04   -0.45280E-03   -0.87854E-03  2464   0.186E-01    0.146E-01
DAV:   7    -0.136274434181E+04    0.13607E-03   -0.45137E-03  2448   0.127E-01    0.996E-02
DAV:   8    -0.136274434429E+04   -0.24801E-05   -0.19959E-03  2600   0.806E-02    0.580E-02
DAV:   9    -0.136274432128E+04    0.23015E-04   -0.33441E-04  2544   0.401E-02    0.426E-02
DAV:  10    -0.136274432142E+04   -0.13785E-06   -0.27173E-04  2464   0.279E-02    0.273E-02
DAV:  11    -0.136274431761E+04    0.38019E-05   -0.10919E-04  2472   0.217E-02    0.129E-02
DAV:  12    -0.136274431801E+04   -0.39184E-06   -0.33922E-05  2344   0.133E-02    0.115E-02
DAV:  13    -0.136274431716E+04    0.84295E-06   -0.21754E-05  1960   0.839E-03    0.530E-03
DAV:  14    -0.136274431700E+04    0.16349E-06   -0.30891E-06  1152   0.532E-03
   8 F= -.13627443E+04 E0= -.13627443E+04  d E =-.761330E+00
 BRION: g(F)=  0.382E+00 g(S)=  0.000E+00 retain N=  7 mean eig= 2.47
 eig:   5.169  5.169  3.193  1.288  1.288  0.207  0.945
 bond charge predicted
       N       E                     dE             d eps       ncg     rms          rms(c)
DAV:   1    -0.136309622772E+04   -0.35191E+00   -0.70082E+01  1384   0.119E+01    0.146E+00
DAV:   2    -0.136345707094E+04   -0.36084E+00   -0.38382E+00  2296   0.467E+00    0.743E-01
DAV:   3    -0.136347709161E+04   -0.20021E-01   -0.30196E-01  2600   0.927E-01    0.596E-01
DAV:   4    -0.136347147479E+04    0.56168E-02   -0.33570E-02  2584   0.428E-01    0.384E-01
DAV:   5    -0.136346815553E+04    0.33193E-02   -0.15231E-02  2360   0.254E-01    0.154E-01
DAV:   6    -0.136346857178E+04   -0.41624E-03   -0.83328E-03  2464   0.175E-01    0.121E-01
DAV:   7    -0.136346855201E+04    0.19771E-04   -0.33809E-03  2464   0.111E-01    0.871E-02
DAV:   8    -0.136346854718E+04    0.48253E-05   -0.14404E-03  2592   0.704E-02    0.507E-02
DAV:   9    -0.136346853135E+04    0.15834E-04   -0.28666E-04  2536   0.364E-02    0.368E-02
DAV:  10    -0.136346853264E+04   -0.12965E-05   -0.19904E-04  2584   0.252E-02    0.223E-02
DAV:  11    -0.136346853091E+04    0.17374E-05   -0.75753E-05  2376   0.182E-02    0.106E-02
DAV:  12    -0.136346853139E+04   -0.48737E-06   -0.24513E-05  2264   0.117E-02    0.936E-03
DAV:  13    -0.136346853091E+04    0.48413E-06   -0.15102E-05  1800   0.716E-03    0.477E-03
DAV:  14    -0.136346853069E+04    0.21872E-06   -0.20227E-06  1008   0.513E-03
   9 F= -.13634685E+04 E0= -.13634685E+04  d E =-.724214E+00
 BRION: g(F)=  0.316E+00 g(S)=  0.000E+00 retain N=  8 mean eig= 2.84
 eig:   6.238  6.238  3.145  2.399  2.399  0.243  1.027  1.027
 bond charge predicted
       N       E                     dE             d eps       ncg     rms          rms(c)
DAV:   1    -0.136378548715E+04   -0.31696E+00   -0.63385E+01  1384   0.113E+01    0.137E+00
DAV:   2    -0.136411576412E+04   -0.33028E+00   -0.35224E+00  2312   0.450E+00    0.703E-01
DAV:   3    -0.136413406648E+04   -0.18302E-01   -0.27631E-01  2584   0.869E-01    0.571E-01
DAV:   4    -0.136412913213E+04    0.49344E-02   -0.30666E-02  2592   0.404E-01    0.373E-01
DAV:   5    -0.136412591794E+04    0.32142E-02   -0.13854E-02  2376   0.236E-01    0.152E-01
DAV:   6    -0.136412624278E+04   -0.32484E-03   -0.75366E-03  2432   0.165E-01    0.117E-01
DAV:   7    -0.136412620630E+04    0.36475E-04   -0.35553E-03  2424   0.113E-01    0.855E-02
DAV:   8    -0.136412621374E+04   -0.74304E-05   -0.15094E-03  2592   0.713E-02    0.561E-02
DAV:   9    -0.136412619097E+04    0.22768E-04   -0.31297E-04  2544   0.369E-02    0.394E-02
DAV:  10    -0.136412619078E+04    0.18557E-06   -0.19086E-04  2560   0.238E-02    0.230E-02
DAV:  11    -0.136412619119E+04   -0.41099E-06   -0.69014E-05  2384   0.174E-02    0.141E-02
DAV:  12    -0.136412618936E+04    0.18303E-05   -0.28923E-05  2272   0.125E-02    0.101E-02
DAV:  13    -0.136412618936E+04    0.46130E-08   -0.21804E-05  2112   0.822E-03    0.514E-03
DAV:  14    -0.136412618906E+04    0.29455E-06   -0.21095E-06  1024   0.486E-03
  10 F= -.13641262E+04 E0= -.13641262E+04  d E =-.657658E+00
 BRION: g(F)=  0.267E+00 g(S)=  0.000E+00 retain N=  7 mean eig= 2.93
 eig:   6.118  6.118  2.284  2.284  1.369  1.369  0.992
 bond charge predicted
       N       E                     dE             d eps       ncg     rms          rms(c)
DAV:   1    -0.136439759604E+04   -0.27141E+00   -0.67502E+01  1384   0.116E+01    0.137E+00
DAV:   2    -0.136474767424E+04   -0.35008E+00   -0.37211E+00  2304   0.461E+00    0.703E-01
DAV:   3    -0.136476705427E+04   -0.19380E-01   -0.28803E-01  2592   0.885E-01    0.570E-01
DAV:   4    -0.136476209826E+04    0.49560E-02   -0.28871E-02  2592   0.396E-01    0.387E-01
DAV:   5    -0.136475803110E+04    0.40672E-02   -0.14565E-02  2344   0.243E-01    0.148E-01
DAV:   6    -0.136475843133E+04   -0.40023E-03   -0.89197E-03  2408   0.172E-01    0.123E-01
DAV:   7    -0.136475839297E+04    0.38353E-04   -0.34026E-03  2464   0.110E-01    0.888E-02
DAV:   8    -0.136475837375E+04    0.19223E-04   -0.14738E-03  2592   0.709E-02    0.509E-02
DAV:   9    -0.136475835757E+04    0.16183E-04   -0.29492E-04  2432   0.366E-02    0.368E-02
DAV:  10    -0.136475835853E+04   -0.96450E-06   -0.15292E-04  2464   0.222E-02    0.209E-02
DAV:  11    -0.136475835855E+04   -0.20722E-07   -0.54317E-05  2376   0.160E-02    0.118E-02
DAV:  12    -0.136475835871E+04   -0.15438E-06   -0.27082E-05  2256   0.113E-02    0.103E-02
DAV:  13    -0.136475835789E+04    0.81590E-06   -0.14150E-05  1768   0.720E-03    0.517E-03
DAV:  14    -0.136475835780E+04    0.92536E-07   -0.44692E-06  1296   0.541E-03
  11 F= -.13647584E+04 E0= -.13647584E+04  d E =-.632169E+00
 BRION: g(F)=  0.228E+00 g(S)=  0.000E+00 retain N=  6 mean eig= 3.78
 eig:   7.540  7.540  2.672  2.672  1.143  1.143
 bond charge predicted
       N       E                     dE             d eps       ncg     rms          rms(c)
DAV:   1    -0.136500710615E+04   -0.24875E+00   -0.42669E+01  1368   0.931E+00    0.109E+00
DAV:   2    -0.136522851778E+04   -0.22141E+00   -0.23508E+00  2312   0.366E+00    0.560E-01
DAV:   3    -0.136524118268E+04   -0.12665E-01   -0.18389E-01  2584   0.708E-01    0.455E-01
DAV:   4    -0.136523821449E+04    0.29682E-02   -0.17748E-02  2600   0.316E-01    0.315E-01
DAV:   5    -0.136523549033E+04    0.27242E-02   -0.96945E-03  2304   0.200E-01    0.118E-01
DAV:   6    -0.136523579438E+04   -0.30405E-03   -0.60250E-03  2416   0.143E-01    0.104E-01
DAV:   7    -0.136523575163E+04    0.42750E-04   -0.21704E-03  2464   0.871E-02    0.713E-02
DAV:   8    -0.136523573606E+04    0.15570E-04   -0.92366E-04  2552   0.574E-02    0.394E-02
DAV:   9    -0.136523572812E+04    0.79410E-05   -0.17825E-04  2352   0.287E-02    0.287E-02
DAV:  10    -0.136523572873E+04   -0.61457E-06   -0.87487E-05  2440   0.171E-02    0.153E-02
DAV:  11    -0.136523572912E+04   -0.38669E-06   -0.26073E-05  2312   0.117E-02    0.850E-03
DAV:  12    -0.136523572948E+04   -0.36611E-06   -0.14944E-05  1976   0.832E-03    0.785E-03
DAV:  13    -0.136523572893E+04    0.55830E-06   -0.71878E-06  1592   0.600E-03
  12 F= -.13652357E+04 E0= -.13652357E+04  d E =-.477371E+00
 BRION: g(F)=  0.204E+00 g(S)=  0.000E+00 retain N=  3 mean eig= 4.20
 eig:   5.510  5.510  1.577
 bond charge predicted
       N       E                     dE             d eps       ncg     rms          rms(c)
DAV:   1    -0.136548280197E+04   -0.24707E+00   -0.40386E+01  1384   0.902E+00    0.104E+00
DAV:   2    -0.136569104170E+04   -0.20824E+00   -0.22147E+00  2312   0.353E+00    0.533E-01
DAV:   3    -0.136570288718E+04   -0.11845E-01   -0.17270E-01  2584   0.697E-01    0.429E-01
DAV:   4    -0.136570011290E+04    0.27743E-02   -0.16746E-02  2592   0.306E-01    0.294E-01
DAV:   5    -0.136569765539E+04    0.24575E-02   -0.88543E-03  2320   0.193E-01    0.112E-01
DAV:   6    -0.136569790297E+04   -0.24757E-03   -0.56015E-03  2432   0.140E-01    0.998E-02
DAV:   7    -0.136569787569E+04    0.27281E-04   -0.20844E-03  2456   0.868E-02    0.711E-02
DAV:   8    -0.136569785921E+04    0.16479E-04   -0.87656E-04  2576   0.547E-02    0.379E-02
DAV:   9    -0.136569785062E+04    0.85923E-05   -0.17252E-04  2400   0.280E-02    0.276E-02
DAV:  10    -0.136569785098E+04   -0.36097E-06   -0.90318E-05  2432   0.175E-02    0.155E-02
DAV:  11    -0.136569785075E+04    0.22243E-06   -0.27998E-05  2360   0.121E-02    0.805E-03
DAV:  12    -0.136569785130E+04   -0.54736E-06   -0.14546E-05  2000   0.816E-03    0.747E-03
DAV:  13    -0.136569785064E+04    0.65890E-06   -0.47075E-06  1312   0.560E-03
  13 F= -.13656979E+04 E0= -.13656979E+04  d E =-.462122E+00
 BRION: g(F)=  0.184E+00 g(S)=  0.000E+00 retain N=  3 mean eig= 4.81
 eig:   6.308  6.308  1.814
 bond charge predicted
       N       E                     dE             d eps       ncg     rms          rms(c)
DAV:   1    -0.136591111139E+04   -0.21326E+00   -0.25602E+01  1376   0.725E+00    0.865E-01
DAV:   2    -0.136604313162E+04   -0.13202E+00   -0.14044E+00  2296   0.284E+00    0.437E-01
DAV:   3    -0.136605103380E+04   -0.79022E-02   -0.11309E-01  2592   0.562E-01    0.350E-01
DAV:   4    -0.136604907765E+04    0.19562E-02   -0.10807E-02  2600   0.251E-01    0.236E-01
DAV:   5    -0.136604760992E+04    0.14677E-02   -0.65644E-03  2272   0.163E-01    0.846E-02
DAV:   6    -0.136604784305E+04   -0.23312E-03   -0.34537E-03  2520   0.110E-01    0.837E-02
DAV:   7    -0.136604781946E+04    0.23590E-04   -0.11377E-03  2576   0.641E-02    0.525E-02
DAV:   8    -0.136604779984E+04    0.19616E-04   -0.36802E-04  2576   0.383E-02    0.263E-02
DAV:   9    -0.136604779939E+04    0.45149E-06   -0.67475E-05  2536   0.184E-02    0.188E-02
DAV:  10    -0.136604780087E+04   -0.14767E-05   -0.41530E-05  2392   0.124E-02    0.954E-03
DAV:  11    -0.136604780019E+04    0.67195E-06   -0.74022E-06  1552   0.809E-03
  14 F= -.13660478E+04 E0= -.13660478E+04  d E =-.349950E+00
 BRION: g(F)=  0.171E+00 g(S)=  0.000E+00 retain N=  3 mean eig= 3.82
 eig:   4.892  4.892  1.673
 bond charge predicted
       N       E                     dE             d eps       ncg     rms          rms(c)
DAV:   1    -0.136625899503E+04   -0.21119E+00   -0.24389E+01  1376   0.700E+00    0.821E-01
DAV:   2    -0.136638412793E+04   -0.12513E+00   -0.13277E+00  2296   0.271E+00    0.415E-01
DAV:   3    -0.136639174715E+04   -0.76192E-02   -0.10765E-01  2592   0.539E-01    0.333E-01
DAV:   4    -0.136639005664E+04    0.16905E-02   -0.99823E-03  2600   0.242E-01    0.228E-01
DAV:   5    -0.136638859559E+04    0.14611E-02   -0.54651E-03  2320   0.154E-01    0.834E-02
DAV:   6    -0.136638877612E+04   -0.18054E-03   -0.33466E-03  2480   0.107E-01    0.776E-02
DAV:   7    -0.136638875783E+04    0.18292E-04   -0.10974E-03  2504   0.636E-02    0.531E-02
DAV:   8    -0.136638874433E+04    0.13505E-04   -0.43671E-04  2576   0.394E-02    0.270E-02
DAV:   9    -0.136638874049E+04    0.38424E-05   -0.84142E-05  2312   0.198E-02    0.194E-02
DAV:  10    -0.136638874098E+04   -0.49107E-06   -0.43020E-05  2376   0.128E-02    0.103E-02
DAV:  11    -0.136638874069E+04    0.28952E-06   -0.10661E-05  1856   0.844E-03    0.535E-03
DAV:  12    -0.136638874146E+04   -0.77303E-06   -0.10961E-05  1696   0.612E-03    0.557E-03
DAV:  13    -0.136638874103E+04    0.43340E-06   -0.11294E-06   984   0.438E-03
  15 F= -.13663887E+04 E0= -.13663887E+04  d E =-.340941E+00
 BRION: g(F)=  0.157E+00 g(S)=  0.000E+00 retain N=  3 mean eig= 4.29
 eig:   5.651  5.651  1.581
 bond charge predicted
       N       E                     dE             d eps       ncg     rms          rms(c)
DAV:   1    -0.136658594850E+04   -0.19721E+00   -0.29254E+01  1384   0.768E+00    0.895E-01
DAV:   2    -0.136673474747E+04   -0.14880E+00   -0.15755E+00  2296   0.296E+00    0.446E-01
DAV:   3    -0.136674375702E+04   -0.90096E-02   -0.12675E-01  2592   0.584E-01    0.354E-01
DAV:   4    -0.136674172842E+04    0.20286E-02   -0.11280E-02  2584   0.260E-01    0.245E-01
DAV:   5    -0.136673995298E+04    0.17754E-02   -0.67174E-03  2296   0.168E-01    0.856E-02
DAV:   6    -0.136674018442E+04   -0.23144E-03   -0.38602E-03  2480   0.113E-01    0.833E-02
DAV:   7    -0.136674016956E+04    0.14863E-04   -0.11260E-03  2544   0.648E-02    0.561E-02
DAV:   8    -0.136674014563E+04    0.23932E-04   -0.43600E-04  2576   0.402E-02    0.274E-02
DAV:   9    -0.136674014335E+04    0.22721E-05   -0.79153E-05  2320   0.200E-02    0.193E-02
DAV:  10    -0.136674014362E+04   -0.26423E-06   -0.36274E-05  2392   0.123E-02    0.848E-03
DAV:  11    -0.136674014397E+04   -0.35617E-06   -0.83896E-06  1688   0.741E-03
  16 F= -.13667401E+04 E0= -.13667401E+04  d E =-.351403E+00
 BRION: g(F)=  0.141E+00 g(S)=  0.000E+00 retain N=  3 mean eig= 4.10
 eig:   5.417  5.417  1.479
 bond charge predicted
       N       E                     dE             d eps       ncg     rms          rms(c)
DAV:   1    -0.136691827300E+04   -0.17813E+00   -0.34049E+01  1384   0.826E+00    0.954E-01
DAV:   2    -0.136709105418E+04   -0.17278E+00   -0.18256E+00  2304   0.317E+00    0.481E-01
DAV:   3    -0.136710134912E+04   -0.10295E-01   -0.14622E-01  2584   0.627E-01    0.382E-01
DAV:   4    -0.136709894611E+04    0.24030E-02   -0.13368E-02  2584   0.278E-01    0.264E-01
DAV:   5    -0.136709682237E+04    0.21237E-02   -0.76095E-03  2296   0.178E-01    0.945E-02
DAV:   6    -0.136709705932E+04   -0.23695E-03   -0.44832E-03  2472   0.121E-01    0.853E-02
DAV:   7    -0.136709704604E+04    0.13283E-04   -0.12508E-03  2528   0.687E-02    0.575E-02
DAV:   8    -0.136709702536E+04    0.20679E-04   -0.51092E-04  2568   0.434E-02    0.291E-02
DAV:   9    -0.136709702237E+04    0.29871E-05   -0.10032E-04  2336   0.220E-02    0.209E-02
DAV:  10    -0.136709702228E+04    0.91037E-07   -0.45659E-05  2416   0.138E-02    0.927E-03
DAV:  11    -0.136709702280E+04   -0.52692E-06   -0.12630E-05  2032   0.830E-03    0.443E-03
DAV:  12    -0.136709702321E+04   -0.40521E-06   -0.57136E-06  1520   0.506E-03
  17 F= -.13670970E+04 E0= -.13670970E+04  d E =-.356879E+00
 BRION: g(F)=  0.125E+00 g(S)=  0.000E+00 retain N=  3 mean eig= 4.87
 eig:   6.500  6.500  1.597
 bond charge predicted
       N       E                     dE             d eps       ncg     rms          rms(c)
DAV:   1    -0.136723904456E+04   -0.14202E+00   -0.43364E+01  1376   0.930E+00    0.108E+00
DAV:   2    -0.136745735760E+04   -0.21831E+00   -0.23074E+00  2296   0.355E+00    0.534E-01
DAV:   3    -0.136747040363E+04   -0.13046E-01   -0.18482E-01  2592   0.705E-01    0.426E-01
DAV:   4    -0.136746752488E+04    0.28788E-02   -0.16399E-02  2584   0.312E-01    0.301E-01
DAV:   5    -0.136746453708E+04    0.29878E-02   -0.95122E-03  2288   0.206E-01    0.111E-01
DAV:   6    -0.136746482258E+04   -0.28550E-03   -0.65794E-03  2440   0.148E-01    0.104E-01
DAV:   7    -0.136746480356E+04    0.19014E-04   -0.18519E-03  2520   0.830E-02    0.756E-02
DAV:   8    -0.136746476382E+04    0.39741E-04   -0.78641E-04  2576   0.528E-02    0.359E-02
DAV:   9    -0.136746475320E+04    0.10623E-04   -0.16965E-04  2248   0.276E-02    0.238E-02
DAV:  10    -0.136746475419E+04   -0.99614E-06   -0.50588E-05  2368   0.151E-02    0.137E-02
DAV:  11    -0.136746475411E+04    0.84721E-07   -0.25834E-05  2416   0.972E-03    0.531E-03
DAV:  12    -0.136746475448E+04   -0.37157E-06   -0.37159E-06  1184   0.593E-03
  18 F= -.13674648E+04 E0= -.13674648E+04  d E =-.367731E+00
 BRION: g(F)=  0.107E+00 g(S)=  0.000E+00 retain N=  2 mean eig= 4.38
 eig:   4.384  4.384
 bond charge predicted
       N       E                     dE             d eps       ncg     rms          rms(c)
DAV:   1    -0.136758625104E+04   -0.12150E+00   -0.26018E+01  1384   0.722E+00    0.845E-01
DAV:   2    -0.136771601588E+04   -0.12976E+00   -0.13731E+00  2304   0.277E+00    0.427E-01
DAV:   3    -0.136772353143E+04   -0.75156E-02   -0.10945E-01  2592   0.546E-01    0.342E-01
DAV:   4    -0.136772161489E+04    0.19165E-02   -0.10085E-02  2584   0.240E-01    0.237E-01
DAV:   5    -0.136771984384E+04    0.17710E-02   -0.61205E-03  2248   0.160E-01    0.864E-02
DAV:   6    -0.136772004756E+04   -0.20372E-03   -0.39054E-03  2448   0.113E-01    0.847E-02
DAV:   7    -0.136772002239E+04    0.25166E-04   -0.11118E-03  2504   0.639E-02    0.593E-02
DAV:   8    -0.136771999490E+04    0.27493E-04   -0.49203E-04  2584   0.414E-02    0.274E-02
DAV:   9    -0.136771999097E+04    0.39260E-05   -0.90633E-05  2280   0.208E-02    0.188E-02
DAV:  10    -0.136771999092E+04    0.50728E-07   -0.30878E-05  2368   0.115E-02    0.936E-03
DAV:  11    -0.136771999109E+04   -0.16190E-06   -0.11181E-05  1856   0.734E-03    0.390E-03
DAV:  12    -0.136771999119E+04   -0.10716E-06   -0.19556E-06   992   0.489E-03
  19 F= -.13677200E+04 E0= -.13677200E+04  d E =-.255237E+00
 BRION: g(F)=  0.962E-01 g(S)=  0.000E+00 retain N=  3 mean eig= 5.25
 eig:   6.949  6.949  1.857
 bond charge predicted
       N       E                     dE             d eps       ncg     rms          rms(c)
DAV:   1    -0.136781162704E+04   -0.91636E-01   -0.33498E+01  1376   0.814E+00    0.948E-01
DAV:   2    -0.136797887336E+04   -0.16725E+00   -0.17668E+00  2304   0.313E+00    0.475E-01
DAV:   3    -0.136798856942E+04   -0.96961E-02   -0.14036E-01  2592   0.613E-01    0.382E-01
DAV:   4    -0.136798625441E+04    0.23150E-02   -0.12775E-02  2600   0.269E-01    0.268E-01
DAV:   5    -0.136798386430E+04    0.23901E-02   -0.72627E-03  2296   0.180E-01    0.101E-01
DAV:   6    -0.136798406487E+04   -0.20057E-03   -0.52490E-03  2416   0.131E-01    0.921E-02
DAV:   7    -0.136798404346E+04    0.21408E-04   -0.14696E-03  2496   0.746E-02    0.686E-02
DAV:   8    -0.136798401326E+04    0.30200E-04   -0.67352E-04  2552   0.476E-02    0.325E-02
DAV:   9    -0.136798400310E+04    0.10158E-04   -0.15353E-04  2232   0.255E-02    0.213E-02
DAV:  10    -0.136798400413E+04   -0.10329E-05   -0.44478E-05  2328   0.139E-02    0.133E-02
DAV:  11    -0.136798400339E+04    0.74398E-06   -0.20657E-05  2184   0.889E-03    0.501E-03
DAV:  12    -0.136798400375E+04   -0.35690E-06   -0.49661E-06  1352   0.611E-03
  20 F= -.13679840E+04 E0= -.13679840E+04  d E =-.264013E+00
 BRION: g(F)=  0.830E-01 g(S)=  0.000E+00 retain N=  2 mean eig= 3.64
 eig:   3.645  3.645
