 running on  160 total cores
 distrk:  each k-point on  160 cores,    1 groups
 distr:  one band on   20 cores,    8 groups
 using from now: INCAR     
 vasp.5.4.4.18Apr17-6-g9f103f2a35 (build May 01 2020 14:22:42) gamma-only       
  
 POSCAR found type information on POSCAR  O  La Zr Li Al
 POSCAR found :  5 types and     190 ions
 scaLAPACK will be used
 LDA part: xc-table for Pade appr. of Perdew
 POSCAR, INCAR and KPOINTS ok, starting setup
 FFT: planning ...
 WAVECAR not read
 WARNING: random wavefunctions but no delay for mixing, default for NELMDL
 entering main loop
       N       E                     dE             d eps       ncg     rms          rms(c)
DAV:   1     0.252907125729E+05    0.25291E+05   -0.42190E+05  1592   0.253E+03
DAV:   2     0.938420030446E+04   -0.15907E+05   -0.14640E+05  1432   0.708E+02
DAV:   3     0.265570472697E+04   -0.67285E+04   -0.61295E+04  1504   0.356E+02
DAV:   4    -0.412657891768E+03   -0.30684E+04   -0.28669E+04  2072   0.220E+02
DAV:   5    -0.143693917817E+04   -0.10243E+04   -0.99302E+03  2528   0.140E+02    0.117E+02
DAV:   6    -0.130828624679E+04    0.12865E+03   -0.13851E+03  2432   0.648E+01    0.503E+01
DAV:   7    -0.132957312260E+04   -0.21287E+02   -0.34469E+02  2568   0.329E+01    0.235E+01
DAV:   8    -0.134001296150E+04   -0.10440E+02   -0.24118E+02  2544   0.249E+01    0.262E+01
DAV:   9    -0.133192382581E+04    0.80891E+01   -0.58972E+01  2456   0.148E+01    0.762E+00
DAV:  10    -0.133315670942E+04   -0.12329E+01   -0.15060E+01  2608   0.829E+00    0.840E+00
DAV:  11    -0.133319062283E+04   -0.33913E-01   -0.69360E+00  2624   0.451E+00    0.415E+00
DAV:  12    -0.133305842214E+04    0.13220E+00   -0.25502E+00  2584   0.360E+00    0.291E+00
DAV:  13    -0.133314043455E+04   -0.82012E-01   -0.89506E-01  2592   0.179E+00    0.221E+00
DAV:  14    -0.133311190826E+04    0.28526E-01   -0.33834E-01  2608   0.116E+00    0.119E+00
DAV:  15    -0.133312131485E+04   -0.94066E-02   -0.10574E-01  2568   0.646E-01    0.102E+00
DAV:  16    -0.133312117548E+04    0.13937E-03   -0.37667E-02  2616   0.363E-01    0.631E-01
DAV:  17    -0.133311818408E+04    0.29914E-02   -0.25826E-02  2488   0.320E-01    0.257E-01
DAV:  18    -0.133311856019E+04   -0.37611E-03   -0.54746E-03  2512   0.158E-01    0.147E-01
DAV:  19    -0.133311849431E+04    0.65884E-04   -0.27599E-03  2520   0.988E-02    0.102E-01
DAV:  20    -0.133311855095E+04   -0.56646E-04   -0.54726E-04  2616   0.498E-02    0.284E-02
DAV:  21    -0.133311856462E+04   -0.13668E-04   -0.16035E-04  2624   0.237E-02    0.349E-02
DAV:  22    -0.133311858022E+04   -0.15596E-04   -0.59954E-05  2456   0.152E-02    0.143E-02
DAV:  23    -0.133311857646E+04    0.37561E-05   -0.31807E-05  2096   0.103E-02    0.607E-03
DAV:  24    -0.133311857941E+04   -0.29521E-05   -0.82878E-06  1168   0.768E-03    0.226E-03
DAV:  25    -0.133311857966E+04   -0.25064E-06   -0.51855E-06  1096   0.570E-03
   1 F= -.13331186E+04 E0= -.13331186E+04  d E =-.133312E+04
 BRION: g(F)=  0.449E+02 g(S)=  0.000E+00
 bond charge predicted
       N       E                     dE             d eps       ncg     rms          rms(c)
DAV:   1    -0.131336849571E+04    0.19750E+02   -0.52159E+03  1664   0.107E+02    0.211E+01
DAV:   2    -0.135040632728E+04   -0.37038E+02   -0.42759E+02  2584   0.479E+01    0.114E+01
DAV:   3    -0.134970231815E+04    0.70401E+00   -0.24031E+01  2616   0.123E+01    0.781E+00
DAV:   4    -0.134855617396E+04    0.11461E+01   -0.71563E+00  2520   0.545E+00    0.392E+00
DAV:   5    -0.134832113218E+04    0.23504E+00   -0.18079E+00  2544   0.322E+00    0.242E+00
DAV:   6    -0.134825585281E+04    0.65279E-01   -0.16804E+00  2544   0.249E+00    0.114E+00
DAV:   7    -0.134827225585E+04   -0.16403E-01   -0.41551E-01  2472   0.137E+00    0.986E-01
DAV:   8    -0.134826758974E+04    0.46661E-02   -0.16707E-01  2624   0.683E-01    0.438E-01
DAV:   9    -0.134826789027E+04   -0.30053E-03   -0.24817E-02  2616   0.390E-01    0.271E-01
DAV:  10    -0.134826719115E+04    0.69912E-03   -0.10597E-02  2600   0.236E-01    0.125E-01
DAV:  11    -0.134826782315E+04   -0.63200E-03   -0.82060E-03  2608   0.170E-01    0.130E-01
DAV:  12    -0.134826776218E+04    0.60967E-04   -0.15124E-03  2616   0.790E-02    0.682E-02
DAV:  13    -0.134826773691E+04    0.25278E-04   -0.84294E-04  2528   0.548E-02    0.178E-02
DAV:  14    -0.134826775582E+04   -0.18911E-04   -0.18965E-04  2392   0.294E-02    0.140E-02
DAV:  15    -0.134826776077E+04   -0.49571E-05   -0.40016E-05  2576   0.128E-02    0.113E-02
DAV:  16    -0.134826775974E+04    0.10386E-05   -0.11853E-05  1920   0.772E-03    0.736E-03
DAV:  17    -0.134826776113E+04   -0.13906E-05   -0.21742E-05  1952   0.808E-03    0.512E-03
DAV:  18    -0.134826776074E+04    0.38411E-06   -0.16729E-06  1064   0.487E-03
   2 F= -.13482678E+04 E0= -.13482678E+04  d E =-.151492E+02
 BRION: g(F)=  0.797E+02 g(S)=  0.000E+00 retain N=  1 mean eig= 0.39
 eig:   0.394
 bond charge predicted
       N       E                     dE             d eps       ncg     rms          rms(c)
DAV:   1    -0.134019391494E+04    0.80738E+01   -0.14681E+03  1328   0.429E+01    0.167E+01
DAV:   2    -0.135765325653E+04   -0.17459E+02   -0.23559E+02  2536   0.228E+01    0.151E+01
DAV:   3    -0.135523930608E+04    0.24140E+01   -0.23541E+01  2424   0.921E+00    0.996E+00
DAV:   4    -0.135377576119E+04    0.14635E+01   -0.19175E+01  2136   0.495E+00    0.379E+00
DAV:   5    -0.135404819317E+04   -0.27243E+00   -0.35669E+00  2456   0.306E+00    0.462E+00
DAV:   6    -0.135366456764E+04    0.38363E+00   -0.33906E+00  2504   0.237E+00    0.982E-01
DAV:   7    -0.135370112375E+04   -0.36556E-01   -0.55195E-01  2448   0.143E+00    0.978E-01
DAV:   8    -0.135369015572E+04    0.10968E-01   -0.15088E-01  2600   0.709E-01    0.529E-01
DAV:   9    -0.135368884263E+04    0.13131E-02   -0.43737E-02  2520   0.378E-01    0.216E-01
DAV:  10    -0.135368950702E+04   -0.66439E-03   -0.11465E-02  2592   0.209E-01    0.164E-01
DAV:  11    -0.135368940588E+04    0.10114E-03   -0.33224E-03  2576   0.116E-01    0.141E-01
DAV:  12    -0.135368922630E+04    0.17958E-03   -0.32622E-03  2400   0.886E-02    0.457E-02
DAV:  13    -0.135368926652E+04   -0.40217E-04   -0.76852E-04  2424   0.548E-02    0.401E-02
DAV:  14    -0.135368926302E+04    0.34976E-05   -0.16060E-04  2552   0.251E-02    0.309E-02
DAV:  15    -0.135368925456E+04    0.84635E-05   -0.65381E-05  2536   0.147E-02    0.137E-02
DAV:  16    -0.135368925469E+04   -0.13116E-06   -0.29113E-05  2392   0.100E-02    0.513E-03
DAV:  17    -0.135368925460E+04    0.87981E-07   -0.30304E-06  1216   0.548E-03
   3 F= -.13536893E+04 E0= -.13536893E+04  d E =-.542149E+01
 BRION: g(F)=  0.870E+01 g(S)=  0.000E+00 retain N=  2 mean eig= 1.80
 eig:   0.212  3.398
 bond charge predicted
       N       E                     dE             d eps       ncg     rms          rms(c)
DAV:   1    -0.135511513259E+04   -0.14259E+01   -0.45847E+02  1408   0.304E+01    0.650E+00
DAV:   2    -0.135746511683E+04   -0.23500E+01   -0.26810E+01  2264   0.118E+01    0.278E+00
DAV:   3    -0.135754995530E+04   -0.84838E-01   -0.24495E+00  2616   0.298E+00    0.247E+00
DAV:   4    -0.135747727936E+04    0.72676E-01   -0.40552E-01  2576   0.142E+00    0.144E+00
DAV:   5    -0.135745735713E+04    0.19922E-01   -0.28121E-01  2184   0.100E+00    0.746E-01
DAV:   6    -0.135745717023E+04    0.18690E-03   -0.12608E-01  2528   0.683E-01    0.594E-01
DAV:   7    -0.135745529588E+04    0.18743E-02   -0.64032E-02  2536   0.452E-01    0.344E-01
DAV:   8    -0.135745448134E+04    0.81454E-03   -0.97810E-03  2592   0.211E-01    0.225E-01
DAV:   9    -0.135745438682E+04    0.94529E-04   -0.51955E-03  2584   0.130E-01    0.104E-01
DAV:  10    -0.135745444813E+04   -0.61311E-04   -0.12065E-03  2584   0.714E-02    0.717E-02
DAV:  11    -0.135745436867E+04    0.79459E-04   -0.57639E-04  2528   0.517E-02    0.297E-02
DAV:  12    -0.135745440212E+04   -0.33450E-04   -0.46809E-04  2488   0.368E-02    0.282E-02
DAV:  13    -0.135745438944E+04    0.12676E-04   -0.94078E-05  2536   0.209E-02    0.106E-02
DAV:  14    -0.135745439374E+04   -0.42997E-05   -0.64876E-05  2544   0.130E-02    0.104E-02
DAV:  15    -0.135745439253E+04    0.12131E-05   -0.47758E-06  1368   0.698E-03    0.774E-03
DAV:  16    -0.135745439223E+04    0.29350E-06   -0.14988E-05  1592   0.665E-03    0.221E-03
DAV:  17    -0.135745439230E+04   -0.62326E-07   -0.12998E-06  1016   0.427E-03
   4 F= -.13574544E+04 E0= -.13574544E+04  d E =-.376514E+01
 BRION: g(F)=  0.365E+01 g(S)=  0.000E+00 retain N=  3 mean eig= 2.16
 eig:   5.602  0.263  0.611
 bond charge predicted
       N       E                     dE             d eps       ncg     rms          rms(c)
DAV:   1    -0.135856627535E+04   -0.11119E+01   -0.23225E+02  1376   0.213E+01    0.327E+00
DAV:   2    -0.135970726962E+04   -0.11410E+01   -0.12286E+01  2312   0.812E+00    0.165E+00
DAV:   3    -0.135973230495E+04   -0.25035E-01   -0.84147E-01  2616   0.167E+00    0.133E+00
DAV:   4    -0.135969746192E+04    0.34843E-01   -0.17787E-01  2560   0.885E-01    0.690E-01
DAV:   5    -0.135969053922E+04    0.69227E-02   -0.67753E-02  2400   0.530E-01    0.385E-01
DAV:   6    -0.135969115025E+04   -0.61103E-03   -0.40751E-02  2528   0.383E-01    0.237E-01
DAV:   7    -0.135969094523E+04    0.20502E-03   -0.12676E-02  2216   0.213E-01    0.185E-01
DAV:   8    -0.135969093514E+04    0.10089E-04   -0.48582E-03  2360   0.118E-01    0.105E-01
DAV:   9    -0.135969083714E+04    0.98005E-04   -0.14125E-03  2624   0.743E-02    0.635E-02
DAV:  10    -0.135969087505E+04   -0.37910E-04   -0.90780E-04  2536   0.557E-02    0.638E-02
DAV:  11    -0.135969083136E+04    0.43683E-04   -0.40718E-04  2472   0.392E-02    0.236E-02
DAV:  12    -0.135969083761E+04   -0.62476E-05   -0.14575E-04  2400   0.236E-02    0.131E-02
DAV:  13    -0.135969083888E+04   -0.12692E-05   -0.29994E-05  2456   0.110E-02    0.813E-03
DAV:  14    -0.135969083927E+04   -0.38478E-06   -0.11908E-05  1816   0.668E-03    0.588E-03
DAV:  15    -0.135969083920E+04    0.69325E-07   -0.17526E-06  1032   0.490E-03
   5 F= -.13596908E+04 E0= -.13596908E+04  d E =-.223645E+01
 BRION: g(F)=  0.225E+01 g(S)=  0.000E+00 retain N=  4 mean eig= 1.90
 eig:   5.948  0.052  0.809  0.809
 bond charge predicted
       N       E                     dE             d eps       ncg     rms          rms(c)
DAV:   1    -0.136054384857E+04   -0.85301E+00   -0.21391E+02  1352   0.205E+01    0.270E+00
DAV:   2    -0.136164264571E+04   -0.10988E+01   -0.11616E+01  2264   0.781E+00    0.148E+00
DAV:   3    -0.136168994676E+04   -0.47301E-01   -0.86183E-01  2600   0.163E+00    0.132E+00
DAV:   4    -0.136167121940E+04    0.18727E-01   -0.11016E-01  2616   0.698E-01    0.898E-01
DAV:   5    -0.136165225555E+04    0.18964E-01   -0.78966E-02  2160   0.538E-01    0.339E-01
DAV:   6    -0.136165639239E+04   -0.41368E-02   -0.55398E-02  2456   0.410E-01    0.457E-01
DAV:   7    -0.136165414162E+04    0.22508E-02   -0.21028E-02  2480   0.265E-01    0.288E-01
DAV:   8    -0.136165338814E+04    0.75348E-03   -0.89584E-03  2536   0.166E-01    0.115E-01
DAV:   9    -0.136165338829E+04   -0.14988E-06   -0.11541E-03  2480   0.726E-02    0.750E-02
DAV:  10    -0.136165338327E+04    0.50237E-05   -0.40394E-04  2328   0.355E-02    0.293E-02
DAV:  11    -0.136165338943E+04   -0.61676E-05   -0.12515E-04  2552   0.248E-02    0.180E-02
DAV:  12    -0.136165339263E+04   -0.32015E-05   -0.10399E-04  2424   0.183E-02    0.183E-02
DAV:  13    -0.136165338935E+04    0.32801E-05   -0.30079E-05  2192   0.107E-02    0.911E-03
DAV:  14    -0.136165338905E+04    0.29926E-06   -0.80050E-06  1616   0.596E-03
   6 F= -.13616534E+04 E0= -.13616534E+04  d E =-.196255E+01
 BRION: g(F)=  0.114E+01 g(S)=  0.000E+00 retain N=  5 mean eig= 2.13
 eig:   6.154  1.753  1.753  0.093  0.903
 bond charge predicted
       N       E                     dE             d eps       ncg     rms          rms(c)
DAV:   1    -0.136203734352E+04   -0.38395E+00   -0.17895E+02  1376   0.183E+01    0.253E+00
DAV:   2    -0.136297051225E+04   -0.93317E+00   -0.98087E+00  2296   0.709E+00    0.134E+00
DAV:   3    -0.136300308858E+04   -0.32576E-01   -0.71171E-01  2608   0.141E+00    0.109E+00
DAV:   4    -0.136297944819E+04    0.23640E-01   -0.12212E-01  2568   0.720E-01    0.595E-01
DAV:   5    -0.136297206436E+04    0.73838E-02   -0.41804E-02  2512   0.411E-01    0.278E-01
DAV:   6    -0.136297266146E+04   -0.59711E-03   -0.22721E-02  2448   0.291E-01    0.186E-01
DAV:   7    -0.136297248104E+04    0.18043E-03   -0.91854E-03  2248   0.184E-01    0.143E-01
DAV:   8    -0.136297251587E+04   -0.34830E-04   -0.33589E-03  2368   0.940E-02    0.825E-02
DAV:   9    -0.136297248873E+04    0.27133E-04   -0.74308E-04  2624   0.522E-02    0.512E-02
DAV:  10    -0.136297248748E+04    0.12509E-05   -0.39392E-04  2544   0.385E-02    0.339E-02
DAV:  11    -0.136297248441E+04    0.30747E-05   -0.16883E-04  2528   0.254E-02    0.154E-02
DAV:  12    -0.136297248586E+04   -0.14546E-05   -0.54408E-05  2352   0.149E-02    0.110E-02
DAV:  13    -0.136297248553E+04    0.32812E-06   -0.16632E-05  1992   0.862E-03    0.665E-03
DAV:  14    -0.136297248568E+04   -0.14307E-06   -0.87813E-06  1664   0.618E-03
   7 F= -.13629725E+04 E0= -.13629725E+04  d E =-.131910E+01
 BRION: g(F)=  0.520E+00 g(S)=  0.000E+00 retain N=  5 mean eig= 1.63
 eig:   3.083  3.083  0.391  0.807  0.807
 bond charge predicted
       N       E                     dE             d eps       ncg     rms          rms(c)
DAV:   1    -0.136337404607E+04   -0.40156E+00   -0.63843E+01  1384   0.114E+01    0.152E+00
DAV:   2    -0.136371514598E+04   -0.34110E+00   -0.36284E+00  2296   0.463E+00    0.743E-01
DAV:   3    -0.136373409130E+04   -0.18945E-01   -0.28374E-01  2592   0.893E-01    0.622E-01
DAV:   4    -0.136372899578E+04    0.50955E-02   -0.32773E-02  2616   0.422E-01    0.404E-01
DAV:   5    -0.136372581451E+04    0.31813E-02   -0.16923E-02  2320   0.269E-01    0.162E-01
DAV:   6    -0.136372649274E+04   -0.67822E-03   -0.98038E-03  2488   0.191E-01    0.158E-01
DAV:   7    -0.136372632091E+04    0.17183E-03   -0.40599E-03  2456   0.120E-01    0.108E-01
DAV:   8    -0.136372626521E+04    0.55697E-04   -0.19001E-03  2568   0.793E-02    0.507E-02
DAV:   9    -0.136372625056E+04    0.14656E-04   -0.31080E-04  2408   0.388E-02    0.379E-02
DAV:  10    -0.136372625364E+04   -0.30787E-05   -0.19540E-04  2376   0.255E-02    0.242E-02
DAV:  11    -0.136372624934E+04    0.42994E-05   -0.65428E-05  2400   0.183E-02    0.113E-02
DAV:  12    -0.136372625247E+04   -0.31332E-05   -0.43306E-05  2344   0.124E-02    0.130E-02
DAV:  13    -0.136372625023E+04    0.22391E-05   -0.15787E-05  1800   0.818E-03    0.544E-03
DAV:  14    -0.136372625034E+04   -0.10489E-06   -0.45125E-06  1288   0.559E-03
   8 F= -.13637263E+04 E0= -.13637263E+04  d E =-.753765E+00
 BRION: g(F)=  0.480E+00 g(S)=  0.000E+00 retain N=  6 mean eig= 2.03
 eig:   4.294  4.294  1.155  1.155  0.382  0.898
 bond charge predicted
       N       E                     dE             d eps       ncg     rms          rms(c)
DAV:   1    -0.136410258757E+04   -0.37634E+00   -0.75158E+01  1384   0.124E+01    0.151E+00
DAV:   2    -0.136450581503E+04   -0.40323E+00   -0.42692E+00  2296   0.500E+00    0.757E-01
DAV:   3    -0.136452882570E+04   -0.23011E-01   -0.33489E-01  2576   0.957E-01    0.616E-01
DAV:   4    -0.136452345210E+04    0.53736E-02   -0.35526E-02  2592   0.442E-01    0.416E-01
DAV:   5    -0.136451957365E+04    0.38785E-02   -0.15824E-02  2384   0.262E-01    0.172E-01
DAV:   6    -0.136451989017E+04   -0.31651E-03   -0.10138E-02  2432   0.195E-01    0.122E-01
DAV:   7    -0.136451994629E+04   -0.56126E-04   -0.47191E-03  2432   0.128E-01    0.100E-01
DAV:   8    -0.136451992058E+04    0.25712E-04   -0.16835E-03  2600   0.778E-02    0.573E-02
DAV:   9    -0.136451989938E+04    0.21204E-04   -0.43133E-04  2576   0.416E-02    0.376E-02
DAV:  10    -0.136451990532E+04   -0.59391E-05   -0.19553E-04  2568   0.264E-02    0.256E-02
DAV:  11    -0.136451990349E+04    0.18284E-05   -0.88299E-05  2416   0.189E-02    0.134E-02
DAV:  12    -0.136451990270E+04    0.79266E-06   -0.32586E-05  2304   0.134E-02    0.108E-02
DAV:  13    -0.136451990243E+04    0.26361E-06   -0.23918E-05  2120   0.862E-03    0.592E-03
DAV:  14    -0.136451990216E+04    0.26973E-06   -0.36174E-06  1200   0.524E-03
   9 F= -.13645199E+04 E0= -.13645199E+04  d E =-.793652E+00
 BRION: g(F)=  0.336E+00 g(S)=  0.000E+00 retain N=  7 mean eig= 2.60
 eig:   5.843  5.843  2.096  2.096  0.371  0.988  0.988
 bond charge predicted
       N       E                     dE             d eps       ncg     rms          rms(c)
DAV:   1    -0.136482093787E+04   -0.30104E+00   -0.66702E+01  1392   0.117E+01    0.141E+00
DAV:   2    -0.136518102944E+04   -0.36009E+00   -0.38245E+00  2296   0.470E+00    0.703E-01
DAV:   3    -0.136520239662E+04   -0.21367E-01   -0.30621E-01  2592   0.914E-01    0.576E-01
DAV:   4    -0.136519772368E+04    0.46729E-02   -0.29860E-02  2624   0.414E-01    0.405E-01
DAV:   5    -0.136519331737E+04    0.44063E-02   -0.13846E-02  2352   0.257E-01    0.170E-01
DAV:   6    -0.136519352033E+04   -0.20296E-03   -0.11765E-02  2384   0.212E-01    0.124E-01
DAV:   7    -0.136519362319E+04   -0.10286E-03   -0.54199E-03  2416   0.134E-01    0.108E-01
DAV:   8    -0.136519357672E+04    0.46465E-04   -0.15311E-03  2616   0.762E-02    0.586E-02
DAV:   9    -0.136519353671E+04    0.40011E-04   -0.50897E-04  2592   0.442E-02    0.343E-02
DAV:  10    -0.136519354733E+04   -0.10624E-04   -0.19329E-04  2584   0.273E-02    0.255E-02
DAV:  11    -0.136519354457E+04    0.27691E-05   -0.84629E-05  2400   0.188E-02    0.145E-02
DAV:  12    -0.136519354401E+04    0.55986E-06   -0.35283E-05  2312   0.137E-02    0.128E-02
DAV:  13    -0.136519354300E+04    0.10042E-05   -0.28164E-05  2168   0.933E-03    0.663E-03
DAV:  14    -0.136519354254E+04    0.46159E-06   -0.41230E-06  1216   0.552E-03
  10 F= -.13651935E+04 E0= -.13651935E+04  d E =-.673640E+00
 BRION: g(F)=  0.264E+00 g(S)=  0.000E+00 retain N=  7 mean eig= 2.26
 eig:   2.928  2.928  3.305  3.305  1.170  1.170  1.024
 bond charge predicted
       N       E                     dE             d eps       ncg     rms          rms(c)
DAV:   1    -0.136546844675E+04   -0.27490E+00   -0.42530E+01  1392   0.938E+00    0.111E+00
DAV:   2    -0.136570031750E+04   -0.23187E+00   -0.24709E+00  2288   0.378E+00    0.549E-01
DAV:   3    -0.136571511508E+04   -0.14798E-01   -0.20278E-01  2584   0.748E-01    0.459E-01
DAV:   4    -0.136571276277E+04    0.23523E-02   -0.18539E-02  2600   0.331E-01    0.338E-01
DAV:   5    -0.136570983901E+04    0.29238E-02   -0.89439E-03  2344   0.198E-01    0.149E-01
DAV:   6    -0.136570987282E+04   -0.33802E-04   -0.77372E-03  2304   0.166E-01    0.102E-01
DAV:   7    -0.136570993300E+04   -0.60181E-04   -0.36810E-03  2432   0.111E-01    0.881E-02
DAV:   8    -0.136570989527E+04    0.37729E-04   -0.11310E-03  2584   0.672E-02    0.512E-02
DAV:   9    -0.136570987492E+04    0.20350E-04   -0.34132E-04  2576   0.358E-02    0.293E-02
DAV:  10    -0.136570988025E+04   -0.53361E-05   -0.10278E-04  2568   0.199E-02    0.188E-02
DAV:  11    -0.136570988243E+04   -0.21794E-05   -0.42518E-05  2360   0.138E-02    0.144E-02
DAV:  12    -0.136570988027E+04    0.21617E-05   -0.25735E-05  2240   0.117E-02    0.114E-02
DAV:  13    -0.136570987953E+04    0.74327E-06   -0.18562E-05  1992   0.797E-03    0.623E-03
DAV:  14    -0.136570987902E+04    0.51362E-06   -0.22215E-06  1000   0.505E-03
  11 F= -.13657099E+04 E0= -.13657099E+04  d E =-.516336E+00
 BRION: g(F)=  0.239E+00 g(S)=  0.000E+00 retain N=  4 mean eig= 4.60
 eig:   7.583  7.583  1.612  1.612
 bond charge predicted
       N       E                     dE             d eps       ncg     rms          rms(c)
DAV:   1    -0.136593935198E+04   -0.22947E+00   -0.49621E+01  1392   0.101E+01    0.117E+00
DAV:   2    -0.136620268145E+04   -0.26333E+00   -0.27873E+00  2304   0.404E+00    0.582E-01
DAV:   3    -0.136621870734E+04   -0.16026E-01   -0.22124E-01  2576   0.773E-01    0.480E-01
DAV:   4    -0.136621621688E+04    0.24905E-02   -0.19597E-02  2616   0.336E-01    0.369E-01
DAV:   5    -0.136621224833E+04    0.39686E-02   -0.98787E-03  2280   0.210E-01    0.170E-01
DAV:   6    -0.136621212294E+04    0.12539E-03   -0.10320E-02  2248   0.191E-01    0.108E-01
DAV:   7    -0.136621224785E+04   -0.12492E-03   -0.50863E-03  2400   0.127E-01    0.101E-01
DAV:   8    -0.136621219183E+04    0.56024E-04   -0.11793E-03  2552   0.726E-02    0.634E-02
DAV:   9    -0.136621214810E+04    0.43727E-04   -0.50174E-04  2600   0.408E-02    0.317E-02
DAV:  10    -0.136621215885E+04   -0.10744E-04   -0.16072E-04  2568   0.253E-02    0.208E-02
DAV:  11    -0.136621216160E+04   -0.27566E-05   -0.54711E-05  2368   0.150E-02    0.171E-02
DAV:  12    -0.136621215863E+04    0.29729E-05   -0.40934E-05  2280   0.140E-02    0.138E-02
DAV:  13    -0.136621215741E+04    0.12239E-05   -0.25920E-05  2136   0.973E-03    0.840E-03
DAV:  14    -0.136621215684E+04    0.56294E-06   -0.64575E-06  1544   0.564E-03
  12 F= -.13662122E+04 E0= -.13662122E+04  d E =-.502278E+00
 BRION: g(F)=  0.220E+00 g(S)=  0.000E+00 retain N=  4 mean eig= 4.25
 eig:   6.564  6.564  1.928  1.928
 bond charge predicted
       N       E                     dE             d eps       ncg     rms          rms(c)
DAV:   1    -0.136641245727E+04   -0.20030E+00   -0.81149E+01  1392   0.129E+01    0.149E+00
DAV:   2    -0.136684846185E+04   -0.43600E+00   -0.46256E+00  2304   0.516E+00    0.745E-01
DAV:   3    -0.136687550928E+04   -0.27047E-01   -0.37345E-01  2584   0.100E+00    0.619E-01
DAV:   4    -0.136687157201E+04    0.39373E-02   -0.32726E-02  2616   0.435E-01    0.475E-01
DAV:   5    -0.136686515503E+04    0.64170E-02   -0.14996E-02  2336   0.260E-01    0.230E-01
DAV:   6    -0.136686458374E+04    0.57128E-03   -0.17021E-02  2224   0.245E-01    0.129E-01
DAV:   7    -0.136686490511E+04   -0.32136E-03   -0.87799E-03  2408   0.165E-01    0.133E-01
DAV:   8    -0.136686481914E+04    0.85963E-04   -0.17786E-03  2576   0.914E-02    0.929E-02
DAV:   9    -0.136686471643E+04    0.10272E-03   -0.92482E-04  2576   0.544E-02    0.434E-02
DAV:  10    -0.136686473671E+04   -0.20279E-04   -0.33370E-04  2576   0.351E-02    0.271E-02
DAV:  11    -0.136686474360E+04   -0.68955E-05   -0.91826E-05  2320   0.196E-02    0.225E-02
DAV:  12    -0.136686473778E+04    0.58222E-05   -0.88314E-05  2296   0.198E-02    0.192E-02
DAV:  13    -0.136686473544E+04    0.23408E-05   -0.51435E-05  2304   0.139E-02    0.133E-02
DAV:  14    -0.136686473402E+04    0.14247E-05   -0.15748E-05  1920   0.760E-03    0.508E-03
DAV:  15    -0.136686473392E+04    0.10061E-06   -0.16373E-06   944   0.432E-03
  13 F= -.13668647E+04 E0= -.13668647E+04  d E =-.652577E+00
 BRION: g(F)=  0.202E+00 g(S)=  0.000E+00 retain N=  3 mean eig= 5.19
 eig:   6.773  6.773  2.031
 bond charge predicted
       N       E                     dE             d eps       ncg     rms          rms(c)
DAV:   1    -0.136707569751E+04   -0.21096E+00   -0.30990E+01  1376   0.797E+00    0.907E-01
DAV:   2    -0.136723766891E+04   -0.16197E+00   -0.17130E+00  2288   0.314E+00    0.456E-01
DAV:   3    -0.136724765345E+04   -0.99845E-02   -0.13851E-01  2584   0.615E-01    0.375E-01
DAV:   4    -0.136724596595E+04    0.16875E-02   -0.12051E-02  2608   0.264E-01    0.283E-01
DAV:   5    -0.136724355840E+04    0.24075E-02   -0.66612E-03  2288   0.166E-01    0.121E-01
DAV:   6    -0.136724359262E+04   -0.34214E-04   -0.57426E-03  2272   0.139E-01    0.906E-02
DAV:   7    -0.136724361031E+04   -0.17690E-04   -0.26321E-03  2456   0.930E-02    0.741E-02
DAV:   8    -0.136724357831E+04    0.31998E-04   -0.79593E-04  2552   0.572E-02    0.415E-02
DAV:   9    -0.136724356556E+04    0.12748E-04   -0.22142E-04  2488   0.291E-02    0.244E-02
DAV:  10    -0.136724356917E+04   -0.36081E-05   -0.70217E-05  2520   0.160E-02    0.147E-02
DAV:  11    -0.136724357044E+04   -0.12708E-05   -0.24788E-05  2208   0.111E-02    0.113E-02
DAV:  12    -0.136724356921E+04    0.12314E-05   -0.16174E-05  1984   0.909E-03    0.928E-03
DAV:  13    -0.136724356866E+04    0.55383E-06   -0.10961E-05  1760   0.667E-03    0.530E-03
DAV:  14    -0.136724356829E+04    0.36550E-06   -0.20852E-06   984   0.480E-03
  14 F= -.13672436E+04 E0= -.13672436E+04  d E =-.378834E+00
 BRION: g(F)=  0.193E+00 g(S)=  0.000E+00 retain N=  3 mean eig= 4.12
 eig:   5.398  5.398  1.577
 bond charge predicted
       N       E                     dE             d eps       ncg     rms          rms(c)
DAV:   1    -0.136744339474E+04   -0.19983E+00   -0.52639E+01  1376   0.104E+01    0.120E+00
DAV:   2    -0.136772102272E+04   -0.27763E+00   -0.29422E+00  2304   0.410E+00    0.606E-01
DAV:   3    -0.136773781813E+04   -0.16795E-01   -0.23689E-01  2584   0.799E-01    0.492E-01
DAV:   4    -0.136773473413E+04    0.30840E-02   -0.21713E-02  2616   0.352E-01    0.361E-01
DAV:   5    -0.136773097345E+04    0.37607E-02   -0.10138E-02  2336   0.212E-01    0.164E-01
DAV:   6    -0.136773084361E+04    0.12985E-03   -0.92726E-03  2272   0.182E-01    0.104E-01
DAV:   7    -0.136773096910E+04   -0.12549E-03   -0.46480E-03  2448   0.123E-01    0.974E-02
DAV:   8    -0.136773092038E+04    0.48722E-04   -0.11622E-03  2576   0.700E-02    0.626E-02
DAV:   9    -0.136773088309E+04    0.37288E-04   -0.45234E-04  2544   0.396E-02    0.323E-02
DAV:  10    -0.136773089280E+04   -0.97137E-05   -0.16783E-04  2512   0.246E-02    0.205E-02
DAV:  11    -0.136773089527E+04   -0.24659E-05   -0.50796E-05  2424   0.152E-02    0.158E-02
DAV:  12    -0.136773089245E+04    0.28234E-05   -0.40961E-05  2296   0.136E-02    0.131E-02
DAV:  13    -0.136773089116E+04    0.12846E-05   -0.24538E-05  2152   0.957E-03    0.756E-03
DAV:  14    -0.136773089080E+04    0.36180E-06   -0.60553E-06  1512   0.552E-03
  15 F= -.13677309E+04 E0= -.13677309E+04  d E =-.487323E+00
 BRION: g(F)=  0.172E+00 g(S)=  0.000E+00 retain N=  3 mean eig= 5.73
 eig:   7.817  7.817  1.567
 bond charge predicted
       N       E                     dE             d eps       ncg     rms          rms(c)
DAV:   1    -0.136790469951E+04   -0.17381E+00   -0.55776E+01  1368   0.106E+01    0.120E+00
DAV:   2    -0.136819126706E+04   -0.28657E+00   -0.30204E+00  2296   0.412E+00    0.609E-01
DAV:   3    -0.136820856746E+04   -0.17300E-01   -0.24221E-01  2592   0.806E-01    0.490E-01
DAV:   4    -0.136820528636E+04    0.32811E-02   -0.20867E-02  2592   0.346E-01    0.359E-01
DAV:   5    -0.136820138504E+04    0.39013E-02   -0.11134E-02  2320   0.214E-01    0.147E-01
DAV:   6    -0.136820149709E+04   -0.11205E-03   -0.85280E-03  2304   0.167E-01    0.105E-01
DAV:   7    -0.136820153325E+04   -0.36156E-04   -0.34617E-03  2448   0.108E-01    0.832E-02
DAV:   8    -0.136820150020E+04    0.33051E-04   -0.11297E-03  2568   0.666E-02    0.473E-02
DAV:   9    -0.136820148664E+04    0.13557E-04   -0.30002E-04  2488   0.347E-02    0.298E-02
DAV:  10    -0.136820149091E+04   -0.42757E-05   -0.97126E-05  2504   0.190E-02    0.182E-02
DAV:  11    -0.136820149128E+04   -0.36950E-06   -0.34446E-05  2408   0.127E-02    0.111E-02
DAV:  12    -0.136820149095E+04    0.33191E-06   -0.22338E-05  2184   0.977E-03    0.960E-03
DAV:  13    -0.136820149031E+04    0.63954E-06   -0.10823E-05  1760   0.657E-03    0.552E-03
DAV:  14    -0.136820149003E+04    0.28062E-06   -0.39835E-06  1208   0.500E-03
  16 F= -.13682015E+04 E0= -.13682015E+04  d E =-.470599E+00
 BRION: g(F)=  0.154E+00 g(S)=  0.000E+00 retain N=  3 mean eig= 4.79
 eig:   6.431  6.431  1.502
 bond charge predicted
       N       E                     dE             d eps       ncg     rms          rms(c)
DAV:   1    -0.136831866069E+04   -0.11717E+00   -0.64961E+01  1376   0.115E+01    0.131E+00
DAV:   2    -0.136865401840E+04   -0.33536E+00   -0.35485E+00  2296   0.448E+00    0.670E-01
DAV:   3    -0.136867450863E+04   -0.20490E-01   -0.28906E-01  2592   0.898E-01    0.541E-01
DAV:   4    -0.136867052050E+04    0.39881E-02   -0.25767E-02  2592   0.385E-01    0.392E-01
DAV:   5    -0.136866606128E+04    0.44592E-02   -0.13178E-02  2320   0.233E-01    0.169E-01
DAV:   6    -0.136866608111E+04   -0.19830E-04   -0.10393E-02  2328   0.190E-01    0.119E-01
DAV:   7    -0.136866613604E+04   -0.54929E-04   -0.47603E-03  2432   0.127E-01    0.977E-02
DAV:   8    -0.136866609427E+04    0.41769E-04   -0.15227E-03  2576   0.774E-02    0.600E-02
DAV:   9    -0.136866606793E+04    0.26337E-04   -0.42195E-04  2536   0.403E-02    0.351E-02
DAV:  10    -0.136866607369E+04   -0.57518E-05   -0.15035E-04  2560   0.232E-02    0.208E-02
DAV:  11    -0.136866607631E+04   -0.26227E-05   -0.51006E-05  2456   0.154E-02    0.152E-02
DAV:  12    -0.136866607404E+04    0.22698E-05   -0.32277E-05  2296   0.125E-02    0.122E-02
DAV:  13    -0.136866607315E+04    0.89282E-06   -0.21915E-05  2112   0.872E-03    0.663E-03
DAV:  14    -0.136866607276E+04    0.38593E-06   -0.42767E-06  1264   0.531E-03
  17 F= -.13686661E+04 E0= -.13686661E+04  d E =-.464583E+00
 BRION: g(F)=  0.133E+00 g(S)=  0.000E+00 retain N=  2 mean eig= 4.48
 eig:   4.484  4.484
 bond charge predicted
       N       E                     dE             d eps       ncg     rms          rms(c)
DAV:   1    -0.136879193956E+04   -0.12587E+00   -0.41978E+01  1360   0.916E+00    0.103E+00
DAV:   2    -0.136899987973E+04   -0.20794E+00   -0.21838E+00  2296   0.349E+00    0.528E-01
DAV:   3    -0.136901191188E+04   -0.12032E-01   -0.17232E-01  2600   0.684E-01    0.415E-01
DAV:   4    -0.136900913226E+04    0.27796E-02   -0.15098E-02  2600   0.289E-01    0.292E-01
DAV:   5    -0.136900651978E+04    0.26125E-02   -0.80645E-03  2344   0.181E-01    0.114E-01
DAV:   6    -0.136900666249E+04   -0.14272E-03   -0.53112E-03  2408   0.132E-01    0.844E-02
DAV:   7    -0.136900667034E+04   -0.78502E-05   -0.18993E-03  2440   0.820E-02    0.618E-02
DAV:   8    -0.136900665839E+04    0.11948E-04   -0.69884E-04  2616   0.511E-02    0.369E-02
DAV:   9    -0.136900665128E+04    0.71172E-05   -0.15682E-04  2496   0.262E-02    0.249E-02
DAV:  10    -0.136900665117E+04    0.10645E-06   -0.66928E-05  2552   0.154E-02    0.125E-02
DAV:  11    -0.136900665201E+04   -0.83905E-06   -0.19383E-05  2224   0.989E-03    0.668E-03
DAV:  12    -0.136900665203E+04   -0.24287E-07   -0.96159E-06  1720   0.680E-03
  18 F= -.13690067E+04 E0= -.13690067E+04  d E =-.340579E+00
 BRION: g(F)=  0.114E+00 g(S)=  0.000E+00 retain N=  2 mean eig= 5.04
 eig:   5.045  5.045
 bond charge predicted
       N       E                     dE             d eps       ncg     rms          rms(c)
DAV:   1    -0.136909582167E+04   -0.89170E-01   -0.47479E+01  1368   0.967E+00    0.108E+00
DAV:   2    -0.136933046940E+04   -0.23465E+00   -0.24647E+00  2296   0.369E+00    0.564E-01
DAV:   3    -0.136934360573E+04   -0.13136E-01   -0.19253E-01  2592   0.719E-01    0.448E-01
DAV:   4    -0.136934026636E+04    0.33394E-02   -0.17473E-02  2600   0.307E-01    0.313E-01
DAV:   5    -0.136933713409E+04    0.31323E-02   -0.92684E-03  2328   0.196E-01    0.122E-01
DAV:   6    -0.136933729407E+04   -0.15998E-03   -0.63558E-03  2424   0.143E-01    0.913E-02
DAV:   7    -0.136933730404E+04   -0.99692E-05   -0.21731E-03  2432   0.883E-02    0.674E-02
DAV:   8    -0.136933728768E+04    0.16353E-04   -0.77578E-04  2616   0.534E-02    0.383E-02
DAV:   9    -0.136933727910E+04    0.85885E-05   -0.18570E-04  2448   0.282E-02    0.260E-02
DAV:  10    -0.136933728047E+04   -0.13763E-05   -0.87996E-05  2472   0.175E-02    0.142E-02
DAV:  11    -0.136933728052E+04   -0.50160E-07   -0.25404E-05  2320   0.117E-02    0.744E-03
DAV:  12    -0.136933728116E+04   -0.63420E-06   -0.15575E-05  1984   0.794E-03    0.749E-03
DAV:  13    -0.136933728033E+04    0.83000E-06   -0.34720E-06  1136   0.566E-03
  19 F= -.13693373E+04 E0= -.13693373E+04  d E =-.330628E+00
 BRION: g(F)=  0.105E+00 g(S)=  0.000E+00 retain N=  3 mean eig= 5.81
 eig:   7.662  7.662  2.115
 bond charge predicted
       N       E                     dE             d eps       ncg     rms          rms(c)
DAV:   1    -0.136928824564E+04    0.49036E-01   -0.78961E+01  1360   0.125E+01    0.140E+00
DAV:   2    -0.136968012190E+04   -0.39188E+00   -0.41196E+00  2296   0.477E+00    0.735E-01
DAV:   3    -0.136970167856E+04   -0.21557E-01   -0.31936E-01  2592   0.932E-01    0.578E-01
DAV:   4    -0.136969612176E+04    0.55568E-02   -0.29790E-02  2584   0.397E-01    0.400E-01
DAV:   5    -0.136969123363E+04    0.48881E-02   -0.14133E-02  2384   0.244E-01    0.164E-01
DAV:   6    -0.136969125738E+04   -0.23742E-04   -0.97215E-03  2376   0.181E-01    0.104E-01
DAV:   7    -0.136969136216E+04   -0.10478E-03   -0.38274E-03  2424   0.115E-01    0.859E-02
DAV:   8    -0.136969133290E+04    0.29264E-04   -0.11798E-03  2624   0.681E-02    0.508E-02
DAV:   9    -0.136969131968E+04    0.13211E-04   -0.36601E-04  2568   0.374E-02    0.317E-02
DAV:  10    -0.136969132459E+04   -0.49080E-05   -0.13224E-04  2592   0.222E-02    0.209E-02
DAV:  11    -0.136969132300E+04    0.15939E-05   -0.48867E-05  2464   0.150E-02    0.110E-02
DAV:  12    -0.136969132326E+04   -0.26348E-06   -0.30039E-05  2296   0.111E-02    0.964E-03
DAV:  13    -0.136969132262E+04    0.64504E-06   -0.11727E-05  1768   0.703E-03    0.550E-03
DAV:  14    -0.136969132251E+04    0.10982E-06   -0.67796E-06  1488   0.567E-03
  20 F= -.13696913E+04 E0= -.13696913E+04  d E =-.354042E+00
 BRION: g(F)=  0.810E-01 g(S)=  0.000E+00 retain N=  2 mean eig= 4.14
 eig:   4.143  4.143
