 running on  160 total cores
 distrk:  each k-point on  160 cores,    1 groups
 distr:  one band on   20 cores,    8 groups
 using from now: INCAR     
 vasp.5.4.4.18Apr17-6-g9f103f2a35 (build May 01 2020 14:22:42) gamma-only       
  
 POSCAR found type information on POSCAR  O  La Zr Li Al
 POSCAR found :  5 types and     190 ions
 scaLAPACK will be used
 LDA part: xc-table for Pade appr. of Perdew
 POSCAR, INCAR and KPOINTS ok, starting setup
 FFT: planning ...
 WAVECAR not read
 WARNING: random wavefunctions but no delay for mixing, default for NELMDL
 entering main loop
       N       E                     dE             d eps       ncg     rms          rms(c)
DAV:   1     0.253092793197E+05    0.25309E+05   -0.42293E+05  1576   0.253E+03
DAV:   2     0.943632249004E+04   -0.15873E+05   -0.14691E+05  1440   0.705E+02
DAV:   3     0.266847523353E+04   -0.67678E+04   -0.61595E+04  1504   0.356E+02
DAV:   4    -0.374614716227E+03   -0.30431E+04   -0.28485E+04  2040   0.226E+02
DAV:   5    -0.141366123568E+04   -0.10390E+04   -0.99664E+03  2544   0.139E+02    0.116E+02
DAV:   6    -0.130417207546E+04    0.10949E+03   -0.14720E+03  2432   0.660E+01    0.504E+01
DAV:   7    -0.132664029407E+04   -0.22468E+02   -0.39529E+02  2544   0.339E+01    0.255E+01
DAV:   8    -0.133519671745E+04   -0.85564E+01   -0.27722E+02  2512   0.280E+01    0.266E+01
DAV:   9    -0.132788730843E+04    0.73094E+01   -0.56160E+01  2480   0.152E+01    0.791E+00
DAV:  10    -0.132886443144E+04   -0.97712E+00   -0.16326E+01  2616   0.822E+00    0.759E+00
DAV:  11    -0.132912988778E+04   -0.26546E+00   -0.64764E+00  2624   0.440E+00    0.434E+00
DAV:  12    -0.132898920488E+04    0.14068E+00   -0.25325E+00  2560   0.360E+00    0.301E+00
DAV:  13    -0.132906002541E+04   -0.70821E-01   -0.89580E-01  2544   0.174E+00    0.216E+00
DAV:  14    -0.132904046006E+04    0.19565E-01   -0.28617E-01  2616   0.110E+00    0.123E+00
DAV:  15    -0.132904828096E+04   -0.78209E-02   -0.96998E-02  2600   0.580E-01    0.971E-01
DAV:  16    -0.132904772477E+04    0.55619E-03   -0.33913E-02  2616   0.352E-01    0.619E-01
DAV:  17    -0.132904692651E+04    0.79826E-03   -0.25195E-02  2464   0.299E-01    0.311E-01
DAV:  18    -0.132904722130E+04   -0.29479E-03   -0.50809E-03  2504   0.159E-01    0.144E-01
DAV:  19    -0.132904724744E+04   -0.26136E-04   -0.22519E-03  2608   0.966E-02    0.981E-02
DAV:  20    -0.132904729003E+04   -0.42590E-04   -0.54567E-04  2608   0.422E-02    0.402E-02
DAV:  21    -0.132904731638E+04   -0.26354E-04   -0.20739E-04  2616   0.256E-02    0.385E-02
DAV:  22    -0.132904733126E+04   -0.14879E-04   -0.59578E-05  2528   0.150E-02    0.168E-02
DAV:  23    -0.132904732662E+04    0.46408E-05   -0.46734E-05  2248   0.121E-02    0.945E-03
DAV:  24    -0.132904733138E+04   -0.47599E-05   -0.12601E-05  1520   0.812E-03    0.247E-03
DAV:  25    -0.132904733031E+04    0.10648E-05   -0.44497E-06  1032   0.569E-03    0.547E-03
DAV:  26    -0.132904733301E+04   -0.26944E-05   -0.29866E-06  1024   0.517E-03    0.189E-03
DAV:  27    -0.132904733364E+04   -0.63604E-06   -0.13613E-06   968   0.456E-03
   1 F= -.13290473E+04 E0= -.13290473E+04  d E =-.132905E+04
 BRION: g(F)=  0.556E+02 g(S)=  0.000E+00
 bond charge predicted
       N       E                     dE             d eps       ncg     rms          rms(c)
DAV:   1    -0.129688885819E+04    0.32158E+02   -0.67479E+03  1720   0.123E+02    0.288E+01
DAV:   2    -0.135098390217E+04   -0.54095E+02   -0.62388E+02  2576   0.576E+01    0.138E+01
DAV:   3    -0.134961729915E+04    0.13666E+01   -0.37648E+01  2616   0.154E+01    0.947E+00
DAV:   4    -0.134780942870E+04    0.18079E+01   -0.13245E+01  2408   0.747E+00    0.454E+00
DAV:   5    -0.134765014427E+04    0.15928E+00   -0.37017E+00  2536   0.426E+00    0.318E+00
DAV:   6    -0.134758244862E+04    0.67696E-01   -0.27373E+00  2592   0.295E+00    0.173E+00
DAV:   7    -0.134756681237E+04    0.15636E-01   -0.46348E-01  2528   0.166E+00    0.108E+00
DAV:   8    -0.134756729699E+04   -0.48463E-03   -0.33014E-01  2624   0.959E-01    0.632E-01
DAV:   9    -0.134756590951E+04    0.13875E-02   -0.41064E-02  2536   0.499E-01    0.412E-01
DAV:  10    -0.134756452190E+04    0.13876E-02   -0.29238E-02  2592   0.323E-01    0.167E-01
DAV:  11    -0.134756540060E+04   -0.87870E-03   -0.10287E-02  2552   0.201E-01    0.149E-01
DAV:  12    -0.134756537498E+04    0.25621E-04   -0.22659E-03  2608   0.951E-02    0.862E-02
DAV:  13    -0.134756531869E+04    0.56287E-04   -0.15901E-03  2456   0.760E-02    0.240E-02
DAV:  14    -0.134756534686E+04   -0.28169E-04   -0.34611E-04  2312   0.414E-02    0.191E-02
DAV:  15    -0.134756535393E+04   -0.70683E-05   -0.76191E-05  2600   0.168E-02    0.117E-02
DAV:  16    -0.134756535305E+04    0.88428E-06   -0.21083E-05  2312   0.102E-02    0.694E-03
DAV:  17    -0.134756535407E+04   -0.10237E-05   -0.15115E-05  2168   0.743E-03    0.289E-03
DAV:  18    -0.134756535420E+04   -0.12733E-06   -0.11575E-06  1016   0.377E-03
   2 F= -.13475654E+04 E0= -.13475654E+04  d E =-.185180E+02
 BRION: g(F)=  0.660E+02 g(S)=  0.000E+00 retain N=  1 mean eig= 0.47
 eig:   0.469
 bond charge predicted
       N       E                     dE             d eps       ncg     rms          rms(c)
DAV:   1    -0.133305952627E+04    0.14506E+02   -0.21328E+03  1336   0.614E+01    0.189E+01
DAV:   2    -0.135806357815E+04   -0.25004E+02   -0.31486E+02  2536   0.289E+01    0.169E+01
DAV:   3    -0.135582849853E+04    0.22351E+01   -0.23339E+01  2568   0.977E+00    0.129E+01
DAV:   4    -0.135446182590E+04    0.13667E+01   -0.28585E+01  2088   0.614E+00    0.653E+00
DAV:   5    -0.135474647105E+04   -0.28465E+00   -0.47488E+00  2320   0.344E+00    0.710E+00
DAV:   6    -0.135387726098E+04    0.86921E+00   -0.94633E+00  2304   0.332E+00    0.165E+00
DAV:   7    -0.135391545328E+04   -0.38192E-01   -0.11946E+00  2336   0.230E+00    0.140E+00
DAV:   8    -0.135390631916E+04    0.91341E-02   -0.44867E-01  2544   0.106E+00    0.586E-01
DAV:   9    -0.135390548523E+04    0.83393E-03   -0.70375E-02  2528   0.522E-01    0.346E-01
DAV:  10    -0.135390605821E+04   -0.57298E-03   -0.25332E-02  2576   0.296E-01    0.176E-01
DAV:  11    -0.135390622932E+04   -0.17110E-03   -0.69786E-03  2608   0.171E-01    0.176E-01
DAV:  12    -0.135390604832E+04    0.18100E-03   -0.29090E-03  2616   0.972E-02    0.120E-01
DAV:  13    -0.135390585357E+04    0.19475E-03   -0.22154E-03  2328   0.806E-02    0.278E-02
DAV:  14    -0.135390589616E+04   -0.42584E-04   -0.49196E-04  2240   0.452E-02    0.211E-02
DAV:  15    -0.135390590652E+04   -0.10365E-04   -0.76956E-05  2560   0.151E-02    0.232E-02
DAV:  16    -0.135390589854E+04    0.79789E-05   -0.44752E-05  2432   0.131E-02    0.113E-02
DAV:  17    -0.135390589974E+04   -0.12017E-05   -0.27540E-05  2392   0.954E-03    0.611E-03
DAV:  18    -0.135390589934E+04    0.40507E-06   -0.30380E-06  1264   0.524E-03
   3 F= -.13539059E+04 E0= -.13539059E+04  d E =-.634055E+01
 BRION: g(F)=  0.120E+02 g(S)=  0.000E+00 retain N=  2 mean eig= 1.02
 eig:   0.262  1.785
 bond charge predicted
       N       E                     dE             d eps       ncg     rms          rms(c)
DAV:   1    -0.135397431390E+04   -0.68414E-01   -0.54409E+02  1392   0.295E+01    0.651E+00
DAV:   2    -0.135738760060E+04   -0.34133E+01   -0.39470E+01  2376   0.134E+01    0.339E+00
DAV:   3    -0.135735032562E+04    0.37275E-01   -0.27326E+00  2560   0.396E+00    0.288E+00
DAV:   4    -0.135721739046E+04    0.13294E+00   -0.94958E-01  2344   0.169E+00    0.139E+00
DAV:   5    -0.135720488833E+04    0.12502E-01   -0.39061E-01  2392   0.119E+00    0.127E+00
DAV:   6    -0.135718298790E+04    0.21900E-01   -0.21422E-01  2528   0.947E-01    0.712E-01
DAV:   7    -0.135718347151E+04   -0.48361E-03   -0.12641E-01  2480   0.591E-01    0.514E-01
DAV:   8    -0.135718157688E+04    0.18946E-02   -0.21877E-02  2600   0.295E-01    0.282E-01
DAV:   9    -0.135718067568E+04    0.90120E-03   -0.87527E-03  2496   0.167E-01    0.136E-01
DAV:  10    -0.135718101758E+04   -0.34190E-03   -0.60635E-03  2400   0.125E-01    0.119E-01
DAV:  11    -0.135718082564E+04    0.19194E-03   -0.88015E-04  2512   0.707E-02    0.624E-02
DAV:  12    -0.135718083258E+04   -0.69310E-05   -0.10667E-03  2312   0.508E-02    0.327E-02
DAV:  13    -0.135718083207E+04    0.50633E-06   -0.17259E-04  2520   0.286E-02    0.174E-02
DAV:  14    -0.135718083301E+04   -0.94323E-06   -0.53340E-05  2536   0.121E-02    0.775E-03
DAV:  15    -0.135718083345E+04   -0.43619E-06   -0.77714E-06  1592   0.672E-03
   4 F= -.13571808E+04 E0= -.13571808E+04  d E =-.327493E+01
 BRION: g(F)=  0.511E+01 g(S)=  0.000E+00 retain N=  3 mean eig= 1.60
 eig:   4.030  0.388  0.388
 bond charge predicted
       N       E                     dE             d eps       ncg     rms          rms(c)
DAV:   1    -0.135860420296E+04   -0.14234E+01   -0.22103E+02  1368   0.205E+01    0.343E+00
DAV:   2    -0.135973831883E+04   -0.11341E+01   -0.12219E+01  2296   0.786E+00    0.184E+00
DAV:   3    -0.135975534910E+04   -0.17030E-01   -0.84485E-01  2616   0.166E+00    0.150E+00
DAV:   4    -0.135971584782E+04    0.39501E-01   -0.22802E-01  2504   0.943E-01    0.693E-01
DAV:   5    -0.135971273473E+04    0.31131E-02   -0.74056E-02  2424   0.564E-01    0.465E-01
DAV:   6    -0.135971232268E+04    0.41205E-03   -0.53134E-02  2552   0.405E-01    0.236E-01
DAV:   7    -0.135971230415E+04    0.18528E-04   -0.13133E-02  2320   0.216E-01    0.199E-01
DAV:   8    -0.135971214838E+04    0.15577E-03   -0.41132E-03  2432   0.110E-01    0.103E-01
DAV:   9    -0.135971211671E+04    0.31664E-04   -0.20658E-03  2512   0.765E-02    0.606E-02
DAV:  10    -0.135971212770E+04   -0.10990E-04   -0.53807E-04  2328   0.491E-02    0.516E-02
DAV:  11    -0.135971211263E+04    0.15072E-04   -0.37907E-04  2392   0.329E-02    0.232E-02
DAV:  12    -0.135971211323E+04   -0.59695E-06   -0.15401E-04  2360   0.226E-02    0.139E-02
DAV:  13    -0.135971211341E+04   -0.17692E-06   -0.29088E-05  2392   0.119E-02    0.868E-03
DAV:  14    -0.135971211376E+04   -0.35802E-06   -0.15970E-05  1808   0.695E-03    0.445E-03
DAV:  15    -0.135971211358E+04    0.18123E-06   -0.22925E-06  1032   0.528E-03
   5 F= -.13597121E+04 E0= -.13597121E+04  d E =-.253128E+01
 BRION: g(F)=  0.230E+01 g(S)=  0.000E+00 retain N=  4 mean eig= 1.30
 eig:   3.811  0.349  0.528  0.528
 bond charge predicted
       N       E                     dE             d eps       ncg     rms          rms(c)
DAV:   1    -0.136050895710E+04   -0.79684E+00   -0.18265E+02  1352   0.181E+01    0.260E+00
DAV:   2    -0.136136211200E+04   -0.85315E+00   -0.90081E+00  2288   0.674E+00    0.139E+00
DAV:   3    -0.136137708242E+04   -0.14970E-01   -0.56450E-01  2624   0.132E+00    0.114E+00
DAV:   4    -0.136134897993E+04    0.28102E-01   -0.13073E-01  2472   0.726E-01    0.560E-01
DAV:   5    -0.136134501410E+04    0.39658E-02   -0.50409E-02  2488   0.441E-01    0.346E-01
DAV:   6    -0.136134474069E+04    0.27340E-03   -0.27873E-02  2568   0.297E-01    0.163E-01
DAV:   7    -0.136134469810E+04    0.42589E-04   -0.69120E-03  2320   0.163E-01    0.131E-01
DAV:   8    -0.136134471515E+04   -0.17050E-04   -0.25271E-03  2320   0.830E-02    0.747E-02
DAV:   9    -0.136134467115E+04    0.44001E-04   -0.91598E-04  2624   0.549E-02    0.431E-02
DAV:  10    -0.136134468523E+04   -0.14084E-04   -0.40657E-04  2544   0.379E-02    0.390E-02
DAV:  11    -0.136134466964E+04    0.15592E-04   -0.17957E-04  2528   0.256E-02    0.139E-02
DAV:  12    -0.136134467324E+04   -0.36012E-05   -0.64863E-05  2424   0.149E-02    0.896E-03
DAV:  13    -0.136134467314E+04    0.10333E-06   -0.10077E-05  1816   0.733E-03    0.579E-03
DAV:  14    -0.136134467341E+04   -0.27487E-06   -0.92718E-06  1608   0.582E-03
   6 F= -.13613447E+04 E0= -.13613447E+04  d E =-.163256E+01
 BRION: g(F)=  0.151E+01 g(S)=  0.000E+00 retain N=  5 mean eig= 1.54
 eig:   2.855  2.855  0.693  0.693  0.613
 bond charge predicted
       N       E                     dE             d eps       ncg     rms          rms(c)
DAV:   1    -0.136153590657E+04   -0.19123E+00   -0.28346E+02  1352   0.230E+01    0.318E+00
DAV:   2    -0.136295859253E+04   -0.14227E+01   -0.14884E+01  2312   0.868E+00    0.172E+00
DAV:   3    -0.136299202029E+04   -0.33428E-01   -0.92457E-01  2608   0.175E+00    0.138E+00
DAV:   4    -0.136295575420E+04    0.36266E-01   -0.20109E-01  2504   0.888E-01    0.704E-01
DAV:   5    -0.136295003887E+04    0.57153E-02   -0.70159E-02  2480   0.505E-01    0.400E-01
DAV:   6    -0.136294980676E+04    0.23210E-03   -0.27306E-02  2568   0.301E-01    0.193E-01
DAV:   7    -0.136294975837E+04    0.48395E-04   -0.89724E-03  2504   0.190E-01    0.126E-01
DAV:   8    -0.136294990807E+04   -0.14970E-03   -0.31377E-03  2592   0.956E-02    0.880E-02
DAV:   9    -0.136294982196E+04    0.86107E-04   -0.82128E-04  2624   0.591E-02    0.439E-02
DAV:  10    -0.136294985545E+04   -0.33486E-04   -0.57298E-04  2560   0.402E-02    0.362E-02
DAV:  11    -0.136294983993E+04    0.15514E-04   -0.21255E-04  2536   0.290E-02    0.116E-02
DAV:  12    -0.136294984407E+04   -0.41343E-05   -0.56705E-05  2240   0.156E-02    0.833E-03
DAV:  13    -0.136294984466E+04   -0.59459E-06   -0.14130E-05  1840   0.715E-03    0.557E-03
DAV:  14    -0.136294984456E+04    0.99448E-07   -0.26087E-06  1072   0.532E-03
   7 F= -.13629498E+04 E0= -.13629498E+04  d E =-.160517E+01
 BRION: g(F)=  0.933E+00 g(S)=  0.000E+00 retain N=  6 mean eig= 1.67
 eig:   4.008  2.160  2.160  0.466  0.605  0.605
 bond charge predicted
       N       E                     dE             d eps       ncg     rms          rms(c)
DAV:   1    -0.136334250824E+04   -0.39266E+00   -0.56239E+01  1360   0.104E+01    0.157E+00
DAV:   2    -0.136362060443E+04   -0.27810E+00   -0.29879E+00  2288   0.401E+00    0.764E-01
DAV:   3    -0.136363312194E+04   -0.12518E-01   -0.23072E-01  2624   0.840E-01    0.616E-01
DAV:   4    -0.136362738150E+04    0.57404E-02   -0.30705E-02  2600   0.388E-01    0.366E-01
DAV:   5    -0.136362554971E+04    0.18318E-02   -0.18683E-02  2272   0.250E-01    0.177E-01
DAV:   6    -0.136362576454E+04   -0.21483E-03   -0.67081E-03  2536   0.160E-01    0.147E-01
DAV:   7    -0.136362566796E+04    0.96577E-04   -0.34803E-03  2544   0.101E-01    0.855E-02
DAV:   8    -0.136362561459E+04    0.53367E-04   -0.77826E-04  2576   0.560E-02    0.490E-02
DAV:   9    -0.136362560830E+04    0.62982E-05   -0.21204E-04  2552   0.300E-02    0.273E-02
DAV:  10    -0.136362561847E+04   -0.10172E-04   -0.14030E-04  2488   0.202E-02    0.217E-02
DAV:  11    -0.136362561173E+04    0.67410E-05   -0.35390E-05  2368   0.132E-02    0.987E-03
DAV:  12    -0.136362561312E+04   -0.13907E-05   -0.29794E-05  2136   0.870E-03    0.683E-03
DAV:  13    -0.136362561231E+04    0.81048E-06   -0.22236E-06  1064   0.542E-03
   8 F= -.13636256E+04 E0= -.13636256E+04  d E =-.675768E+00
 BRION: g(F)=  0.495E+00 g(S)=  0.000E+00 retain N=  7 mean eig= 2.13
 eig:   5.632  3.630  3.630  0.408  0.553  0.553  0.531
 bond charge predicted
       N       E                     dE             d eps       ncg     rms          rms(c)
DAV:   1    -0.136400413539E+04   -0.37852E+00   -0.86246E+01  1376   0.132E+01    0.165E+00
DAV:   2    -0.136444128199E+04   -0.43715E+00   -0.46066E+00  2288   0.517E+00    0.815E-01
DAV:   3    -0.136446487529E+04   -0.23593E-01   -0.35363E-01  2624   0.100E+00    0.653E-01
DAV:   4    -0.136445781569E+04    0.70596E-02   -0.40453E-02  2592   0.468E-01    0.407E-01
DAV:   5    -0.136445452900E+04    0.32867E-02   -0.17654E-02  2440   0.270E-01    0.167E-01
DAV:   6    -0.136445512348E+04   -0.59449E-03   -0.95604E-03  2512   0.188E-01    0.128E-01
DAV:   7    -0.136445506223E+04    0.61257E-04   -0.38732E-03  2384   0.121E-01    0.908E-02
DAV:   8    -0.136445507721E+04   -0.14983E-04   -0.15986E-03  2496   0.716E-02    0.527E-02
DAV:   9    -0.136445506181E+04    0.15405E-04   -0.29678E-04  2472   0.374E-02    0.401E-02
DAV:  10    -0.136445506079E+04    0.10193E-05   -0.27192E-04  2400   0.284E-02    0.256E-02
DAV:  11    -0.136445505790E+04    0.28832E-05   -0.92487E-05  2440   0.206E-02    0.112E-02
DAV:  12    -0.136445506043E+04   -0.25287E-05   -0.39937E-05  2336   0.127E-02    0.118E-02
DAV:  13    -0.136445505873E+04    0.17044E-05   -0.16155E-05  1872   0.822E-03    0.529E-03
DAV:  14    -0.136445505902E+04   -0.29549E-06   -0.89817E-06  1728   0.617E-03
   9 F= -.13644551E+04 E0= -.13644551E+04  d E =-.829447E+00
 BRION: g(F)=  0.398E+00 g(S)=  0.000E+00 retain N=  8 mean eig= 2.22
 eig:   5.408  4.253  4.253  0.594  0.663  0.663  1.200  0.759
 bond charge predicted
       N       E                     dE             d eps       ncg     rms          rms(c)
DAV:   1    -0.136475853582E+04   -0.30348E+00   -0.90495E+01  1376   0.137E+01    0.172E+00
DAV:   2    -0.136524394233E+04   -0.48541E+00   -0.51866E+00  2296   0.554E+00    0.858E-01
DAV:   3    -0.136527244617E+04   -0.28504E-01   -0.41484E-01  2608   0.108E+00    0.695E-01
DAV:   4    -0.136526593044E+04    0.65157E-02   -0.44231E-02  2608   0.506E-01    0.463E-01
DAV:   5    -0.136526191711E+04    0.40133E-02   -0.22079E-02  2352   0.280E-01    0.184E-01
DAV:   6    -0.136526245401E+04   -0.53691E-03   -0.10389E-02  2480   0.192E-01    0.140E-01
DAV:   7    -0.136526246788E+04   -0.13862E-04   -0.52353E-03  2472   0.134E-01    0.947E-02
DAV:   8    -0.136526247938E+04   -0.11506E-04   -0.17509E-03  2616   0.820E-02    0.608E-02
DAV:   9    -0.136526246143E+04    0.17950E-04   -0.35410E-04  2560   0.408E-02    0.441E-02
DAV:  10    -0.136526246519E+04   -0.37562E-05   -0.22803E-04  2568   0.264E-02    0.247E-02
DAV:  11    -0.136526246546E+04   -0.26778E-06   -0.94885E-05  2512   0.196E-02    0.119E-02
DAV:  12    -0.136526246544E+04    0.17870E-07   -0.28570E-05  2352   0.130E-02    0.909E-03
DAV:  13    -0.136526246558E+04   -0.14206E-06   -0.18977E-05  2088   0.754E-03    0.556E-03
DAV:  14    -0.136526246522E+04    0.36185E-06   -0.20214E-06  1024   0.483E-03
  10 F= -.13652625E+04 E0= -.13652625E+04  d E =-.807406E+00
 BRION: g(F)=  0.295E+00 g(S)=  0.000E+00 retain N=  9 mean eig= 2.72
 eig:   7.345  5.093  5.093  2.123  2.123  0.660  0.849  0.605  0.605
 bond charge predicted
       N       E                     dE             d eps       ncg     rms          rms(c)
DAV:   1    -0.136552056753E+04   -0.25810E+00   -0.89360E+01  1392   0.135E+01    0.164E+00
DAV:   2    -0.136600160525E+04   -0.48104E+00   -0.51051E+00  2296   0.550E+00    0.834E-01
DAV:   3    -0.136602796626E+04   -0.26361E-01   -0.39725E-01  2600   0.105E+00    0.664E-01
DAV:   4    -0.136602052777E+04    0.74385E-02   -0.42070E-02  2592   0.491E-01    0.439E-01
DAV:   5    -0.136601600155E+04    0.45262E-02   -0.18816E-02  2400   0.276E-01    0.171E-01
DAV:   6    -0.136601641035E+04   -0.40880E-03   -0.10602E-02  2440   0.192E-01    0.115E-01
DAV:   7    -0.136601650916E+04   -0.98810E-04   -0.41453E-03  2448   0.123E-01    0.883E-02
DAV:   8    -0.136601650238E+04    0.67807E-05   -0.13120E-03  2624   0.708E-02    0.501E-02
DAV:   9    -0.136601649546E+04    0.69194E-05   -0.34312E-04  2592   0.390E-02    0.351E-02
DAV:  10    -0.136601650229E+04   -0.68305E-05   -0.16553E-04  2624   0.251E-02    0.235E-02
DAV:  11    -0.136601649986E+04    0.24277E-05   -0.78648E-05  2440   0.180E-02    0.996E-03
DAV:  12    -0.136601650116E+04   -0.12928E-05   -0.26971E-05  2336   0.117E-02    0.946E-03
DAV:  13    -0.136601650048E+04    0.67278E-06   -0.12010E-05  1760   0.671E-03    0.495E-03
DAV:  14    -0.136601650056E+04   -0.75219E-07   -0.59162E-06  1456   0.577E-03
  11 F= -.13660165E+04 E0= -.13660165E+04  d E =-.754035E+00
 BRION: g(F)=  0.239E+00 g(S)=  0.000E+00 retain N= 10 mean eig= 3.46
 eig:   7.426  7.696  7.696  3.817  3.817  0.735  1.077  1.077  0.647  0.647
 bond charge predicted
       N       E                     dE             d eps       ncg     rms          rms(c)
DAV:   1    -0.136625167889E+04   -0.23518E+00   -0.63730E+01  1392   0.114E+01    0.137E+00
DAV:   2    -0.136659738271E+04   -0.34570E+00   -0.36665E+00  2312   0.467E+00    0.695E-01
DAV:   3    -0.136661535865E+04   -0.17976E-01   -0.27605E-01  2592   0.887E-01    0.559E-01
DAV:   4    -0.136661015661E+04    0.52020E-02   -0.28663E-02  2584   0.404E-01    0.382E-01
DAV:   5    -0.136660610943E+04    0.40472E-02   -0.14829E-02  2336   0.243E-01    0.146E-01
DAV:   6    -0.136660650356E+04   -0.39414E-03   -0.89377E-03  2440   0.171E-01    0.114E-01
DAV:   7    -0.136660649109E+04    0.12470E-04   -0.32822E-03  2440   0.108E-01    0.825E-02
DAV:   8    -0.136660648306E+04    0.80315E-05   -0.12873E-03  2608   0.682E-02    0.469E-02
DAV:   9    -0.136660647164E+04    0.11426E-04   -0.27041E-04  2488   0.353E-02    0.335E-02
DAV:  10    -0.136660647474E+04   -0.31016E-05   -0.13020E-04  2520   0.216E-02    0.198E-02
DAV:  11    -0.136660647429E+04    0.44597E-06   -0.50853E-05  2440   0.152E-02    0.993E-03
DAV:  12    -0.136660647508E+04   -0.78429E-06   -0.22935E-05  2304   0.105E-02    0.902E-03
DAV:  13    -0.136660647452E+04    0.56232E-06   -0.11361E-05  1760   0.654E-03    0.485E-03
DAV:  14    -0.136660647449E+04    0.22061E-07   -0.44238E-06  1344   0.523E-03
  12 F= -.13666065E+04 E0= -.13666065E+04  d E =-.589974E+00
 BRION: g(F)=  0.194E+00 g(S)=  0.000E+00 retain N=  8 mean eig= 3.45
 eig:   7.864  7.864  3.194  3.194  1.765  1.765  0.994  0.994
 bond charge predicted
       N       E                     dE             d eps       ncg     rms          rms(c)
DAV:   1    -0.136677223381E+04   -0.16576E+00   -0.78173E+01  1392   0.126E+01    0.148E+00
DAV:   2    -0.136719106527E+04   -0.41883E+00   -0.44401E+00  2296   0.514E+00    0.759E-01
DAV:   3    -0.136721401181E+04   -0.22947E-01   -0.34392E-01  2568   0.972E-01    0.609E-01
DAV:   4    -0.136720825558E+04    0.57562E-02   -0.34071E-02  2576   0.438E-01    0.432E-01
DAV:   5    -0.136720268182E+04    0.55738E-02   -0.17462E-02  2328   0.269E-01    0.174E-01
DAV:   6    -0.136720293393E+04   -0.25211E-03   -0.12366E-02  2384   0.205E-01    0.127E-01
DAV:   7    -0.136720299094E+04   -0.57005E-04   -0.50034E-03  2408   0.131E-01    0.995E-02
DAV:   8    -0.136720295665E+04    0.34287E-04   -0.15889E-03  2608   0.787E-02    0.557E-02
DAV:   9    -0.136720293431E+04    0.22343E-04   -0.45515E-04  2504   0.427E-02    0.353E-02
DAV:  10    -0.136720294434E+04   -0.10031E-04   -0.17552E-04  2536   0.254E-02    0.240E-02
DAV:  11    -0.136720294257E+04    0.17661E-05   -0.77911E-05  2464   0.186E-02    0.129E-02
DAV:  12    -0.136720294338E+04   -0.80431E-06   -0.39316E-05  2328   0.134E-02    0.127E-02
DAV:  13    -0.136720294199E+04    0.13885E-05   -0.20177E-05  1992   0.831E-03    0.682E-03
DAV:  14    -0.136720294191E+04    0.84314E-07   -0.90016E-06  1744   0.602E-03
  13 F= -.13672029E+04 E0= -.13672029E+04  d E =-.596467E+00
 BRION: g(F)=  0.159E+00 g(S)=  0.000E+00 retain N=  5 mean eig= 4.81
 eig:   7.023  7.023  2.239  3.888  3.888
 bond charge predicted
       N       E                     dE             d eps       ncg     rms          rms(c)
DAV:   1    -0.136737136756E+04   -0.16843E+00   -0.27966E+01  1400   0.754E+00    0.860E-01
DAV:   2    -0.136751442618E+04   -0.14306E+00   -0.15086E+00  2288   0.297E+00    0.441E-01
DAV:   3    -0.136752283991E+04   -0.84137E-02   -0.11988E-01  2592   0.576E-01    0.360E-01
DAV:   4    -0.136752111004E+04    0.17299E-02   -0.10608E-02  2608   0.248E-01    0.264E-01
DAV:   5    -0.136751896060E+04    0.21494E-02   -0.63120E-03  2280   0.166E-01    0.107E-01
DAV:   6    -0.136751908763E+04   -0.12704E-03   -0.50594E-03  2344   0.133E-01    0.878E-02
DAV:   7    -0.136751908524E+04    0.23962E-05   -0.19344E-03  2408   0.815E-02    0.677E-02
DAV:   8    -0.136751906100E+04    0.24242E-04   -0.65668E-04  2592   0.497E-02    0.349E-02
DAV:   9    -0.136751904778E+04    0.13216E-04   -0.18185E-04  2240   0.274E-02    0.213E-02
DAV:  10    -0.136751905188E+04   -0.41019E-05   -0.67990E-05  2280   0.154E-02    0.149E-02
DAV:  11    -0.136751905041E+04    0.14759E-05   -0.22296E-05  2184   0.104E-02    0.782E-03
DAV:  12    -0.136751905094E+04   -0.52995E-06   -0.14810E-05  1936   0.783E-03    0.760E-03
DAV:  13    -0.136751905011E+04    0.82947E-06   -0.28064E-06  1056   0.534E-03
  14 F= -.13675191E+04 E0= -.13675191E+04  d E =-.316108E+00
 BRION: g(F)=  0.144E+00 g(S)=  0.000E+00 retain N=  2 mean eig= 4.23
 eig:   4.226  4.226
 bond charge predicted
       N       E                     dE             d eps       ncg     rms          rms(c)
DAV:   1    -0.136764702017E+04   -0.12797E+00   -0.63750E+01  1392   0.114E+01    0.131E+00
DAV:   2    -0.136798176018E+04   -0.33474E+00   -0.35456E+00  2296   0.455E+00    0.672E-01
DAV:   3    -0.136800089987E+04   -0.19140E-01   -0.27919E-01  2576   0.870E-01    0.541E-01
DAV:   4    -0.136799668970E+04    0.42102E-02   -0.26075E-02  2600   0.387E-01    0.390E-01
DAV:   5    -0.136799205038E+04    0.46393E-02   -0.12929E-02  2320   0.239E-01    0.166E-01
DAV:   6    -0.136799205395E+04   -0.35690E-05   -0.10356E-02  2336   0.191E-01    0.112E-01
DAV:   7    -0.136799216175E+04   -0.10780E-03   -0.45807E-03  2424   0.123E-01    0.957E-02
DAV:   8    -0.136799211943E+04    0.42313E-04   -0.12799E-03  2608   0.727E-02    0.551E-02
DAV:   9    -0.136799209165E+04    0.27779E-04   -0.49146E-04  2552   0.423E-02    0.308E-02
DAV:  10    -0.136799210355E+04   -0.11891E-04   -0.15569E-04  2576   0.249E-02    0.244E-02
DAV:  11    -0.136799209991E+04    0.36336E-05   -0.68545E-05  2432   0.172E-02    0.132E-02
DAV:  12    -0.136799210023E+04   -0.31920E-06   -0.38274E-05  2312   0.130E-02    0.121E-02
DAV:  13    -0.136799209913E+04    0.11049E-05   -0.18132E-05  1936   0.798E-03    0.687E-03
DAV:  14    -0.136799209888E+04    0.24155E-06   -0.75339E-06  1696   0.579E-03
  15 F= -.13679921E+04 E0= -.13679921E+04  d E =-.473049E+00
 BRION: g(F)=  0.122E+00 g(S)=  0.000E+00 retain N=  2 mean eig= 4.94
 eig:   4.939  4.939
 bond charge predicted
       N       E                     dE             d eps       ncg     rms          rms(c)
DAV:   1    -0.136806410128E+04   -0.72002E-01   -0.66724E+01  1384   0.116E+01    0.132E+00
DAV:   2    -0.136840600029E+04   -0.34190E+00   -0.36154E+00  2312   0.457E+00    0.679E-01
DAV:   3    -0.136842566708E+04   -0.19667E-01   -0.28357E-01  2592   0.873E-01    0.545E-01
DAV:   4    -0.136842157414E+04    0.40929E-02   -0.25298E-02  2600   0.380E-01    0.399E-01
DAV:   5    -0.136841664365E+04    0.49305E-02   -0.13212E-02  2352   0.244E-01    0.170E-01
DAV:   6    -0.136841666980E+04   -0.26153E-04   -0.11184E-02  2336   0.198E-01    0.118E-01
DAV:   7    -0.136841675448E+04   -0.84673E-04   -0.44497E-03  2456   0.125E-01    0.985E-02
DAV:   8    -0.136841671089E+04    0.43587E-04   -0.13498E-03  2600   0.728E-02    0.547E-02
DAV:   9    -0.136841667859E+04    0.32296E-04   -0.47922E-04  2448   0.424E-02    0.305E-02
DAV:  10    -0.136841669056E+04   -0.11966E-04   -0.15984E-04  2504   0.247E-02    0.241E-02
DAV:  11    -0.136841668634E+04    0.42187E-05   -0.64682E-05  2448   0.168E-02    0.125E-02
DAV:  12    -0.136841668706E+04   -0.72083E-06   -0.34120E-05  2296   0.121E-02    0.117E-02
DAV:  13    -0.136841668585E+04    0.12147E-05   -0.15874E-05  1808   0.755E-03    0.629E-03
DAV:  14    -0.136841668571E+04    0.13322E-06   -0.65259E-06  1600   0.557E-03
  16 F= -.13684167E+04 E0= -.13684167E+04  d E =-.424587E+00
 BRION: g(F)=  0.100E+00 g(S)=  0.000E+00 retain N=  2 mean eig= 7.98
 eig:   7.983  7.983
 bond charge predicted
       N       E                     dE             d eps       ncg     rms          rms(c)
DAV:   1    -0.136852220138E+04   -0.10552E+00   -0.29337E+01  1392   0.770E+00    0.877E-01
DAV:   2    -0.136867161317E+04   -0.14941E+00   -0.15813E+00  2304   0.304E+00    0.450E-01
DAV:   3    -0.136868027096E+04   -0.86578E-02   -0.12439E-01  2584   0.578E-01    0.363E-01
DAV:   4    -0.136867846298E+04    0.18080E-02   -0.11316E-02  2600   0.254E-01    0.263E-01
DAV:   5    -0.136867632132E+04    0.21417E-02   -0.60277E-03  2336   0.167E-01    0.110E-01
DAV:   6    -0.136867637600E+04   -0.54679E-04   -0.49331E-03  2328   0.133E-01    0.829E-02
DAV:   7    -0.136867639967E+04   -0.23667E-04   -0.18887E-03  2448   0.820E-02    0.677E-02
DAV:   8    -0.136867637816E+04    0.21509E-04   -0.65121E-04  2584   0.490E-02    0.360E-02
DAV:   9    -0.136867636410E+04    0.14061E-04   -0.20110E-04  2376   0.280E-02    0.208E-02
DAV:  10    -0.136867636907E+04   -0.49653E-05   -0.72036E-05  2400   0.163E-02    0.162E-02
DAV:  11    -0.136867636690E+04    0.21603E-05   -0.26870E-05  2192   0.111E-02    0.853E-03
DAV:  12    -0.136867636710E+04   -0.19818E-06   -0.14068E-05  1856   0.831E-03    0.760E-03
DAV:  13    -0.136867636658E+04    0.52497E-06   -0.71186E-06  1600   0.578E-03
  17 F= -.13686764E+04 E0= -.13686764E+04  d E =-.259681E+00
 BRION: g(F)=  0.904E-01 g(S)=  0.000E+00 retain N=  2 mean eig= 5.90
 eig:   5.899  5.899
 bond charge predicted
       N       E                     dE             d eps       ncg     rms          rms(c)
DAV:   1    -0.136874113664E+04   -0.64770E-01   -0.36897E+01  1384   0.860E+00    0.982E-01
DAV:   2    -0.136892850030E+04   -0.18736E+00   -0.19827E+00  2296   0.340E+00    0.508E-01
DAV:   3    -0.136893907937E+04   -0.10579E-01   -0.15529E-01  2592   0.650E-01    0.407E-01
DAV:   4    -0.136893663453E+04    0.24448E-02   -0.14107E-02  2592   0.282E-01    0.291E-01
DAV:   5    -0.136893400791E+04    0.26266E-02   -0.72103E-03  2328   0.184E-01    0.122E-01
DAV:   6    -0.136893405361E+04   -0.45701E-04   -0.60318E-03  2344   0.147E-01    0.874E-02
DAV:   7    -0.136893409544E+04   -0.41833E-04   -0.22355E-03  2440   0.898E-02    0.730E-02
DAV:   8    -0.136893407490E+04    0.20539E-04   -0.75181E-04  2600   0.520E-02    0.394E-02
DAV:   9    -0.136893405678E+04    0.18124E-04   -0.24962E-04  2440   0.314E-02    0.224E-02
DAV:  10    -0.136893406299E+04   -0.62120E-05   -0.87107E-05  2448   0.183E-02    0.182E-02
DAV:  11    -0.136893406004E+04    0.29523E-05   -0.35262E-05  2336   0.125E-02    0.871E-03
DAV:  12    -0.136893406056E+04   -0.51734E-06   -0.16466E-05  1944   0.885E-03    0.799E-03
DAV:  13    -0.136893405994E+04    0.61383E-06   -0.84150E-06  1608   0.614E-03
  18 F= -.13689341E+04 E0= -.13689341E+04  d E =-.257693E+00
 BRION: g(F)=  0.788E-01 g(S)=  0.000E+00 retain N=  2 mean eig= 4.45
 eig:   4.451  4.451
 bond charge predicted
       N       E                     dE             d eps       ncg     rms          rms(c)
DAV:   1    -0.136900549797E+04   -0.71437E-01   -0.21768E+01  1376   0.662E+00    0.740E-01
DAV:   2    -0.136911515766E+04   -0.10966E+00   -0.11572E+00  2304   0.261E+00    0.380E-01
DAV:   3    -0.136912157977E+04   -0.64221E-02   -0.90362E-02  2576   0.488E-01    0.305E-01
DAV:   4    -0.136912038365E+04    0.11961E-02   -0.80344E-03  2624   0.210E-01    0.223E-01
DAV:   5    -0.136911890001E+04    0.14836E-02   -0.40934E-03  2336   0.138E-01    0.967E-02
DAV:   6    -0.136911891051E+04   -0.10499E-04   -0.34964E-03  2344   0.112E-01    0.694E-02
DAV:   7    -0.136911893006E+04   -0.19553E-04   -0.14527E-03  2472   0.714E-02    0.578E-02
DAV:   8    -0.136911891576E+04    0.14297E-04   -0.45488E-04  2536   0.421E-02    0.331E-02
DAV:   9    -0.136911890315E+04    0.12611E-04   -0.15231E-04  2344   0.238E-02    0.182E-02
DAV:  10    -0.136911890758E+04   -0.44218E-05   -0.65944E-05  2392   0.149E-02    0.134E-02
DAV:  11    -0.136911890663E+04    0.94534E-06   -0.19193E-05  1976   0.985E-03    0.842E-03
DAV:  12    -0.136911890641E+04    0.22010E-06   -0.12750E-05  1736   0.786E-03    0.755E-03
DAV:  13    -0.136911890580E+04    0.61112E-06   -0.61529E-06  1512   0.569E-03
  19 F= -.13691189E+04 E0= -.13691189E+04  d E =-.184846E+00
 BRION: g(F)=  0.682E-01 g(S)=  0.000E+00 retain N=  2 mean eig= 4.22
 eig:   4.217  4.217
 bond charge predicted
       N       E                     dE             d eps       ncg     rms          rms(c)
DAV:   1    -0.136918540106E+04   -0.66495E-01   -0.13777E+01  1384   0.526E+00    0.583E-01
DAV:   2    -0.136925422318E+04   -0.68822E-01   -0.72292E-01  2296   0.207E+00    0.298E-01
DAV:   3    -0.136925824600E+04   -0.40228E-02   -0.56114E-02  2576   0.386E-01    0.238E-01
DAV:   4    -0.136925747518E+04    0.77082E-03   -0.49530E-03  2600   0.165E-01    0.173E-01
DAV:   5    -0.136925657056E+04    0.90462E-03   -0.25912E-03  2304   0.110E-01    0.721E-02
DAV:   6    -0.136925661091E+04   -0.40355E-04   -0.22093E-03  2328   0.899E-02    0.554E-02
DAV:   7    -0.136925662322E+04   -0.12310E-04   -0.86955E-04  2440   0.552E-02    0.458E-02
DAV:   8    -0.136925661450E+04    0.87261E-05   -0.27540E-04  2512   0.321E-02    0.245E-02
DAV:   9    -0.136925660512E+04    0.93710E-05   -0.93752E-05  2264   0.192E-02    0.138E-02
DAV:  10    -0.136925660765E+04   -0.25225E-05   -0.36230E-05  2248   0.115E-02    0.110E-02
DAV:  11    -0.136925660616E+04    0.14897E-05   -0.90240E-06  1496   0.778E-03    0.528E-03
DAV:  12    -0.136925660662E+04   -0.46800E-06   -0.93964E-06  1608   0.685E-03
  20 F= -.13692566E+04 E0= -.13692566E+04  d E =-.137701E+00
 BRION: g(F)=  0.631E-01 g(S)=  0.000E+00 retain N=  3 mean eig= 5.17
 eig:   6.839  6.839  1.838
