 running on  160 total cores
 distrk:  each k-point on  160 cores,    1 groups
 distr:  one band on   20 cores,    8 groups
 using from now: INCAR     
 vasp.5.4.4.18Apr17-6-g9f103f2a35 (build May 01 2020 14:22:42) gamma-only       
  
 POSCAR found type information on POSCAR  O  La Zr Li Al
 POSCAR found :  5 types and     190 ions
 scaLAPACK will be used
 LDA part: xc-table for Pade appr. of Perdew
 POSCAR, INCAR and KPOINTS ok, starting setup
 FFT: planning ...
 WAVECAR not read
 WARNING: random wavefunctions but no delay for mixing, default for NELMDL
 entering main loop
       N       E                     dE             d eps       ncg     rms          rms(c)
DAV:   1     0.252231837269E+05    0.25223E+05   -0.42097E+05  1592   0.253E+03
DAV:   2     0.937738512323E+04   -0.15846E+05   -0.14644E+05  1448   0.706E+02
DAV:   3     0.267578904789E+04   -0.67016E+04   -0.61014E+04  1480   0.356E+02
DAV:   4    -0.396150278831E+03   -0.30719E+04   -0.28648E+04  2064   0.223E+02
DAV:   5    -0.143043093624E+04   -0.10343E+04   -0.10045E+04  2528   0.141E+02    0.117E+02
DAV:   6    -0.130368039480E+04    0.12675E+03   -0.13876E+03  2440   0.653E+01    0.503E+01
DAV:   7    -0.132599710003E+04   -0.22317E+02   -0.36391E+02  2576   0.331E+01    0.242E+01
DAV:   8    -0.133469484668E+04   -0.86977E+01   -0.24028E+02  2528   0.251E+01    0.254E+01
DAV:   9    -0.132833736918E+04    0.63575E+01   -0.48417E+01  2520   0.142E+01    0.860E+00
DAV:  10    -0.132894241116E+04   -0.60504E+00   -0.17764E+01  2608   0.769E+00    0.703E+00
DAV:  11    -0.132931714030E+04   -0.37473E+00   -0.50716E+00  2616   0.408E+00    0.436E+00
DAV:  12    -0.132915071815E+04    0.16642E+00   -0.22280E+00  2560   0.331E+00    0.321E+00
DAV:  13    -0.132919120612E+04   -0.40488E-01   -0.85417E-01  2584   0.176E+00    0.210E+00
DAV:  14    -0.132918134385E+04    0.98623E-02   -0.21153E-01  2616   0.954E-01    0.125E+00
DAV:  15    -0.132918637295E+04   -0.50291E-02   -0.82265E-02  2576   0.567E-01    0.987E-01
DAV:  16    -0.132918630498E+04    0.67971E-04   -0.27061E-02  2616   0.310E-01    0.571E-01
DAV:  17    -0.132918587581E+04    0.42917E-03   -0.18797E-02  2400   0.261E-01    0.299E-01
DAV:  18    -0.132918604148E+04   -0.16567E-03   -0.44177E-03  2464   0.138E-01    0.115E-01
DAV:  19    -0.132918612556E+04   -0.84089E-04   -0.18557E-03  2616   0.856E-02    0.852E-02
DAV:  20    -0.132918616701E+04   -0.41441E-04   -0.48697E-04  2568   0.392E-02    0.239E-02
DAV:  21    -0.132918618313E+04   -0.16123E-04   -0.16340E-04  2616   0.239E-02    0.343E-02
DAV:  22    -0.132918619783E+04   -0.14705E-04   -0.54013E-05  2464   0.138E-02    0.116E-02
DAV:  23    -0.132918619431E+04    0.35226E-05   -0.29880E-05  2064   0.101E-02    0.788E-03
DAV:  24    -0.132918619825E+04   -0.39361E-05   -0.10003E-05  1296   0.752E-03    0.242E-03
DAV:  25    -0.132918619803E+04    0.21265E-06   -0.40722E-06  1016   0.578E-03
   1 F= -.13291862E+04 E0= -.13291861E+04  d E =-.132919E+04
 BRION: g(F)=  0.574E+02 g(S)=  0.000E+00
 bond charge predicted
       N       E                     dE             d eps       ncg     rms          rms(c)
DAV:   1    -0.130444889887E+04    0.24737E+02   -0.63236E+03  1664   0.117E+02    0.257E+01
DAV:   2    -0.135122236788E+04   -0.46773E+02   -0.54062E+02  2576   0.529E+01    0.134E+01
DAV:   3    -0.134960526351E+04    0.16171E+01   -0.31255E+01  2592   0.142E+01    0.900E+00
DAV:   4    -0.134794923729E+04    0.16560E+01   -0.11943E+01  2336   0.684E+00    0.425E+00
DAV:   5    -0.134778729835E+04    0.16194E+00   -0.31378E+00  2520   0.393E+00    0.300E+00
DAV:   6    -0.134770091041E+04    0.86388E-01   -0.26535E+00  2528   0.291E+00    0.175E+00
DAV:   7    -0.134769347809E+04    0.74323E-02   -0.50761E-01  2520   0.169E+00    0.129E+00
DAV:   8    -0.134768328043E+04    0.10198E-01   -0.37780E-01  2576   0.101E+00    0.586E-01
DAV:   9    -0.134768536013E+04   -0.20797E-02   -0.55392E-02  2568   0.531E-01    0.447E-01
DAV:  10    -0.134768299286E+04    0.23673E-02   -0.20340E-02  2624   0.301E-01    0.209E-01
DAV:  11    -0.134768399452E+04   -0.10017E-02   -0.18393E-02  2616   0.230E-01    0.172E-01
DAV:  12    -0.134768381771E+04    0.17681E-03   -0.27476E-03  2584   0.115E-01    0.789E-02
DAV:  13    -0.134768382201E+04   -0.43043E-05   -0.13717E-03  2616   0.646E-02    0.233E-02
DAV:  14    -0.134768384081E+04   -0.18792E-04   -0.18894E-04  2608   0.301E-02    0.124E-02
DAV:  15    -0.134768384667E+04   -0.58610E-05   -0.51381E-05  2624   0.146E-02    0.688E-03
DAV:  16    -0.134768384758E+04   -0.91428E-06   -0.14371E-05  1784   0.878E-03    0.420E-03
DAV:  17    -0.134768384870E+04   -0.11184E-05   -0.10901E-05  1896   0.644E-03    0.367E-03
DAV:  18    -0.134768384859E+04    0.11097E-06   -0.13323E-06  1048   0.413E-03
   2 F= -.13476838E+04 E0= -.13476838E+04  d E =-.184977E+02
 BRION: g(F)=  0.435E+02 g(S)=  0.000E+00 retain N=  1 mean eig= 0.55
 eig:   0.549
 bond charge predicted
       N       E                     dE             d eps       ncg     rms          rms(c)
DAV:   1    -0.133441294338E+04    0.13271E+02   -0.25027E+03  1352   0.665E+01    0.160E+01
DAV:   2    -0.135748880546E+04   -0.23076E+02   -0.28273E+02  2512   0.320E+01    0.154E+01
DAV:   3    -0.135671792197E+04    0.77088E+00   -0.19432E+01  2600   0.108E+01    0.121E+01
DAV:   4    -0.135550479624E+04    0.12131E+01   -0.14051E+01  2192   0.494E+00    0.637E+00
DAV:   5    -0.135570783174E+04   -0.20304E+00   -0.37812E+00  2424   0.361E+00    0.593E+00
DAV:   6    -0.135509410685E+04    0.61372E+00   -0.40517E+00  2440   0.366E+00    0.174E+00
DAV:   7    -0.135515795386E+04   -0.63847E-01   -0.13492E+00  2344   0.215E+00    0.125E+00
DAV:   8    -0.135514879674E+04    0.91571E-02   -0.28619E-01  2600   0.929E-01    0.648E-01
DAV:   9    -0.135514594916E+04    0.28476E-02   -0.87602E-02  2544   0.537E-01    0.336E-01
DAV:  10    -0.135514701116E+04   -0.10620E-02   -0.17858E-02  2464   0.263E-01    0.180E-01
DAV:  11    -0.135514668205E+04    0.32911E-03   -0.40409E-03  2608   0.148E-01    0.964E-02
DAV:  12    -0.135514682550E+04   -0.14345E-03   -0.31390E-03  2440   0.914E-02    0.660E-02
DAV:  13    -0.135514681291E+04    0.12591E-04   -0.59492E-04  2608   0.515E-02    0.423E-02
DAV:  14    -0.135514680926E+04    0.36509E-05   -0.29460E-04  2624   0.308E-02    0.186E-02
DAV:  15    -0.135514681204E+04   -0.27803E-05   -0.79230E-05  2552   0.186E-02    0.110E-02
DAV:  16    -0.135514681352E+04   -0.14848E-05   -0.29347E-05  2496   0.103E-02    0.572E-03
DAV:  17    -0.135514681375E+04   -0.22337E-06   -0.40839E-06  1208   0.583E-03
   3 F= -.13551468E+04 E0= -.13551468E+04  d E =-.746297E+01
 BRION: g(F)=  0.598E+01 g(S)=  0.000E+00 retain N=  2 mean eig= 1.28
 eig:   0.371  2.187
 bond charge predicted
       N       E                     dE             d eps       ncg     rms          rms(c)
DAV:   1    -0.135653432425E+04   -0.13875E+01   -0.37318E+02  1368   0.277E+01    0.509E+00
DAV:   2    -0.135840960445E+04   -0.18753E+01   -0.20771E+01  2280   0.105E+01    0.241E+00
DAV:   3    -0.135847453916E+04   -0.64935E-01   -0.16340E+00  2616   0.239E+00    0.202E+00
DAV:   4    -0.135842031500E+04    0.54224E-01   -0.38084E-01  2560   0.131E+00    0.108E+00
DAV:   5    -0.135841413261E+04    0.61824E-02   -0.15936E-01  2408   0.795E-01    0.701E-01
DAV:   6    -0.135841246741E+04    0.16652E-02   -0.75125E-02  2560   0.547E-01    0.477E-01
DAV:   7    -0.135841106493E+04    0.14025E-02   -0.36688E-02  2512   0.346E-01    0.274E-01
DAV:   8    -0.135841081753E+04    0.24740E-03   -0.83097E-03  2624   0.182E-01    0.146E-01
DAV:   9    -0.135841074489E+04    0.72639E-04   -0.24499E-03  2616   0.966E-02    0.872E-02
DAV:  10    -0.135841081162E+04   -0.66735E-04   -0.10952E-03  2344   0.628E-02    0.733E-02
DAV:  11    -0.135841076103E+04    0.50589E-04   -0.61691E-04  2472   0.458E-02    0.313E-02
DAV:  12    -0.135841076808E+04   -0.70436E-05   -0.28449E-04  2496   0.318E-02    0.234E-02
DAV:  13    -0.135841076589E+04    0.21883E-05   -0.61314E-05  2472   0.173E-02    0.144E-02
DAV:  14    -0.135841076664E+04   -0.75657E-06   -0.45567E-05  2216   0.107E-02    0.537E-03
DAV:  15    -0.135841076668E+04   -0.30675E-07   -0.42358E-06  1328   0.623E-03
   4 F= -.13584108E+04 E0= -.13584108E+04  d E =-.326395E+01
 BRION: g(F)=  0.225E+01 g(S)=  0.000E+00 retain N=  3 mean eig= 0.97
 eig:   2.243  0.011  0.644
 bond charge predicted
       N       E                     dE             d eps       ncg     rms          rms(c)
DAV:   1    -0.135916778933E+04   -0.75702E+00   -0.21007E+02  1360   0.203E+01    0.299E+00
DAV:   2    -0.136016984107E+04   -0.10021E+01   -0.10733E+01  2264   0.759E+00    0.148E+00
DAV:   3    -0.136020458157E+04   -0.34741E-01   -0.78072E-01  2568   0.159E+00    0.123E+00
DAV:   4    -0.136017987790E+04    0.24704E-01   -0.12793E-01  2568   0.774E-01    0.712E-01
DAV:   5    -0.136017120765E+04    0.86702E-02   -0.68870E-02  2256   0.503E-01    0.355E-01
DAV:   6    -0.136017222257E+04   -0.10149E-02   -0.32164E-02  2560   0.348E-01    0.283E-01
DAV:   7    -0.136017170719E+04    0.51537E-03   -0.14753E-02  2472   0.220E-01    0.170E-01
DAV:   8    -0.136017165081E+04    0.56383E-04   -0.38751E-03  2560   0.120E-01    0.880E-02
DAV:   9    -0.136017162522E+04    0.25590E-04   -0.87403E-04  2608   0.602E-02    0.598E-02
DAV:  10    -0.136017165697E+04   -0.31749E-04   -0.54841E-04  2272   0.400E-02    0.478E-02
DAV:  11    -0.136017162511E+04    0.31855E-04   -0.23650E-04  2544   0.318E-02    0.198E-02
DAV:  12    -0.136017163112E+04   -0.60077E-05   -0.15089E-04  2440   0.219E-02    0.176E-02
DAV:  13    -0.136017162784E+04    0.32833E-05   -0.36441E-05  2208   0.128E-02    0.783E-03
DAV:  14    -0.136017162829E+04   -0.45580E-06   -0.14323E-05  1824   0.748E-03    0.307E-03
DAV:  15    -0.136017162838E+04   -0.85944E-07   -0.15038E-06  1024   0.444E-03
   5 F= -.13601716E+04 E0= -.13601716E+04  d E =-.176086E+01
 BRION: g(F)=  0.132E+01 g(S)=  0.000E+00 retain N=  4 mean eig= 1.04
 eig:   1.274  1.274  0.802  0.802
 bond charge predicted
       N       E                     dE             d eps       ncg     rms          rms(c)
DAV:   1    -0.136055932195E+04   -0.38769E+00   -0.23365E+02  1376   0.215E+01    0.289E+00
DAV:   2    -0.136170727127E+04   -0.11479E+01   -0.12092E+01  2296   0.806E+00    0.147E+00
DAV:   3    -0.136175551301E+04   -0.48242E-01   -0.87439E-01  2592   0.161E+00    0.116E+00
DAV:   4    -0.136173080835E+04    0.24705E-01   -0.11972E-01  2552   0.774E-01    0.678E-01
DAV:   5    -0.136172272097E+04    0.80874E-02   -0.60700E-02  2400   0.486E-01    0.292E-01
DAV:   6    -0.136172424097E+04   -0.15200E-02   -0.26593E-02  2568   0.309E-01    0.229E-01
DAV:   7    -0.136172399504E+04    0.24593E-03   -0.83577E-03  2568   0.182E-01    0.149E-01
DAV:   8    -0.136172396847E+04    0.26567E-04   -0.33807E-03  2616   0.107E-01    0.811E-02
DAV:   9    -0.136172393130E+04    0.37172E-04   -0.59422E-04  2600   0.552E-02    0.550E-02
DAV:  10    -0.136172395452E+04   -0.23217E-04   -0.53918E-04  2312   0.398E-02    0.377E-02
DAV:  11    -0.136172394314E+04    0.11373E-04   -0.13373E-04  2504   0.274E-02    0.175E-02
DAV:  12    -0.136172394793E+04   -0.47831E-05   -0.10089E-04  2400   0.168E-02    0.163E-02
DAV:  13    -0.136172394479E+04    0.31346E-05   -0.26270E-05  2112   0.109E-02    0.704E-03
DAV:  14    -0.136172394509E+04   -0.29345E-06   -0.10675E-05  1800   0.670E-03    0.257E-03
DAV:  15    -0.136172394523E+04   -0.14350E-06   -0.10100E-06   992   0.408E-03
   6 F= -.13617239E+04 E0= -.13617239E+04  d E =-.155232E+01
 BRION: g(F)=  0.792E+00 g(S)=  0.000E+00 retain N=  5 mean eig= 1.19
 eig:   1.521  1.760  1.760  0.712  0.184
 bond charge predicted
       N       E                     dE             d eps       ncg     rms          rms(c)
DAV:   1    -0.136219916101E+04   -0.47522E+00   -0.90715E+01  1384   0.136E+01    0.183E+00
DAV:   2    -0.136264526674E+04   -0.44611E+00   -0.47140E+00  2280   0.522E+00    0.922E-01
DAV:   3    -0.136266690993E+04   -0.21643E-01   -0.35724E-01  2584   0.101E+00    0.740E-01
DAV:   4    -0.136265791707E+04    0.89929E-02   -0.51885E-02  2552   0.509E-01    0.406E-01
DAV:   5    -0.136265599904E+04    0.19180E-02   -0.22653E-02  2416   0.310E-01    0.195E-01
DAV:   6    -0.136265651257E+04   -0.51353E-03   -0.10306E-02  2608   0.193E-01    0.135E-01
DAV:   7    -0.136265641547E+04    0.97103E-04   -0.28879E-03  2488   0.112E-01    0.904E-02
DAV:   8    -0.136265642391E+04   -0.84430E-05   -0.13432E-03  2560   0.659E-02    0.517E-02
DAV:   9    -0.136265640283E+04    0.21078E-04   -0.22844E-04  2592   0.353E-02    0.346E-02
DAV:  10    -0.136265640952E+04   -0.66834E-05   -0.25287E-04  2400   0.274E-02    0.254E-02
DAV:  11    -0.136265640510E+04    0.44210E-05   -0.72096E-05  2464   0.191E-02    0.105E-02
DAV:  12    -0.136265640662E+04   -0.15204E-05   -0.31588E-05  2216   0.107E-02    0.912E-03
DAV:  13    -0.136265640591E+04    0.70718E-06   -0.89168E-06  1656   0.692E-03
   7 F= -.13626564E+04 E0= -.13626564E+04  d E =-.932461E+00
 BRION: g(F)=  0.555E+00 g(S)=  0.000E+00 retain N=  6 mean eig= 1.90
 eig:   3.812  3.812  1.910  0.085  0.877  0.877
 bond charge predicted
       N       E                     dE             d eps       ncg     rms          rms(c)
DAV:   1    -0.136303329514E+04   -0.37689E+00   -0.91871E+01  1384   0.138E+01    0.169E+00
DAV:   2    -0.136351235261E+04   -0.47906E+00   -0.50883E+00  2296   0.544E+00    0.892E-01
DAV:   3    -0.136353970786E+04   -0.27355E-01   -0.40589E-01  2592   0.109E+00    0.721E-01
DAV:   4    -0.136353262988E+04    0.70780E-02   -0.44254E-02  2576   0.495E-01    0.476E-01
DAV:   5    -0.136352802408E+04    0.46058E-02   -0.23788E-02  2344   0.312E-01    0.187E-01
DAV:   6    -0.136352880495E+04   -0.78087E-03   -0.12876E-02  2520   0.217E-01    0.165E-01
DAV:   7    -0.136352869062E+04    0.11433E-03   -0.52145E-03  2488   0.138E-01    0.110E-01
DAV:   8    -0.136352866695E+04    0.23673E-04   -0.20487E-03  2608   0.853E-02    0.557E-02
DAV:   9    -0.136352865148E+04    0.15465E-04   -0.33732E-04  2488   0.420E-02    0.423E-02
DAV:  10    -0.136352865646E+04   -0.49790E-05   -0.25408E-04  2376   0.285E-02    0.255E-02
DAV:  11    -0.136352865247E+04    0.39877E-05   -0.85956E-05  2496   0.210E-02    0.114E-02
DAV:  12    -0.136352865551E+04   -0.30330E-05   -0.42801E-05  2368   0.129E-02    0.126E-02
DAV:  13    -0.136352865355E+04    0.19586E-05   -0.14911E-05  1816   0.796E-03    0.573E-03
DAV:  14    -0.136352865348E+04    0.70184E-07   -0.43317E-06  1296   0.575E-03
   8 F= -.13635287E+04 E0= -.13635287E+04  d E =-.872248E+00
 BRION: g(F)=  0.400E+00 g(S)=  0.000E+00 retain N=  7 mean eig= 2.25
 eig:   5.282  5.282  1.824  0.246  1.125  1.125  0.853
 bond charge predicted
       N       E                     dE             d eps       ncg     rms          rms(c)
DAV:   1    -0.136387274239E+04   -0.34409E+00   -0.50124E+01  1376   0.101E+01    0.126E+00
DAV:   2    -0.136413390356E+04   -0.26116E+00   -0.27606E+00  2280   0.399E+00    0.656E-01
DAV:   3    -0.136414784476E+04   -0.13941E-01   -0.21556E-01  2600   0.786E-01    0.519E-01
DAV:   4    -0.136414320448E+04    0.46403E-02   -0.24307E-02  2584   0.363E-01    0.322E-01
DAV:   5    -0.136414114430E+04    0.20602E-02   -0.12225E-02  2344   0.221E-01    0.121E-01
DAV:   6    -0.136414156337E+04   -0.41908E-03   -0.55350E-03  2584   0.138E-01    0.100E-01
DAV:   7    -0.136414153627E+04    0.27109E-04   -0.16961E-03  2568   0.817E-02    0.673E-02
DAV:   8    -0.136414152050E+04    0.15763E-04   -0.70801E-04  2608   0.506E-02    0.355E-02
DAV:   9    -0.136414151687E+04    0.36306E-05   -0.12345E-04  2520   0.261E-02    0.258E-02
DAV:  10    -0.136414151911E+04   -0.22375E-05   -0.94236E-05  2528   0.182E-02    0.144E-02
DAV:  11    -0.136414151819E+04    0.91453E-06   -0.26083E-05  2296   0.117E-02    0.636E-03
DAV:  12    -0.136414151905E+04   -0.85356E-06   -0.10449E-05  1760   0.710E-03    0.586E-03
DAV:  13    -0.136414151848E+04    0.57240E-06   -0.13060E-06   992   0.486E-03
   9 F= -.13641415E+04 E0= -.13641415E+04  d E =-.612865E+00
 BRION: g(F)=  0.327E+00 g(S)=  0.000E+00 retain N=  8 mean eig= 2.82
 eig:   7.237  7.237  1.956  2.174  2.174  0.006  0.878  0.878
 bond charge predicted
       N       E                     dE             d eps       ncg     rms          rms(c)
DAV:   1    -0.136444488999E+04   -0.30337E+00   -0.81966E+01  1376   0.129E+01    0.154E+00
DAV:   2    -0.136488410069E+04   -0.43921E+00   -0.46652E+00  2288   0.525E+00    0.800E-01
DAV:   3    -0.136490917385E+04   -0.25073E-01   -0.37175E-01  2576   0.102E+00    0.652E-01
DAV:   4    -0.136490272142E+04    0.64524E-02   -0.38808E-02  2584   0.466E-01    0.441E-01
DAV:   5    -0.136489787735E+04    0.48441E-02   -0.20302E-02  2328   0.277E-01    0.170E-01
DAV:   6    -0.136489844957E+04   -0.57221E-03   -0.10785E-02  2456   0.191E-01    0.140E-01
DAV:   7    -0.136489839604E+04    0.53524E-04   -0.46927E-03  2488   0.127E-01    0.954E-02
DAV:   8    -0.136489838524E+04    0.10806E-04   -0.16943E-03  2616   0.798E-02    0.572E-02
DAV:   9    -0.136489836670E+04    0.18535E-04   -0.34724E-04  2512   0.398E-02    0.408E-02
DAV:  10    -0.136489837052E+04   -0.38201E-05   -0.19068E-04  2520   0.250E-02    0.223E-02
DAV:  11    -0.136489837155E+04   -0.10328E-05   -0.75277E-05  2456   0.188E-02    0.129E-02
DAV:  12    -0.136489837147E+04    0.84983E-07   -0.30043E-05  2336   0.128E-02    0.112E-02
DAV:  13    -0.136489837075E+04    0.71392E-06   -0.19083E-05  2000   0.787E-03    0.560E-03
DAV:  14    -0.136489837048E+04    0.27509E-06   -0.28677E-06  1104   0.531E-03
  10 F= -.13648984E+04 E0= -.13648984E+04  d E =-.756852E+00
 BRION: g(F)=  0.254E+00 g(S)=  0.000E+00 retain N=  7 mean eig= 3.59
 eig:   7.939  7.939  2.878  2.878  1.278  1.278  0.938
 bond charge predicted
       N       E                     dE             d eps       ncg     rms          rms(c)
DAV:   1    -0.136517309546E+04   -0.27472E+00   -0.61105E+01  1376   0.111E+01    0.134E+00
DAV:   2    -0.136549899694E+04   -0.32590E+00   -0.34481E+00  2304   0.446E+00    0.675E-01
DAV:   3    -0.136551669434E+04   -0.17697E-01   -0.26942E-01  2584   0.864E-01    0.544E-01
DAV:   4    -0.136551131091E+04    0.53834E-02   -0.27611E-02  2568   0.385E-01    0.362E-01
DAV:   5    -0.136550750531E+04    0.38056E-02   -0.15008E-02  2280   0.233E-01    0.129E-01
DAV:   6    -0.136550802541E+04   -0.52010E-03   -0.77251E-03  2488   0.154E-01    0.111E-01
DAV:   7    -0.136550797637E+04    0.49040E-04   -0.25755E-03  2512   0.943E-02    0.725E-02
DAV:   8    -0.136550796734E+04    0.90265E-05   -0.92759E-04  2608   0.586E-02    0.408E-02
DAV:   9    -0.136550796436E+04    0.29859E-05   -0.16288E-04  2536   0.284E-02    0.307E-02
DAV:  10    -0.136550796623E+04   -0.18709E-05   -0.84448E-05  2576   0.174E-02    0.141E-02
DAV:  11    -0.136550796708E+04   -0.85399E-06   -0.31341E-05  2432   0.120E-02    0.642E-03
DAV:  12    -0.136550796760E+04   -0.51568E-06   -0.94317E-06  1856   0.743E-03
  11 F= -.13655080E+04 E0= -.13655080E+04  d E =-.609597E+00
 BRION: g(F)=  0.221E+00 g(S)=  0.000E+00 retain N=  6 mean eig= 3.94
 eig:   7.758  7.758  2.928  2.928  1.142  1.142
 bond charge predicted
       N       E                     dE             d eps       ncg     rms          rms(c)
DAV:   1    -0.136574045391E+04   -0.23249E+00   -0.40792E+01  1376   0.911E+00    0.108E+00
DAV:   2    -0.136595766466E+04   -0.21721E+00   -0.23029E+00  2304   0.367E+00    0.549E-01
DAV:   3    -0.136596988797E+04   -0.12223E-01   -0.18233E-01  2584   0.717E-01    0.452E-01
DAV:   4    -0.136596672193E+04    0.31660E-02   -0.17630E-02  2592   0.314E-01    0.322E-01
DAV:   5    -0.136596349509E+04    0.32268E-02   -0.10995E-02  2224   0.202E-01    0.119E-01
DAV:   6    -0.136596384780E+04   -0.35270E-03   -0.68884E-03  2376   0.149E-01    0.113E-01
DAV:   7    -0.136596377990E+04    0.67900E-04   -0.28256E-03  2368   0.956E-02    0.756E-02
DAV:   8    -0.136596375703E+04    0.22870E-04   -0.95997E-04  2600   0.603E-02    0.414E-02
DAV:   9    -0.136596375079E+04    0.62359E-05   -0.17919E-04  2512   0.289E-02    0.295E-02
DAV:  10    -0.136596375290E+04   -0.21056E-05   -0.82824E-05  2528   0.167E-02    0.150E-02
DAV:  11    -0.136596375310E+04   -0.20146E-06   -0.32054E-05  2320   0.128E-02    0.773E-03
DAV:  12    -0.136596375380E+04   -0.70334E-06   -0.15202E-05  2096   0.865E-03    0.834E-03
DAV:  13    -0.136596375301E+04    0.78639E-06   -0.52378E-06  1376   0.549E-03
  12 F= -.13659638E+04 E0= -.13659638E+04  d E =-.455785E+00
 BRION: g(F)=  0.196E+00 g(S)=  0.000E+00 retain N=  3 mean eig= 4.51
 eig:   5.993  5.993  1.530
 bond charge predicted
       N       E                     dE             d eps       ncg     rms          rms(c)
DAV:   1    -0.136616884712E+04   -0.20509E+00   -0.64335E+01  1384   0.114E+01    0.135E+00
DAV:   2    -0.136651223351E+04   -0.34339E+00   -0.36286E+00  2288   0.458E+00    0.676E-01
DAV:   3    -0.136653193611E+04   -0.19703E-01   -0.28896E-01  2592   0.900E-01    0.552E-01
DAV:   4    -0.136652731364E+04    0.46225E-02   -0.27637E-02  2608   0.390E-01    0.391E-01
DAV:   5    -0.136652252122E+04    0.47924E-02   -0.14724E-02  2248   0.236E-01    0.149E-01
DAV:   6    -0.136652287052E+04   -0.34930E-03   -0.98632E-03  2360   0.174E-01    0.118E-01
DAV:   7    -0.136652284855E+04    0.21969E-04   -0.37491E-03  2384   0.109E-01    0.844E-02
DAV:   8    -0.136652283784E+04    0.10717E-04   -0.13278E-03  2584   0.695E-02    0.505E-02
DAV:   9    -0.136652282539E+04    0.12449E-04   -0.28111E-04  2504   0.357E-02    0.357E-02
DAV:  10    -0.136652282702E+04   -0.16367E-05   -0.11505E-04  2552   0.200E-02    0.187E-02
DAV:  11    -0.136652282880E+04   -0.17730E-05   -0.41915E-05  2440   0.140E-02    0.104E-02
DAV:  12    -0.136652282878E+04    0.11656E-07   -0.21236E-05  2296   0.981E-03    0.892E-03
DAV:  13    -0.136652282829E+04    0.49597E-06   -0.92937E-06  1736   0.606E-03
  13 F= -.13665228E+04 E0= -.13665228E+04  d E =-.559075E+00
 BRION: g(F)=  0.175E+00 g(S)=  0.000E+00 retain N=  2 mean eig= 3.80
 eig:   3.803  3.803
 bond charge predicted
       N       E                     dE             d eps       ncg     rms          rms(c)
DAV:   1    -0.136670991784E+04   -0.18709E+00   -0.30715E+01  1376   0.792E+00    0.922E-01
DAV:   2    -0.136687112474E+04   -0.16121E+00   -0.16979E+00  2296   0.314E+00    0.464E-01
DAV:   3    -0.136688045001E+04   -0.93253E-02   -0.13399E-01  2560   0.617E-01    0.371E-01
DAV:   4    -0.136687826834E+04    0.21817E-02   -0.12832E-02  2560   0.265E-01    0.264E-01
DAV:   5    -0.136687618349E+04    0.20849E-02   -0.74574E-03  2296   0.167E-01    0.959E-02
DAV:   6    -0.136687639552E+04   -0.21203E-03   -0.42934E-03  2408   0.119E-01    0.810E-02
DAV:   7    -0.136687638696E+04    0.85619E-05   -0.16452E-03  2416   0.736E-02    0.553E-02
DAV:   8    -0.136687637707E+04    0.98851E-05   -0.52984E-04  2608   0.457E-02    0.315E-02
DAV:   9    -0.136687637403E+04    0.30415E-05   -0.10672E-04  2512   0.225E-02    0.225E-02
DAV:  10    -0.136687637495E+04   -0.92101E-06   -0.49472E-05  2560   0.132E-02    0.111E-02
DAV:  11    -0.136687637535E+04   -0.40459E-06   -0.15983E-05  2104   0.906E-03    0.531E-03
DAV:  12    -0.136687637576E+04   -0.40513E-06   -0.80026E-06  1688   0.610E-03
  14 F= -.13668764E+04 E0= -.13668764E+04  d E =-.353547E+00
 BRION: g(F)=  0.166E+00 g(S)=  0.000E+00 retain N=  3 mean eig= 4.02
 eig:   5.114  5.114  1.821
 bond charge predicted
       N       E                     dE             d eps       ncg     rms          rms(c)
DAV:   1    -0.136705947328E+04   -0.18310E+00   -0.28665E+01  1376   0.760E+00    0.888E-01
DAV:   2    -0.136721007088E+04   -0.15060E+00   -0.15893E+00  2304   0.301E+00    0.445E-01
DAV:   3    -0.136721904621E+04   -0.89753E-02   -0.12722E-01  2568   0.591E-01    0.361E-01
DAV:   4    -0.136721722644E+04    0.18198E-02   -0.12073E-02  2584   0.258E-01    0.259E-01
DAV:   5    -0.136721523192E+04    0.19945E-02   -0.65337E-03  2320   0.159E-01    0.995E-02
DAV:   6    -0.136721536481E+04   -0.13288E-03   -0.41584E-03  2392   0.117E-01    0.773E-02
DAV:   7    -0.136721536203E+04    0.27724E-05   -0.16551E-03  2432   0.741E-02    0.550E-02
DAV:   8    -0.136721535600E+04    0.60381E-05   -0.54787E-04  2576   0.461E-02    0.323E-02
DAV:   9    -0.136721535216E+04    0.38336E-05   -0.12350E-04  2528   0.234E-02    0.228E-02
DAV:  10    -0.136721535295E+04   -0.78329E-06   -0.47611E-05  2544   0.130E-02    0.124E-02
DAV:  11    -0.136721535363E+04   -0.68104E-06   -0.18935E-05  2176   0.955E-03    0.716E-03
DAV:  12    -0.136721535347E+04    0.15798E-06   -0.94383E-06  1688   0.703E-03
  15 F= -.13672154E+04 E0= -.13672154E+04  d E =-.338978E+00
 BRION: g(F)=  0.155E+00 g(S)=  0.000E+00 retain N=  3 mean eig= 5.63
 eig:   7.602  7.602  1.699
 bond charge predicted
       N       E                     dE             d eps       ncg     rms          rms(c)
DAV:   1    -0.136737771921E+04   -0.16237E+00   -0.31597E+01  1376   0.797E+00    0.902E-01
DAV:   2    -0.136753971317E+04   -0.16199E+00   -0.16983E+00  2296   0.310E+00    0.452E-01
DAV:   3    -0.136754970468E+04   -0.99915E-02   -0.13605E-01  2584   0.604E-01    0.362E-01
DAV:   4    -0.136754801859E+04    0.16861E-02   -0.11742E-02  2592   0.259E-01    0.268E-01
DAV:   5    -0.136754578434E+04    0.22342E-02   -0.63370E-03  2312   0.162E-01    0.106E-01
DAV:   6    -0.136754589647E+04   -0.11213E-03   -0.48722E-03  2392   0.127E-01    0.768E-02
DAV:   7    -0.136754591494E+04   -0.18475E-04   -0.17505E-03  2416   0.761E-02    0.582E-02
DAV:   8    -0.136754590492E+04    0.10024E-04   -0.53343E-04  2600   0.459E-02    0.321E-02
DAV:   9    -0.136754589618E+04    0.87349E-05   -0.14692E-04  2400   0.246E-02    0.209E-02
DAV:  10    -0.136754589880E+04   -0.26173E-05   -0.49667E-05  2432   0.139E-02    0.128E-02
DAV:  11    -0.136754589837E+04    0.43197E-06   -0.16586E-05  2160   0.896E-03    0.627E-03
DAV:  12    -0.136754589876E+04   -0.38708E-06   -0.10069E-05  1768   0.678E-03    0.570E-03
DAV:  13    -0.136754589837E+04    0.39057E-06   -0.19329E-06  1008   0.466E-03
  16 F= -.13675459E+04 E0= -.13675459E+04  d E =-.330545E+00
 BRION: g(F)=  0.145E+00 g(S)=  0.000E+00 retain N=  3 mean eig= 4.22
 eig:   5.624  5.624  1.411
 bond charge predicted
       N       E                     dE             d eps       ncg     rms          rms(c)
DAV:   1    -0.136769543593E+04   -0.14954E+00   -0.41044E+01  1376   0.915E+00    0.104E+00
DAV:   2    -0.136790744321E+04   -0.21201E+00   -0.22323E+00  2304   0.358E+00    0.522E-01
DAV:   3    -0.136792048343E+04   -0.13040E-01   -0.18054E-01  2576   0.701E-01    0.419E-01
DAV:   4    -0.136791807182E+04    0.24116E-02   -0.16154E-02  2576   0.303E-01    0.308E-01
DAV:   5    -0.136791521643E+04    0.28554E-02   -0.89720E-03  2304   0.188E-01    0.122E-01
DAV:   6    -0.136791534390E+04   -0.12747E-03   -0.60501E-03  2400   0.142E-01    0.925E-02
DAV:   7    -0.136791536251E+04   -0.18606E-04   -0.26058E-03  2400   0.928E-02    0.672E-02
DAV:   8    -0.136791534633E+04    0.16175E-04   -0.77931E-04  2600   0.568E-02    0.394E-02
DAV:   9    -0.136791533927E+04    0.70599E-05   -0.19528E-04  2520   0.288E-02    0.262E-02
DAV:  10    -0.136791534160E+04   -0.23333E-05   -0.78597E-05  2504   0.166E-02    0.146E-02
DAV:  11    -0.136791534232E+04   -0.71665E-06   -0.27474E-05  2392   0.117E-02    0.820E-03
DAV:  12    -0.136791534261E+04   -0.28950E-06   -0.15961E-05  2048   0.842E-03    0.798E-03
DAV:  13    -0.136791534195E+04    0.65791E-06   -0.52349E-06  1392   0.553E-03
  17 F= -.13679153E+04 E0= -.13679153E+04  d E =-.369444E+00
 BRION: g(F)=  0.134E+00 g(S)=  0.000E+00 retain N=  3 mean eig= 4.90
 eig:   6.593  6.593  1.519
 bond charge predicted
       N       E                     dE             d eps       ncg     rms          rms(c)
DAV:   1    -0.136801982832E+04   -0.10449E+00   -0.59693E+01  1376   0.110E+01    0.123E+00
DAV:   2    -0.136832267194E+04   -0.30284E+00   -0.31781E+00  2288   0.423E+00    0.616E-01
DAV:   3    -0.136834165913E+04   -0.18987E-01   -0.25751E-01  2592   0.831E-01    0.497E-01
DAV:   4    -0.136833881281E+04    0.28463E-02   -0.21745E-02  2608   0.353E-01    0.376E-01
DAV:   5    -0.136833438068E+04    0.44321E-02   -0.11199E-02  2336   0.219E-01    0.162E-01
DAV:   6    -0.136833434195E+04    0.38735E-04   -0.98898E-03  2296   0.180E-01    0.105E-01
DAV:   7    -0.136833443444E+04   -0.92494E-04   -0.40697E-03  2440   0.116E-01    0.876E-02
DAV:   8    -0.136833439677E+04    0.37668E-04   -0.10869E-03  2568   0.679E-02    0.500E-02
DAV:   9    -0.136833437628E+04    0.20495E-04   -0.39491E-04  2496   0.377E-02    0.286E-02
DAV:  10    -0.136833438598E+04   -0.96962E-05   -0.12130E-04  2504   0.220E-02    0.205E-02
DAV:  11    -0.136833438386E+04    0.21198E-05   -0.41271E-05  2456   0.140E-02    0.114E-02
DAV:  12    -0.136833438425E+04   -0.39714E-06   -0.29616E-05  2280   0.109E-02    0.103E-02
DAV:  13    -0.136833438342E+04    0.83340E-06   -0.11152E-05  1768   0.680E-03    0.612E-03
DAV:  14    -0.136833438317E+04    0.24725E-06   -0.57378E-06  1488   0.524E-03
  18 F= -.13683344E+04 E0= -.13683344E+04  d E =-.419041E+00
 BRION: g(F)=  0.122E+00 g(S)=  0.000E+00 retain N=  2 mean eig= 5.29
 eig:   5.290  5.290
 bond charge predicted
       N       E                     dE             d eps       ncg     rms          rms(c)
DAV:   1    -0.136844159153E+04   -0.10721E+00   -0.45547E+01  1384   0.961E+00    0.108E+00
DAV:   2    -0.136867171397E+04   -0.23012E+00   -0.24168E+00  2312   0.372E+00    0.546E-01
DAV:   3    -0.136868560150E+04   -0.13888E-01   -0.19266E-01  2576   0.713E-01    0.439E-01
DAV:   4    -0.136868314536E+04    0.24561E-02   -0.16782E-02  2592   0.308E-01    0.329E-01
DAV:   5    -0.136867965515E+04    0.34902E-02   -0.94648E-03  2296   0.198E-01    0.133E-01
DAV:   6    -0.136867976281E+04   -0.10766E-03   -0.75609E-03  2352   0.157E-01    0.999E-02
DAV:   7    -0.136867978399E+04   -0.21177E-04   -0.27621E-03  2392   0.971E-02    0.767E-02
DAV:   8    -0.136867975359E+04    0.30397E-04   -0.90616E-04  2592   0.594E-02    0.408E-02
DAV:   9    -0.136867974108E+04    0.12516E-04   -0.24843E-04  2336   0.315E-02    0.255E-02
DAV:  10    -0.136867974601E+04   -0.49324E-05   -0.82446E-05  2400   0.175E-02    0.163E-02
DAV:  11    -0.136867974479E+04    0.12193E-05   -0.26844E-05  2376   0.114E-02    0.778E-03
DAV:  12    -0.136867974551E+04   -0.72454E-06   -0.17599E-05  2008   0.844E-03    0.725E-03
DAV:  13    -0.136867974483E+04    0.68797E-06   -0.25250E-06  1024   0.545E-03
  19 F= -.13686797E+04 E0= -.13686797E+04  d E =-.345362E+00
 BRION: g(F)=  0.114E+00 g(S)=  0.000E+00 retain N=  3 mean eig= 5.71
 eig:   7.344  7.344  2.427
 bond charge predicted
       N       E                     dE             d eps       ncg     rms          rms(c)
DAV:   1    -0.136872713347E+04   -0.47388E-01   -0.62466E+01  1376   0.112E+01    0.127E+00
DAV:   2    -0.136904233115E+04   -0.31520E+00   -0.33126E+00  2304   0.432E+00    0.642E-01
DAV:   3    -0.136906089805E+04   -0.18567E-01   -0.26263E-01  2584   0.836E-01    0.520E-01
DAV:   4    -0.136905762590E+04    0.32721E-02   -0.23387E-02  2600   0.360E-01    0.388E-01
DAV:   5    -0.136905271365E+04    0.49123E-02   -0.11776E-02  2328   0.228E-01    0.171E-01
DAV:   6    -0.136905255154E+04    0.16211E-03   -0.11128E-02  2272   0.194E-01    0.108E-01
DAV:   7    -0.136905267463E+04   -0.12309E-03   -0.45601E-03  2392   0.125E-01    0.956E-02
DAV:   8    -0.136905262796E+04    0.46670E-04   -0.12151E-03  2568   0.706E-02    0.564E-02
DAV:   9    -0.136905259651E+04    0.31454E-04   -0.50003E-04  2512   0.417E-02    0.296E-02
DAV:  10    -0.136905261011E+04   -0.13599E-04   -0.16557E-04  2512   0.251E-02    0.232E-02
DAV:  11    -0.136905260704E+04    0.30688E-05   -0.53815E-05  2472   0.160E-02    0.138E-02
DAV:  12    -0.136905260698E+04    0.57044E-07   -0.42709E-05  2304   0.128E-02    0.125E-02
DAV:  13    -0.136905260569E+04    0.12885E-05   -0.17218E-05  1912   0.817E-03    0.719E-03
DAV:  14    -0.136905260541E+04    0.27656E-06   -0.68690E-06  1640   0.557E-03
  20 F= -.13690526E+04 E0= -.13690526E+04  d E =-.372861E+00
 BRION: g(F)=  0.100E+00 g(S)=  0.000E+00 retain N=  2 mean eig= 4.42
 eig:   4.424  4.424
