 running on  160 total cores
 distrk:  each k-point on  160 cores,    1 groups
 distr:  one band on   20 cores,    8 groups
 using from now: INCAR     
 vasp.5.4.4.18Apr17-6-g9f103f2a35 (build May 01 2020 14:22:42) gamma-only       
  
 POSCAR found type information on POSCAR  O  La Zr Li Al
 POSCAR found :  5 types and     190 ions
 scaLAPACK will be used
 LDA part: xc-table for Pade appr. of Perdew
 POSCAR, INCAR and KPOINTS ok, starting setup
 FFT: planning ...
 WAVECAR not read
 WARNING: random wavefunctions but no delay for mixing, default for NELMDL
 entering main loop
       N       E                     dE             d eps       ncg     rms          rms(c)
DAV:   1     0.252688889261E+05    0.25269E+05   -0.42240E+05  1576   0.253E+03
DAV:   2     0.946847840292E+04   -0.15800E+05   -0.14606E+05  1440   0.708E+02
DAV:   3     0.269133170486E+04   -0.67771E+04   -0.61615E+04  1504   0.356E+02
DAV:   4    -0.373025483802E+03   -0.30644E+04   -0.28653E+04  2040   0.224E+02
DAV:   5    -0.141901087959E+04   -0.10460E+04   -0.10016E+04  2536   0.139E+02    0.116E+02
DAV:   6    -0.131068130327E+04    0.10833E+03   -0.14781E+03  2448   0.659E+01    0.504E+01
DAV:   7    -0.133265526540E+04   -0.21974E+02   -0.39332E+02  2552   0.338E+01    0.253E+01
DAV:   8    -0.134162838841E+04   -0.89731E+01   -0.27788E+02  2504   0.280E+01    0.268E+01
DAV:   9    -0.133380109522E+04    0.78273E+01   -0.59994E+01  2512   0.152E+01    0.735E+00
DAV:  10    -0.133492524943E+04   -0.11242E+01   -0.14918E+01  2616   0.835E+00    0.769E+00
DAV:  11    -0.133515863409E+04   -0.23338E+00   -0.74850E+00  2616   0.456E+00    0.405E+00
DAV:  12    -0.133500322605E+04    0.15541E+00   -0.25733E+00  2544   0.375E+00    0.262E+00
DAV:  13    -0.133508008178E+04   -0.76856E-01   -0.95661E-01  2560   0.172E+00    0.197E+00
DAV:  14    -0.133506318692E+04    0.16895E-01   -0.32468E-01  2584   0.119E+00    0.116E+00
DAV:  15    -0.133507274641E+04   -0.95595E-02   -0.10456E-01  2520   0.621E-01    0.964E-01
DAV:  16    -0.133507153360E+04    0.12128E-02   -0.36774E-02  2624   0.378E-01    0.618E-01
DAV:  17    -0.133506825968E+04    0.32739E-02   -0.30877E-02  2520   0.331E-01    0.295E-01
DAV:  18    -0.133506865409E+04   -0.39441E-03   -0.60277E-03  2480   0.176E-01    0.148E-01
DAV:  19    -0.133506859948E+04    0.54601E-04   -0.26416E-03  2528   0.955E-02    0.103E-01
DAV:  20    -0.133506865787E+04   -0.58386E-04   -0.61327E-04  2616   0.522E-02    0.231E-02
DAV:  21    -0.133506866668E+04   -0.88117E-05   -0.19863E-04  2624   0.289E-02    0.417E-02
DAV:  22    -0.133506868458E+04   -0.17901E-04   -0.77167E-05  2440   0.195E-02    0.136E-02
DAV:  23    -0.133506868268E+04    0.18997E-05   -0.29853E-05  2136   0.980E-03    0.119E-02
DAV:  24    -0.133506868769E+04   -0.50009E-05   -0.97900E-06  1280   0.893E-03    0.303E-03
DAV:  25    -0.133506868788E+04   -0.19587E-06   -0.11383E-05  1568   0.623E-03    0.649E-03
DAV:  26    -0.133506868850E+04   -0.61675E-06   -0.18475E-06  1008   0.514E-03
   1 F= -.13350687E+04 E0= -.13350687E+04  d E =-.133507E+04
 BRION: g(F)=  0.414E+02 g(S)=  0.000E+00
 bond charge predicted
       N       E                     dE             d eps       ncg     rms          rms(c)
DAV:   1    -0.132127227121E+04    0.13796E+02   -0.51915E+03  1680   0.110E+02    0.181E+01
DAV:   2    -0.135573459687E+04   -0.34462E+02   -0.40029E+02  2552   0.474E+01    0.108E+01
DAV:   3    -0.135514647948E+04    0.58812E+00   -0.24667E+01  2624   0.130E+01    0.783E+00
DAV:   4    -0.135368098693E+04    0.14655E+01   -0.71174E+00  2496   0.569E+00    0.412E+00
DAV:   5    -0.135327229629E+04    0.40869E+00   -0.24074E+00  2416   0.394E+00    0.271E+00
DAV:   6    -0.135317557348E+04    0.96723E-01   -0.25146E+00  2456   0.320E+00    0.125E+00
DAV:   7    -0.135321083788E+04   -0.35264E-01   -0.66353E-01  2432   0.168E+00    0.132E+00
DAV:   8    -0.135320423679E+04    0.66011E-02   -0.15608E-01  2584   0.700E-01    0.781E-01
DAV:   9    -0.135319918285E+04    0.50539E-02   -0.63175E-02  2592   0.476E-01    0.335E-01
DAV:  10    -0.135319739027E+04    0.17926E-02   -0.13568E-02  2344   0.339E-01    0.168E-01
DAV:  11    -0.135319824849E+04   -0.85821E-03   -0.15564E-02  2488   0.223E-01    0.148E-01
DAV:  12    -0.135319823765E+04    0.10833E-04   -0.33975E-03  2520   0.118E-01    0.863E-02
DAV:  13    -0.135319832045E+04   -0.82799E-04   -0.19611E-03  2584   0.719E-02    0.466E-02
DAV:  14    -0.135319831694E+04    0.35113E-05   -0.29605E-04  2624   0.418E-02    0.270E-02
DAV:  15    -0.135319831640E+04    0.54241E-06   -0.14560E-04  2600   0.221E-02    0.154E-02
DAV:  16    -0.135319831933E+04   -0.29319E-05   -0.48035E-05  2600   0.139E-02    0.111E-02
DAV:  17    -0.135319831779E+04    0.15378E-05   -0.46036E-06  1312   0.690E-03    0.791E-03
DAV:  18    -0.135319831762E+04    0.16968E-06   -0.18495E-05  1600   0.739E-03    0.393E-03
DAV:  19    -0.135319831768E+04   -0.61744E-07   -0.18429E-06  1008   0.483E-03
   2 F= -.13531983E+04 E0= -.13531983E+04  d E =-.181296E+02
 BRION: g(F)=  0.144E+02 g(S)=  0.000E+00 retain N=  1 mean eig= 0.70
 eig:   0.703
 bond charge predicted
       N       E                     dE             d eps       ncg     rms          rms(c)
DAV:   1    -0.134919052227E+04    0.40078E+01   -0.14349E+03  1416   0.540E+01    0.978E+00
DAV:   2    -0.135771702295E+04   -0.85265E+01   -0.10441E+02  2472   0.235E+01    0.811E+00
DAV:   3    -0.135802477416E+04   -0.30775E+00   -0.86237E+00  2568   0.676E+00    0.651E+00
DAV:   4    -0.135771902176E+04    0.30575E+00   -0.20409E+00  2552   0.298E+00    0.396E+00
DAV:   5    -0.135757117727E+04    0.14784E+00   -0.10972E+00  2192   0.259E+00    0.242E+00
DAV:   6    -0.135752819479E+04    0.42982E-01   -0.10151E+00  2504   0.188E+00    0.152E+00
DAV:   7    -0.135752599659E+04    0.21982E-02   -0.35662E-01  2496   0.108E+00    0.813E-01
DAV:   8    -0.135752513164E+04    0.86495E-03   -0.48655E-02  2624   0.453E-01    0.566E-01
DAV:   9    -0.135752323680E+04    0.18948E-02   -0.18055E-02  2560   0.278E-01    0.349E-01
DAV:  10    -0.135752241664E+04    0.82015E-03   -0.68278E-03  2280   0.192E-01    0.258E-01
DAV:  11    -0.135752220024E+04    0.21641E-03   -0.12093E-02  2312   0.163E-01    0.948E-02
DAV:  12    -0.135752211911E+04    0.81132E-04   -0.13773E-03  2504   0.908E-02    0.503E-02
DAV:  13    -0.135752216246E+04   -0.43351E-04   -0.81464E-04  2520   0.508E-02    0.342E-02
DAV:  14    -0.135752215192E+04    0.10533E-04   -0.16651E-04  2456   0.313E-02    0.181E-02
DAV:  15    -0.135752216013E+04   -0.82106E-05   -0.13320E-04  2424   0.190E-02    0.142E-02
DAV:  16    -0.135752215824E+04    0.18948E-05   -0.15549E-05  2000   0.927E-03    0.982E-03
DAV:  17    -0.135752215694E+04    0.12957E-05   -0.11013E-05  1704   0.723E-03    0.361E-03
DAV:  18    -0.135752215713E+04   -0.19070E-06   -0.37092E-06  1144   0.558E-03
   3 F= -.13575222E+04 E0= -.13575222E+04  d E =-.432384E+01
 BRION: g(F)=  0.392E+01 g(S)=  0.000E+00 retain N=  2 mean eig= 0.49
 eig:   0.436  0.538
 bond charge predicted
       N       E                     dE             d eps       ncg     rms          rms(c)
DAV:   1    -0.135836850338E+04   -0.84635E+00   -0.32838E+02  1384   0.265E+01    0.506E+00
DAV:   2    -0.135992644652E+04   -0.15579E+01   -0.17557E+01  2288   0.100E+01    0.224E+00
DAV:   3    -0.135997778478E+04   -0.51338E-01   -0.15139E+00  2584   0.229E+00    0.187E+00
DAV:   4    -0.135992509231E+04    0.52692E-01   -0.34399E-01  2536   0.126E+00    0.919E-01
DAV:   5    -0.135991535325E+04    0.97391E-02   -0.12493E-01  2344   0.786E-01    0.596E-01
DAV:   6    -0.135991491295E+04    0.44029E-03   -0.84710E-02  2528   0.558E-01    0.382E-01
DAV:   7    -0.135991465175E+04    0.26120E-03   -0.28103E-02  2456   0.312E-01    0.277E-01
DAV:   8    -0.135991433295E+04    0.31881E-03   -0.81811E-03  2552   0.164E-01    0.145E-01
DAV:   9    -0.135991417872E+04    0.15423E-03   -0.22799E-03  2584   0.102E-01    0.857E-02
DAV:  10    -0.135991432089E+04   -0.14217E-03   -0.20249E-03  2264   0.767E-02    0.957E-02
DAV:  11    -0.135991421707E+04    0.10382E-03   -0.77887E-04  2528   0.546E-02    0.405E-02
DAV:  12    -0.135991422470E+04   -0.76344E-05   -0.41592E-04  2528   0.358E-02    0.300E-02
DAV:  13    -0.135991422001E+04    0.46919E-05   -0.11440E-04  2592   0.214E-02    0.143E-02
DAV:  14    -0.135991422115E+04   -0.11422E-05   -0.21655E-05  2232   0.954E-03    0.846E-03
DAV:  15    -0.135991422101E+04    0.13933E-06   -0.82011E-06  1608   0.625E-03
   4 F= -.13599142E+04 E0= -.13599142E+04  d E =-.239206E+01
 BRION: g(F)=  0.121E+01 g(S)=  0.000E+00 retain N=  3 mean eig= 1.29
 eig:   0.711  1.585  1.585
 bond charge predicted
       N       E                     dE             d eps       ncg     rms          rms(c)
DAV:   1    -0.136035723586E+04   -0.44301E+00   -0.20699E+02  1368   0.208E+01    0.267E+00
DAV:   2    -0.136134923707E+04   -0.99200E+00   -0.10445E+01  2288   0.770E+00    0.132E+00
DAV:   3    -0.136139978570E+04   -0.50549E-01   -0.79658E-01  2592   0.156E+00    0.106E+00
DAV:   4    -0.136138370953E+04    0.16076E-01   -0.96406E-02  2584   0.704E-01    0.674E-01
DAV:   5    -0.136137597382E+04    0.77357E-02   -0.50437E-02  2376   0.436E-01    0.280E-01
DAV:   6    -0.136137728788E+04   -0.13141E-02   -0.21708E-02  2584   0.291E-01    0.232E-01
DAV:   7    -0.136137701788E+04    0.27000E-03   -0.10868E-02  2488   0.196E-01    0.143E-01
DAV:   8    -0.136137701123E+04    0.66488E-05   -0.36093E-03  2592   0.118E-01    0.882E-02
DAV:   9    -0.136137697118E+04    0.40056E-04   -0.68010E-04  2576   0.563E-02    0.607E-02
DAV:  10    -0.136137698860E+04   -0.17424E-04   -0.53934E-04  2440   0.392E-02    0.381E-02
DAV:  11    -0.136137697711E+04    0.11489E-04   -0.17564E-04  2528   0.295E-02    0.153E-02
DAV:  12    -0.136137698227E+04   -0.51592E-05   -0.79714E-05  2424   0.177E-02    0.147E-02
DAV:  13    -0.136137698031E+04    0.19550E-05   -0.19659E-05  2016   0.934E-03    0.699E-03
DAV:  14    -0.136137698054E+04   -0.22148E-06   -0.11086E-05  1792   0.670E-03    0.334E-03
DAV:  15    -0.136137698064E+04   -0.10111E-06   -0.10229E-06   992   0.403E-03
   5 F= -.13613770E+04 E0= -.13613770E+04  d E =-.146276E+01
 BRION: g(F)=  0.704E+00 g(S)=  0.000E+00 retain N=  4 mean eig= 1.64
 eig:   2.276  2.276  1.012  1.012
 bond charge predicted
       N       E                     dE             d eps       ncg     rms          rms(c)
DAV:   1    -0.136175086810E+04   -0.37389E+00   -0.95750E+01  1376   0.142E+01    0.172E+00
DAV:   2    -0.136223689573E+04   -0.48603E+00   -0.51538E+00  2288   0.544E+00    0.906E-01
DAV:   3    -0.136226628774E+04   -0.29392E-01   -0.41289E-01  2576   0.111E+00    0.763E-01
DAV:   4    -0.136226072780E+04    0.55599E-02   -0.44849E-02  2616   0.492E-01    0.541E-01
DAV:   5    -0.136225547496E+04    0.52528E-02   -0.26873E-02  2304   0.319E-01    0.221E-01
DAV:   6    -0.136225627483E+04   -0.79988E-03   -0.15426E-02  2440   0.243E-01    0.213E-01
DAV:   7    -0.136225595865E+04    0.31618E-03   -0.84098E-03  2432   0.169E-01    0.138E-01
DAV:   8    -0.136225588389E+04    0.74764E-04   -0.35268E-03  2528   0.112E-01    0.743E-02
DAV:   9    -0.136225586283E+04    0.21056E-04   -0.54891E-04  2528   0.522E-02    0.538E-02
DAV:  10    -0.136225585941E+04    0.34233E-05   -0.29905E-04  2528   0.303E-02    0.271E-02
DAV:  11    -0.136225586409E+04   -0.46786E-05   -0.94971E-05  2520   0.221E-02    0.154E-02
DAV:  12    -0.136225586394E+04    0.14821E-06   -0.40459E-05  2456   0.148E-02    0.140E-02
DAV:  13    -0.136225586282E+04    0.11185E-05   -0.32901E-05  2208   0.986E-03    0.806E-03
DAV:  14    -0.136225586247E+04    0.34932E-06   -0.84045E-06  1680   0.603E-03
   6 F= -.13622559E+04 E0= -.13622559E+04  d E =-.878882E+00
 BRION: g(F)=  0.437E+00 g(S)=  0.000E+00 retain N=  5 mean eig= 2.32
 eig:   3.959  3.959  1.426  1.426  0.833
 bond charge predicted
       N       E                     dE             d eps       ncg     rms          rms(c)
DAV:   1    -0.136238435183E+04   -0.12849E+00   -0.14070E+02  1400   0.171E+01    0.208E+00
DAV:   2    -0.136313435097E+04   -0.75000E+00   -0.78986E+00  2296   0.689E+00    0.104E+00
DAV:   3    -0.136318117382E+04   -0.46823E-01   -0.62583E-01  2600   0.133E+00    0.850E-01
DAV:   4    -0.136317346314E+04    0.77107E-02   -0.62861E-02  2608   0.607E-01    0.598E-01
DAV:   5    -0.136316708359E+04    0.63795E-02   -0.31248E-02  2368   0.351E-01    0.249E-01
DAV:   6    -0.136316806451E+04   -0.98093E-03   -0.18941E-02  2456   0.266E-01    0.196E-01
DAV:   7    -0.136316795636E+04    0.10815E-03   -0.10224E-02  2432   0.186E-01    0.141E-01
DAV:   8    -0.136316794200E+04    0.14366E-04   -0.37558E-03  2592   0.117E-01    0.910E-02
DAV:   9    -0.136316787520E+04    0.66802E-04   -0.76470E-04  2576   0.582E-02    0.601E-02
DAV:  10    -0.136316787473E+04    0.46662E-06   -0.35271E-04  2616   0.343E-02    0.320E-02
DAV:  11    -0.136316788569E+04   -0.10962E-04   -0.11194E-04  2488   0.224E-02    0.222E-02
DAV:  12    -0.136316787973E+04    0.59652E-05   -0.57022E-05  2376   0.178E-02    0.146E-02
DAV:  13    -0.136316787994E+04   -0.21128E-06   -0.50473E-05  2328   0.122E-02    0.822E-03
DAV:  14    -0.136316787984E+04    0.94558E-07   -0.10554E-05  1760   0.646E-03    0.399E-03
DAV:  15    -0.136316787986E+04   -0.19063E-07   -0.13715E-06   984   0.423E-03
   7 F= -.13631679E+04 E0= -.13631679E+04  d E =-.912017E+00
 BRION: g(F)=  0.280E+00 g(S)=  0.000E+00 retain N=  6 mean eig= 2.99
 eig:   5.427  5.427  2.487  2.487  1.066  1.066
 bond charge predicted
       N       E                     dE             d eps       ncg     rms          rms(c)
DAV:   1    -0.136336296132E+04   -0.19508E+00   -0.67006E+01  1376   0.118E+01    0.144E+00
DAV:   2    -0.136372267962E+04   -0.35972E+00   -0.38159E+00  2296   0.481E+00    0.715E-01
DAV:   3    -0.136374477943E+04   -0.22100E-01   -0.30165E-01  2584   0.918E-01    0.593E-01
DAV:   4    -0.136374088124E+04    0.38982E-02   -0.29753E-02  2608   0.419E-01    0.418E-01
DAV:   5    -0.136373730594E+04    0.35753E-02   -0.16334E-02  2336   0.253E-01    0.165E-01
DAV:   6    -0.136373789388E+04   -0.58793E-03   -0.99801E-03  2424   0.187E-01    0.148E-01
DAV:   7    -0.136373778939E+04    0.10449E-03   -0.46180E-03  2456   0.126E-01    0.999E-02
DAV:   8    -0.136373775452E+04    0.34868E-04   -0.18580E-03  2592   0.817E-02    0.546E-02
DAV:   9    -0.136373773604E+04    0.18477E-04   -0.34206E-04  2424   0.399E-02    0.397E-02
DAV:  10    -0.136373773649E+04   -0.44616E-06   -0.16320E-04  2456   0.232E-02    0.213E-02
DAV:  11    -0.136373773797E+04   -0.14786E-05   -0.54766E-05  2416   0.161E-02    0.123E-02
DAV:  12    -0.136373773832E+04   -0.35360E-06   -0.25657E-05  2328   0.114E-02    0.108E-02
DAV:  13    -0.136373773745E+04    0.87274E-06   -0.16740E-05  1800   0.755E-03    0.567E-03
DAV:  14    -0.136373773725E+04    0.19722E-06   -0.32326E-06  1136   0.555E-03
   8 F= -.13637377E+04 E0= -.13637377E+04  d E =-.569857E+00
 BRION: g(F)=  0.214E+00 g(S)=  0.000E+00 retain N=  5 mean eig= 3.83
 eig:   7.142  7.142  1.930  1.930  1.003
 bond charge predicted
       N       E                     dE             d eps       ncg     rms          rms(c)
DAV:   1    -0.136388713896E+04   -0.14940E+00   -0.64917E+01  1384   0.116E+01    0.139E+00
DAV:   2    -0.136424097349E+04   -0.35383E+00   -0.37737E+00  2304   0.481E+00    0.700E-01
DAV:   3    -0.136426337958E+04   -0.22406E-01   -0.30249E-01  2576   0.904E-01    0.577E-01
DAV:   4    -0.136425968872E+04    0.36909E-02   -0.28572E-02  2592   0.418E-01    0.413E-01
DAV:   5    -0.136425604238E+04    0.36463E-02   -0.15853E-02  2352   0.251E-01    0.164E-01
DAV:   6    -0.136425657459E+04   -0.53222E-03   -0.99764E-03  2448   0.184E-01    0.143E-01
DAV:   7    -0.136425650103E+04    0.73567E-04   -0.44138E-03  2512   0.124E-01    0.969E-02
DAV:   8    -0.136425647161E+04    0.29420E-04   -0.17106E-03  2576   0.794E-02    0.522E-02
DAV:   9    -0.136425645312E+04    0.18492E-04   -0.31409E-04  2360   0.385E-02    0.375E-02
DAV:  10    -0.136425645494E+04   -0.18229E-05   -0.15114E-04  2424   0.227E-02    0.188E-02
DAV:  11    -0.136425645628E+04   -0.13446E-05   -0.44399E-05  2384   0.150E-02    0.110E-02
DAV:  12    -0.136425645699E+04   -0.71176E-06   -0.22607E-05  2328   0.106E-02    0.102E-02
DAV:  13    -0.136425645616E+04    0.83826E-06   -0.13450E-05  1760   0.697E-03    0.520E-03
DAV:  14    -0.136425645595E+04    0.20803E-06   -0.21425E-06  1016   0.519E-03
   9 F= -.13642565E+04 E0= -.13642565E+04  d E =-.518719E+00
 BRION: g(F)=  0.173E+00 g(S)=  0.000E+00 retain N=  4 mean eig= 4.95
 eig:   7.900  7.900  1.993  1.993
 bond charge predicted
       N       E                     dE             d eps       ncg     rms          rms(c)
DAV:   1    -0.136442133910E+04   -0.16488E+00   -0.43902E+01  1384   0.955E+00    0.113E+00
DAV:   2    -0.136465907479E+04   -0.23774E+00   -0.25451E+00  2296   0.392E+00    0.564E-01
DAV:   3    -0.136467417748E+04   -0.15103E-01   -0.20698E-01  2592   0.747E-01    0.463E-01
DAV:   4    -0.136467159443E+04    0.25831E-02   -0.18512E-02  2608   0.340E-01    0.338E-01
DAV:   5    -0.136466877725E+04    0.28172E-02   -0.10404E-02  2312   0.207E-01    0.135E-01
DAV:   6    -0.136466904491E+04   -0.26767E-03   -0.71999E-03  2400   0.155E-01    0.117E-01
DAV:   7    -0.136466901249E+04    0.32420E-04   -0.30510E-03  2480   0.103E-01    0.816E-02
DAV:   8    -0.136466899120E+04    0.21298E-04   -0.11762E-03  2584   0.651E-02    0.437E-02
DAV:   9    -0.136466897478E+04    0.16418E-04   -0.23733E-04  2296   0.327E-02    0.302E-02
DAV:  10    -0.136466897680E+04   -0.20259E-05   -0.10483E-04  2336   0.193E-02    0.158E-02
DAV:  11    -0.136466897740E+04   -0.59146E-06   -0.29545E-05  2360   0.123E-02    0.871E-03
DAV:  12    -0.136466897791E+04   -0.51345E-06   -0.14902E-05  2024   0.843E-03    0.788E-03
DAV:  13    -0.136466897743E+04    0.47834E-06   -0.85135E-06  1648   0.602E-03
  10 F= -.13646690E+04 E0= -.13646690E+04  d E =-.412521E+00
 BRION: g(F)=  0.150E+00 g(S)=  0.000E+00 retain N=  3 mean eig= 5.21
 eig:   6.856  6.856  1.928
 bond charge predicted
       N       E                     dE             d eps       ncg     rms          rms(c)
DAV:   1    -0.136483630873E+04   -0.16733E+00   -0.27466E+01  1384   0.753E+00    0.898E-01
DAV:   2    -0.136498426780E+04   -0.14796E+00   -0.15883E+00  2312   0.308E+00    0.449E-01
DAV:   3    -0.136499360501E+04   -0.93372E-02   -0.12968E-01  2592   0.590E-01    0.368E-01
DAV:   4    -0.136499187859E+04    0.17264E-02   -0.11816E-02  2616   0.269E-01    0.263E-01
DAV:   5    -0.136499016672E+04    0.17119E-02   -0.64988E-03  2320   0.162E-01    0.103E-01
DAV:   6    -0.136499033637E+04   -0.16965E-03   -0.40628E-03  2432   0.116E-01    0.886E-02
DAV:   7    -0.136499031043E+04    0.25936E-04   -0.17442E-03  2464   0.780E-02    0.595E-02
DAV:   8    -0.136499030531E+04    0.51203E-05   -0.70215E-04  2552   0.510E-02    0.356E-02
DAV:   9    -0.136499029700E+04    0.83096E-05   -0.13674E-04  2376   0.254E-02    0.248E-02
DAV:  10    -0.136499029775E+04   -0.74141E-06   -0.63978E-05  2440   0.148E-02    0.125E-02
DAV:  11    -0.136499029871E+04   -0.96856E-06   -0.18559E-05  2176   0.984E-03    0.767E-03
DAV:  12    -0.136499029866E+04    0.54977E-07   -0.10063E-05  1712   0.701E-03    0.653E-03
DAV:  13    -0.136499029832E+04    0.33774E-06   -0.54449E-06  1392   0.561E-03
  11 F= -.13649903E+04 E0= -.13649903E+04  d E =-.321321E+00
 BRION: g(F)=  0.139E+00 g(S)=  0.000E+00 retain N=  3 mean eig= 4.93
 eig:   6.525  6.525  1.755
 bond charge predicted
       N       E                     dE             d eps       ncg     rms          rms(c)
DAV:   1    -0.136514479929E+04   -0.15450E+00   -0.21983E+01  1384   0.667E+00    0.795E-01
DAV:   2    -0.136526054774E+04   -0.11575E+00   -0.12382E+00  2312   0.270E+00    0.396E-01
DAV:   3    -0.136526771490E+04   -0.71672E-02   -0.10073E-01  2584   0.515E-01    0.321E-01
DAV:   4    -0.136526628192E+04    0.14330E-02   -0.90555E-03  2600   0.231E-01    0.230E-01
DAV:   5    -0.136526483521E+04    0.14467E-02   -0.50390E-03  2304   0.146E-01    0.886E-02
DAV:   6    -0.136526497101E+04   -0.13581E-03   -0.34495E-03  2392   0.108E-01    0.778E-02
DAV:   7    -0.136526496109E+04    0.99269E-05   -0.12841E-03  2464   0.671E-02    0.560E-02
DAV:   8    -0.136526494925E+04    0.11839E-04   -0.52181E-04  2600   0.421E-02    0.290E-02
DAV:   9    -0.136526494170E+04    0.75455E-05   -0.10823E-04  2280   0.222E-02    0.200E-02
DAV:  10    -0.136526494253E+04   -0.83273E-06   -0.44415E-05  2336   0.129E-02    0.114E-02
DAV:  11    -0.136526494226E+04    0.27037E-06   -0.13613E-05  2032   0.833E-03    0.539E-03
DAV:  12    -0.136526494266E+04   -0.39126E-06   -0.67898E-06  1632   0.578E-03
  12 F= -.13652649E+04 E0= -.13652649E+04  d E =-.274644E+00
 BRION: g(F)=  0.128E+00 g(S)=  0.000E+00 retain N=  3 mean eig= 4.78
 eig:   6.393  6.393  1.550
 bond charge predicted
       N       E                     dE             d eps       ncg     rms          rms(c)
DAV:   1    -0.136541016792E+04   -0.14523E+00   -0.27969E+01  1376   0.757E+00    0.887E-01
DAV:   2    -0.136555795627E+04   -0.14779E+00   -0.15804E+00  2304   0.305E+00    0.441E-01
DAV:   3    -0.136556740732E+04   -0.94511E-02   -0.13023E-01  2584   0.591E-01    0.359E-01
DAV:   4    -0.136556577521E+04    0.16321E-02   -0.11502E-02  2608   0.261E-01    0.261E-01
DAV:   5    -0.136556397342E+04    0.18018E-02   -0.63675E-03  2304   0.158E-01    0.105E-01
DAV:   6    -0.136556410054E+04   -0.12712E-03   -0.40984E-03  2352   0.117E-01    0.870E-02
DAV:   7    -0.136556408294E+04    0.17595E-04   -0.18066E-03  2448   0.781E-02    0.601E-02
DAV:   8    -0.136556407649E+04    0.64552E-05   -0.72361E-04  2568   0.516E-02    0.376E-02
DAV:   9    -0.136556406698E+04    0.95102E-05   -0.14799E-04  2456   0.258E-02    0.251E-02
DAV:  10    -0.136556406776E+04   -0.78320E-06   -0.62106E-05  2504   0.145E-02    0.126E-02
DAV:  11    -0.136556406882E+04   -0.10548E-05   -0.15850E-05  2104   0.916E-03    0.819E-03
DAV:  12    -0.136556406831E+04    0.50881E-06   -0.95007E-06  1680   0.697E-03
  13 F= -.13655641E+04 E0= -.13655641E+04  d E =-.299126E+00
 BRION: g(F)=  0.119E+00 g(S)=  0.000E+00 retain N=  3 mean eig= 5.19
 eig:   6.979  6.979  1.615
 bond charge predicted
       N       E                     dE             d eps       ncg     rms          rms(c)
DAV:   1    -0.136569774635E+04   -0.13368E+00   -0.25316E+01  1376   0.716E+00    0.824E-01
DAV:   2    -0.136582908766E+04   -0.13134E+00   -0.13958E+00  2304   0.288E+00    0.414E-01
DAV:   3    -0.136583721487E+04   -0.81272E-02   -0.11280E-01  2576   0.545E-01    0.334E-01
DAV:   4    -0.136583573076E+04    0.14841E-02   -0.98335E-03  2576   0.238E-01    0.244E-01
DAV:   5    -0.136583404158E+04    0.16892E-02   -0.54279E-03  2296   0.147E-01    0.974E-02
DAV:   6    -0.136583413716E+04   -0.95584E-04   -0.37915E-03  2312   0.113E-01    0.784E-02
DAV:   7    -0.136583414072E+04   -0.35598E-05   -0.16688E-03  2424   0.734E-02    0.582E-02
DAV:   8    -0.136583412809E+04    0.12632E-04   -0.58083E-04  2584   0.466E-02    0.333E-02
DAV:   9    -0.136583412068E+04    0.74152E-05   -0.14715E-04  2496   0.246E-02    0.217E-02
DAV:  10    -0.136583412281E+04   -0.21331E-05   -0.52328E-05  2520   0.140E-02    0.138E-02
DAV:  11    -0.136583412263E+04    0.17910E-06   -0.21411E-05  2192   0.972E-03    0.818E-03
DAV:  12    -0.136583412230E+04    0.33434E-06   -0.94667E-06  1760   0.728E-03
  14 F= -.13658341E+04 E0= -.13658341E+04  d E =-.270054E+00
 BRION: g(F)=  0.113E+00 g(S)=  0.000E+00 retain N=  3 mean eig= 4.90
 eig:   6.442  6.442  1.830
 bond charge predicted
       N       E                     dE             d eps       ncg     rms          rms(c)
DAV:   1    -0.136596157083E+04   -0.12745E+00   -0.19611E+01  1368   0.630E+00    0.726E-01
DAV:   2    -0.136606227841E+04   -0.10071E+00   -0.10661E+00  2304   0.250E+00    0.364E-01
DAV:   3    -0.136606855500E+04   -0.62766E-02   -0.86077E-02  2576   0.475E-01    0.293E-01
DAV:   4    -0.136606745883E+04    0.10962E-02   -0.75797E-03  2592   0.206E-01    0.211E-01
DAV:   5    -0.136606626672E+04    0.11921E-02   -0.40615E-03  2304   0.127E-01    0.834E-02
DAV:   6    -0.136606636447E+04   -0.97751E-04   -0.26730E-03  2384   0.932E-02    0.683E-02
DAV:   7    -0.136606635294E+04    0.11536E-04   -0.11013E-03  2424   0.609E-02    0.482E-02
DAV:   8    -0.136606634696E+04    0.59728E-05   -0.44086E-04  2536   0.401E-02    0.298E-02
DAV:   9    -0.136606634095E+04    0.60146E-05   -0.96565E-05  2384   0.206E-02    0.201E-02
DAV:  10    -0.136606634122E+04   -0.27037E-06   -0.41449E-05  2464   0.121E-02    0.107E-02
DAV:  11    -0.136606634137E+04   -0.14711E-06   -0.85011E-06  1536   0.779E-03
  15 F= -.13660663E+04 E0= -.13660663E+04  d E =-.232219E+00
 BRION: g(F)=  0.109E+00 g(S)=  0.000E+00 retain N=  3 mean eig= 4.83
 eig:   6.258  6.258  1.969
 bond charge predicted
       N       E                     dE             d eps       ncg     rms          rms(c)
DAV:   1    -0.136618100579E+04   -0.11466E+00   -0.13298E+01  1368   0.517E+00    0.576E-01
DAV:   2    -0.136624844861E+04   -0.67443E-01   -0.71012E-01  2304   0.204E+00    0.294E-01
DAV:   3    -0.136625252274E+04   -0.40741E-02   -0.56199E-02  2584   0.381E-01    0.235E-01
DAV:   4    -0.136625179233E+04    0.73041E-03   -0.48284E-03  2600   0.164E-01    0.171E-01
DAV:   5    -0.136625095335E+04    0.83897E-03   -0.25049E-03  2328   0.997E-02    0.698E-02
DAV:   6    -0.136625098013E+04   -0.26773E-04   -0.17830E-03  2296   0.764E-02    0.504E-02
DAV:   7    -0.136625099079E+04   -0.10657E-04   -0.85369E-04  2432   0.525E-02    0.394E-02
DAV:   8    -0.136625098493E+04    0.58504E-05   -0.25261E-04  2536   0.319E-02    0.250E-02
DAV:   9    -0.136625098062E+04    0.43144E-05   -0.75449E-05  2480   0.172E-02    0.154E-02
DAV:  10    -0.136625098144E+04   -0.82013E-06   -0.27132E-05  2432   0.998E-03    0.906E-03
DAV:  11    -0.136625098131E+04    0.12763E-06   -0.46861E-06  1232   0.684E-03
  16 F= -.13662510E+04 E0= -.13662510E+04  d E =-.184640E+00
 BRION: g(F)=  0.106E+00 g(S)=  0.000E+00 retain N=  3 mean eig= 4.15
 eig:   5.466  5.466  1.506
 bond charge predicted
       N       E                     dE             d eps       ncg     rms          rms(c)
DAV:   1    -0.136636453387E+04   -0.11355E+00   -0.11542E+01  1368   0.479E+00    0.539E-01
DAV:   2    -0.136642234315E+04   -0.57809E-01   -0.60703E-01  2304   0.189E+00    0.273E-01
DAV:   3    -0.136642579984E+04   -0.34567E-02   -0.47795E-02  2576   0.350E-01    0.217E-01
DAV:   4    -0.136642514452E+04    0.65531E-03   -0.41667E-03  2592   0.150E-01    0.155E-01
DAV:   5    -0.136642444815E+04    0.69637E-03   -0.21613E-03  2328   0.942E-02    0.610E-02
DAV:   6    -0.136642449208E+04   -0.43928E-04   -0.14960E-03  2360   0.702E-02    0.465E-02
DAV:   7    -0.136642449566E+04   -0.35801E-05   -0.62109E-04  2416   0.452E-02    0.353E-02
DAV:   8    -0.136642449073E+04    0.49325E-05   -0.20261E-04  2576   0.280E-02    0.208E-02
DAV:   9    -0.136642448785E+04    0.28813E-05   -0.55448E-05  2376   0.149E-02    0.136E-02
DAV:  10    -0.136642448841E+04   -0.56345E-06   -0.22720E-05  2200   0.916E-03    0.837E-03
DAV:  11    -0.136642448791E+04    0.49899E-06   -0.47128E-06  1232   0.671E-03
  17 F= -.13664245E+04 E0= -.13664245E+04  d E =-.173507E+00
 BRION: g(F)=  0.104E+00 g(S)=  0.000E+00 retain N=  3 mean eig= 3.56
 eig:   4.658  4.658  1.349
 bond charge predicted
       N       E                     dE             d eps       ncg     rms          rms(c)
DAV:   1    -0.136654220827E+04   -0.11772E+00   -0.13712E+01  1368   0.524E+00    0.577E-01
DAV:   2    -0.136661069978E+04   -0.68492E-01   -0.71827E-01  2312   0.205E+00    0.295E-01
DAV:   3    -0.136661455695E+04   -0.38572E-02   -0.54042E-02  2576   0.392E-01    0.233E-01
DAV:   4    -0.136661379864E+04    0.75831E-03   -0.50277E-03  2592   0.163E-01    0.164E-01
DAV:   5    -0.136661306711E+04    0.73154E-03   -0.25675E-03  2360   0.101E-01    0.635E-02
DAV:   6    -0.136661313083E+04   -0.63725E-04   -0.15332E-03  2432   0.708E-02    0.498E-02
DAV:   7    -0.136661312688E+04    0.39533E-05   -0.63613E-04  2472   0.471E-02    0.352E-02
DAV:   8    -0.136661312496E+04    0.19225E-05   -0.23544E-04  2528   0.301E-02    0.230E-02
DAV:   9    -0.136661312245E+04    0.25041E-05   -0.53789E-05  2456   0.153E-02    0.158E-02
DAV:  10    -0.136661312187E+04    0.58119E-06   -0.19879E-05  2208   0.878E-03    0.819E-03
DAV:  11    -0.136661312162E+04    0.24811E-06   -0.22982E-06  1024   0.633E-03
  18 F= -.13666131E+04 E0= -.13666131E+04  d E =-.188634E+00
 BRION: g(F)=  0.101E+00 g(S)=  0.000E+00 retain N=  3 mean eig= 3.66
 eig:   4.804  4.804  1.379
 bond charge predicted
       N       E                     dE             d eps       ncg     rms          rms(c)
DAV:   1    -0.136673883887E+04   -0.12572E+00   -0.18991E+01  1368   0.614E+00    0.675E-01
DAV:   2    -0.136683358106E+04   -0.94742E-01   -0.99310E-01  2296   0.241E+00    0.344E-01
DAV:   3    -0.136683927162E+04   -0.56906E-02   -0.78287E-02  2568   0.452E-01    0.273E-01
DAV:   4    -0.136683828455E+04    0.98707E-03   -0.68699E-03  2600   0.191E-01    0.199E-01
DAV:   5    -0.136683712278E+04    0.11618E-02   -0.32752E-03  2368   0.116E-01    0.851E-02
DAV:   6    -0.136683711093E+04    0.11851E-04   -0.24748E-03  2264   0.926E-02    0.557E-02
DAV:   7    -0.136683714373E+04   -0.32798E-04   -0.13134E-03  2416   0.647E-02    0.483E-02
DAV:   8    -0.136683713234E+04    0.11388E-04   -0.32735E-04  2576   0.373E-02    0.319E-02
DAV:   9    -0.136683712410E+04    0.82413E-05   -0.13210E-04  2528   0.216E-02    0.178E-02
DAV:  10    -0.136683712627E+04   -0.21681E-05   -0.45145E-05  2528   0.130E-02    0.120E-02
DAV:  11    -0.136683712589E+04    0.37751E-06   -0.11136E-05  1672   0.807E-03    0.744E-03
DAV:  12    -0.136683712567E+04    0.22193E-06   -0.13257E-05  1648   0.787E-03    0.599E-03
DAV:  13    -0.136683712532E+04    0.35008E-06   -0.32070E-06  1104   0.549E-03
  19 F= -.13668371E+04 E0= -.13668371E+04  d E =-.224004E+00
 BRION: g(F)=  0.981E-01 g(S)=  0.000E+00 retain N=  3 mean eig= 4.14
 eig:   5.434  5.434  1.550
 bond charge predicted
       N       E                     dE             d eps       ncg     rms          rms(c)
DAV:   1    -0.136696538302E+04   -0.12826E+00   -0.18937E+01  1360   0.614E+00    0.681E-01
DAV:   2    -0.136705988286E+04   -0.94500E-01   -0.99093E-01  2312   0.240E+00    0.348E-01
DAV:   3    -0.136706514506E+04   -0.52622E-02   -0.74446E-02  2584   0.456E-01    0.274E-01
DAV:   4    -0.136706406911E+04    0.10760E-02   -0.70240E-03  2600   0.192E-01    0.191E-01
DAV:   5    -0.136706307287E+04    0.99624E-03   -0.33742E-03  2368   0.118E-01    0.763E-02
DAV:   6    -0.136706313975E+04   -0.66886E-04   -0.21126E-03  2384   0.841E-02    0.569E-02
DAV:   7    -0.136706313979E+04   -0.35492E-07   -0.89995E-04  2456   0.567E-02    0.423E-02
DAV:   8    -0.136706313605E+04    0.37401E-05   -0.33232E-04  2536   0.354E-02    0.275E-02
DAV:   9    -0.136706313233E+04    0.37171E-05   -0.85582E-05  2480   0.187E-02    0.185E-02
DAV:  10    -0.136706313190E+04    0.43397E-06   -0.31880E-05  2424   0.109E-02    0.107E-02
DAV:  11    -0.136706313145E+04    0.44741E-06   -0.81951E-06  1480   0.781E-03
  20 F= -.13670631E+04 E0= -.13670631E+04  d E =-.226006E+00
 BRION: g(F)=  0.953E-01 g(S)=  0.000E+00 retain N=  3 mean eig= 4.63
 eig:   5.965  5.965  1.968
