 running on  160 total cores
 distrk:  each k-point on  160 cores,    1 groups
 distr:  one band on   20 cores,    8 groups
 using from now: INCAR     
 vasp.5.4.4.18Apr17-6-g9f103f2a35 (build May 01 2020 14:22:42) gamma-only       
  
 POSCAR found type information on POSCAR  O  La Zr Li Al
 POSCAR found :  5 types and     190 ions
 scaLAPACK will be used
 LDA part: xc-table for Pade appr. of Perdew
 POSCAR, INCAR and KPOINTS ok, starting setup
 FFT: planning ...
 WAVECAR not read
 WARNING: random wavefunctions but no delay for mixing, default for NELMDL
 entering main loop
       N       E                     dE             d eps       ncg     rms          rms(c)
DAV:   1     0.253562180001E+05    0.25356E+05   -0.42165E+05  1568   0.253E+03
DAV:   2     0.937740117982E+04   -0.15979E+05   -0.14740E+05  1416   0.708E+02
DAV:   3     0.266629299706E+04   -0.67111E+04   -0.61030E+04  1504   0.356E+02
DAV:   4    -0.398935095815E+03   -0.30652E+04   -0.28609E+04  2056   0.220E+02
DAV:   5    -0.142682210716E+04   -0.10279E+04   -0.99274E+03  2520   0.141E+02    0.117E+02
DAV:   6    -0.130501920747E+04    0.12180E+03   -0.14206E+03  2440   0.658E+01    0.503E+01
DAV:   7    -0.132731212908E+04   -0.22293E+02   -0.38224E+02  2560   0.339E+01    0.249E+01
DAV:   8    -0.133540047501E+04   -0.80883E+01   -0.24538E+02  2552   0.266E+01    0.252E+01
DAV:   9    -0.132912957680E+04    0.62709E+01   -0.48958E+01  2504   0.144E+01    0.796E+00
DAV:  10    -0.132995352748E+04   -0.82395E+00   -0.17281E+01  2608   0.792E+00    0.768E+00
DAV:  11    -0.133019349358E+04   -0.23997E+00   -0.44039E+00  2616   0.399E+00    0.506E+00
DAV:  12    -0.133028743053E+04   -0.93937E-01   -0.13993E+00  2600   0.259E+00    0.488E+00
DAV:  13    -0.133017595802E+04    0.11147E+00   -0.21548E+00  2528   0.252E+00    0.297E+00
DAV:  14    -0.133014993281E+04    0.26025E-01   -0.34054E-01  2424   0.135E+00    0.174E+00
DAV:  15    -0.133014287252E+04    0.70603E-02   -0.20566E-01  2376   0.761E-01    0.817E-01
DAV:  16    -0.133014267501E+04    0.19751E-03   -0.36817E-02  2488   0.432E-01    0.659E-01
DAV:  17    -0.133014193661E+04    0.73840E-03   -0.29238E-02  2312   0.283E-01    0.251E-01
DAV:  18    -0.133014162719E+04    0.30941E-03   -0.68122E-03  2536   0.168E-01    0.161E-01
DAV:  19    -0.133014158257E+04    0.44624E-04   -0.27951E-03  2616   0.997E-02    0.689E-02
DAV:  20    -0.133014162597E+04   -0.43400E-04   -0.89480E-04  2528   0.522E-02    0.606E-02
DAV:  21    -0.133014162748E+04   -0.15072E-05   -0.25638E-04  2592   0.323E-02    0.332E-02
DAV:  22    -0.133014163182E+04   -0.43396E-05   -0.11165E-04  2584   0.172E-02    0.104E-02
DAV:  23    -0.133014163601E+04   -0.41957E-05   -0.38530E-05  1928   0.104E-02    0.876E-03
DAV:  24    -0.133014163858E+04   -0.25713E-05   -0.13083E-05  1096   0.698E-03    0.383E-03
DAV:  25    -0.133014163915E+04   -0.56338E-06   -0.13807E-05  1448   0.699E-03    0.481E-03
DAV:  26    -0.133014164003E+04   -0.88270E-06   -0.30570E-06   968   0.535E-03
   1 F= -.13301416E+04 E0= -.13301183E+04  d E =-.133014E+04
 BRION: g(F)=  0.551E+02 g(S)=  0.000E+00
 bond charge predicted
       N       E                     dE             d eps       ncg     rms          rms(c)
DAV:   1    -0.128702435924E+04    0.43117E+02   -0.82820E+03  1720   0.140E+02    0.321E+01
DAV:   2    -0.135268435437E+04   -0.65660E+02   -0.76641E+02  2576   0.625E+01    0.153E+01
DAV:   3    -0.135101849943E+04    0.16659E+01   -0.46318E+01  2624   0.172E+01    0.103E+01
DAV:   4    -0.134840573573E+04    0.26128E+01   -0.14877E+01  2408   0.843E+00    0.481E+00
DAV:   5    -0.134814428215E+04    0.26145E+00   -0.53267E+00  2528   0.524E+00    0.349E+00
DAV:   6    -0.134808270876E+04    0.61573E-01   -0.37245E+00  2576   0.341E+00    0.195E+00
DAV:   7    -0.134804218991E+04    0.40519E-01   -0.59473E-01  2536   0.188E+00    0.919E-01
DAV:   8    -0.134805476841E+04   -0.12578E-01   -0.35170E-01  2624   0.105E+00    0.766E-01
DAV:   9    -0.134805239697E+04    0.23714E-02   -0.53524E-02  2624   0.540E-01    0.541E-01
DAV:  10    -0.134804937753E+04    0.30194E-02   -0.69517E-02  2384   0.457E-01    0.252E-01
DAV:  11    -0.134805063550E+04   -0.12580E-02   -0.19368E-02  2392   0.304E-01    0.253E-01
DAV:  12    -0.134805028172E+04    0.35379E-03   -0.40960E-03  2608   0.125E-01    0.155E-01
DAV:  13    -0.134804999294E+04    0.28878E-03   -0.37222E-03  2504   0.107E-01    0.301E-02
DAV:  14    -0.134805008635E+04   -0.93409E-04   -0.93543E-04  2504   0.620E-02    0.367E-02
DAV:  15    -0.134805009545E+04   -0.91032E-05   -0.13655E-04  2616   0.249E-02    0.373E-02
DAV:  16    -0.134805007465E+04    0.20800E-04   -0.12100E-04  2576   0.198E-02    0.166E-02
DAV:  17    -0.134805007580E+04   -0.11434E-05   -0.44860E-05  2464   0.132E-02    0.623E-03
DAV:  18    -0.134805007605E+04   -0.25325E-06   -0.92026E-06  1672   0.713E-03
   2 F= -.13480501E+04 E0= -.13480501E+04  d E =-.179084E+02
 BRION: g(F)=  0.361E+02 g(S)=  0.000E+00 retain N=  1 mean eig= 0.57
 eig:   0.570
 bond charge predicted
       N       E                     dE             d eps       ncg     rms          rms(c)
DAV:   1    -0.133383157837E+04    0.14218E+02   -0.27171E+03  1416   0.716E+01    0.170E+01
DAV:   2    -0.135556808287E+04   -0.21737E+02   -0.25401E+02  2496   0.330E+01    0.174E+01
DAV:   3    -0.135624673075E+04   -0.67865E+00   -0.18077E+01  2592   0.950E+00    0.140E+01
DAV:   4    -0.135550937563E+04    0.73736E+00   -0.68293E+00  2288   0.511E+00    0.767E+00
DAV:   5    -0.135533699200E+04    0.17238E+00   -0.24932E+00  2288   0.385E+00    0.461E+00
DAV:   6    -0.135509605524E+04    0.24094E+00   -0.42160E+00  2376   0.359E+00    0.138E+00
DAV:   7    -0.135512030757E+04   -0.24252E-01   -0.65319E-01  2384   0.184E+00    0.906E-01
DAV:   8    -0.135512307357E+04   -0.27660E-02   -0.16499E-01  2544   0.761E-01    0.479E-01
DAV:   9    -0.135512504697E+04   -0.19734E-02   -0.28956E-02  2624   0.382E-01    0.372E-01
DAV:  10    -0.135512430661E+04    0.74036E-03   -0.12306E-02  2560   0.238E-01    0.211E-01
DAV:  11    -0.135512450553E+04   -0.19892E-03   -0.11582E-02  2576   0.195E-01    0.137E-01
DAV:  12    -0.135512450604E+04   -0.51012E-06   -0.25640E-03  2592   0.972E-02    0.894E-02
DAV:  13    -0.135512444893E+04    0.57107E-04   -0.93009E-04  2600   0.535E-02    0.373E-02
DAV:  14    -0.135512445898E+04   -0.10050E-04   -0.34302E-04  2616   0.354E-02    0.186E-02
DAV:  15    -0.135512446271E+04   -0.37284E-05   -0.86833E-05  2600   0.188E-02    0.130E-02
DAV:  16    -0.135512446446E+04   -0.17509E-05   -0.36839E-05  2568   0.117E-02    0.101E-02
DAV:  17    -0.135512446483E+04   -0.36730E-06   -0.10764E-05  1816   0.737E-03    0.680E-03
DAV:  18    -0.135512446523E+04   -0.39728E-06   -0.49893E-06  1344   0.494E-03
   3 F= -.13551245E+04 E0= -.13551245E+04  d E =-.707439E+01
 BRION: g(F)=  0.536E+01 g(S)=  0.000E+00 retain N=  2 mean eig= 1.55
 eig:   0.435  2.656
 bond charge predicted
       N       E                     dE             d eps       ncg     rms          rms(c)
DAV:   1    -0.135601356673E+04   -0.88910E+00   -0.35711E+02  1360   0.275E+01    0.603E+00
DAV:   2    -0.135787225076E+04   -0.18587E+01   -0.21766E+01  2368   0.112E+01    0.254E+00
DAV:   3    -0.135791500373E+04   -0.42753E-01   -0.16684E+00  2568   0.271E+00    0.215E+00
DAV:   4    -0.135786256493E+04    0.52439E-01   -0.46228E-01  2528   0.139E+00    0.110E+00
DAV:   5    -0.135785548287E+04    0.70821E-02   -0.15473E-01  2336   0.815E-01    0.707E-01
DAV:   6    -0.135785291251E+04    0.25704E-02   -0.81861E-02  2584   0.552E-01    0.437E-01
DAV:   7    -0.135785272653E+04    0.18598E-03   -0.37025E-02  2496   0.343E-01    0.263E-01
DAV:   8    -0.135785271037E+04    0.16155E-04   -0.94849E-03  2592   0.184E-01    0.152E-01
DAV:   9    -0.135785260080E+04    0.10957E-03   -0.24396E-03  2608   0.106E-01    0.858E-02
DAV:  10    -0.135785269300E+04   -0.92198E-04   -0.17154E-03  2392   0.745E-02    0.801E-02
DAV:  11    -0.135785263434E+04    0.58658E-04   -0.74917E-04  2536   0.515E-02    0.306E-02
DAV:  12    -0.135785264127E+04   -0.69217E-05   -0.23176E-04  2528   0.305E-02    0.178E-02
DAV:  13    -0.135785264461E+04   -0.33479E-05   -0.64053E-05  2552   0.154E-02    0.118E-02
DAV:  14    -0.135785264500E+04   -0.38549E-06   -0.17322E-05  2192   0.835E-03    0.561E-03
DAV:  15    -0.135785264525E+04   -0.25120E-06   -0.75967E-06  1656   0.572E-03
   4 F= -.13578526E+04 E0= -.13578526E+04  d E =-.272818E+01
 BRION: g(F)=  0.170E+01 g(S)=  0.000E+00 retain N=  3 mean eig= 1.28
 eig:   3.250  0.578  0.005
 bond charge predicted
       N       E                     dE             d eps       ncg     rms          rms(c)
DAV:   1    -0.135838890789E+04   -0.53626E+00   -0.16198E+02  1360   0.184E+01    0.332E+00
DAV:   2    -0.135919035559E+04   -0.80145E+00   -0.86608E+00  2288   0.703E+00    0.154E+00
DAV:   3    -0.135922265484E+04   -0.32299E-01   -0.67171E-01  2592   0.149E+00    0.124E+00
DAV:   4    -0.135920314604E+04    0.19509E-01   -0.15092E-01  2544   0.814E-01    0.609E-01
DAV:   5    -0.135920209325E+04    0.10528E-02   -0.50037E-02  2440   0.467E-01    0.396E-01
DAV:   6    -0.135920149687E+04    0.59638E-03   -0.27227E-02  2576   0.308E-01    0.202E-01
DAV:   7    -0.135920142321E+04    0.73664E-04   -0.72637E-03  2512   0.170E-01    0.136E-01
DAV:   8    -0.135920140050E+04    0.22709E-04   -0.22895E-03  2608   0.902E-02    0.731E-02
DAV:   9    -0.135920137275E+04    0.27750E-04   -0.69937E-04  2616   0.554E-02    0.418E-02
DAV:  10    -0.135920139198E+04   -0.19228E-04   -0.32633E-04  2344   0.346E-02    0.344E-02
DAV:  11    -0.135920138504E+04    0.69391E-05   -0.14706E-04  2592   0.227E-02    0.162E-02
DAV:  12    -0.135920138457E+04    0.47365E-06   -0.49524E-05  2480   0.145E-02    0.887E-03
DAV:  13    -0.135920138540E+04   -0.82933E-06   -0.14953E-05  1960   0.827E-03    0.609E-03
DAV:  14    -0.135920138517E+04    0.22285E-06   -0.21163E-06   992   0.518E-03
   5 F= -.13592014E+04 E0= -.13592014E+04  d E =-.134874E+01
 BRION: g(F)=  0.958E+00 g(S)=  0.000E+00 retain N=  4 mean eig= 1.31
 eig:   1.915  1.915  0.708  0.708
 bond charge predicted
       N       E                     dE             d eps       ncg     rms          rms(c)
DAV:   1    -0.135964531749E+04   -0.44393E+00   -0.11674E+02  1376   0.156E+01    0.227E+00
DAV:   2    -0.136022643240E+04   -0.58111E+00   -0.61310E+00  2272   0.587E+00    0.112E+00
DAV:   3    -0.136025461337E+04   -0.28181E-01   -0.47872E-01  2608   0.121E+00    0.890E-01
DAV:   4    -0.136024210711E+04    0.12506E-01   -0.73211E-02  2536   0.606E-01    0.487E-01
DAV:   5    -0.136023967222E+04    0.24349E-02   -0.32585E-02  2456   0.369E-01    0.242E-01
DAV:   6    -0.136024018823E+04   -0.51601E-03   -0.14575E-02  2592   0.231E-01    0.166E-01
DAV:   7    -0.136024006660E+04    0.12163E-03   -0.44301E-03  2528   0.134E-01    0.108E-01
DAV:   8    -0.136024006673E+04   -0.12864E-06   -0.17213E-03  2568   0.774E-02    0.607E-02
DAV:   9    -0.136024003824E+04    0.28489E-04   -0.37375E-04  2624   0.433E-02    0.370E-02
DAV:  10    -0.136024005335E+04   -0.15109E-04   -0.30163E-04  2336   0.301E-02    0.284E-02
DAV:  11    -0.136024004531E+04    0.80341E-05   -0.74310E-05  2528   0.202E-02    0.122E-02
DAV:  12    -0.136024004774E+04   -0.24267E-05   -0.52073E-05  2320   0.124E-02    0.116E-02
DAV:  13    -0.136024004624E+04    0.15014E-05   -0.14189E-05  1880   0.831E-03    0.546E-03
DAV:  14    -0.136024004626E+04   -0.21173E-07   -0.58628E-06  1488   0.563E-03
   6 F= -.13602400E+04 E0= -.13602400E+04  d E =-.103866E+01
 BRION: g(F)=  0.577E+00 g(S)=  0.000E+00 retain N=  5 mean eig= 1.29
 eig:   1.782  1.782  1.083  1.083  0.708
 bond charge predicted
       N       E                     dE             d eps       ncg     rms          rms(c)
DAV:   1    -0.136059411750E+04   -0.35407E+00   -0.62054E+01  1384   0.113E+01    0.167E+00
DAV:   2    -0.136090334486E+04   -0.30923E+00   -0.32804E+00  2272   0.432E+00    0.839E-01
DAV:   3    -0.136092015785E+04   -0.16813E-01   -0.26365E-01  2608   0.901E-01    0.666E-01
DAV:   4    -0.136091426934E+04    0.58885E-02   -0.39991E-02  2552   0.447E-01    0.367E-01
DAV:   5    -0.136091356492E+04    0.70442E-03   -0.17781E-02  2432   0.265E-01    0.191E-01
DAV:   6    -0.136091375074E+04   -0.18583E-03   -0.69544E-03  2592   0.161E-01    0.124E-01
DAV:   7    -0.136091367756E+04    0.73180E-04   -0.26341E-03  2552   0.101E-01    0.780E-02
DAV:   8    -0.136091367659E+04    0.96795E-06   -0.84392E-04  2624   0.572E-02    0.469E-02
DAV:   9    -0.136091366178E+04    0.14815E-04   -0.28159E-04  2616   0.336E-02    0.260E-02
DAV:  10    -0.136091366966E+04   -0.78772E-05   -0.10988E-04  2416   0.201E-02    0.186E-02
DAV:  11    -0.136091366773E+04    0.19266E-05   -0.43641E-05  2456   0.131E-02    0.951E-03
DAV:  12    -0.136091366716E+04    0.56725E-06   -0.12894E-05  1880   0.840E-03    0.633E-03
DAV:  13    -0.136091366743E+04   -0.26816E-06   -0.87422E-06  1744   0.582E-03
   7 F= -.13609137E+04 E0= -.13609137E+04  d E =-.673621E+00
 BRION: g(F)=  0.409E+00 g(S)=  0.000E+00 retain N=  6 mean eig= 1.68
 eig:   2.904  2.904  1.361  1.361  0.777  0.777
 bond charge predicted
       N       E                     dE             d eps       ncg     rms          rms(c)
DAV:   1    -0.136121743629E+04   -0.30377E+00   -0.71904E+01  1360   0.121E+01    0.150E+00
DAV:   2    -0.136157766792E+04   -0.36023E+00   -0.38117E+00  2304   0.471E+00    0.777E-01
DAV:   3    -0.136159686087E+04   -0.19193E-01   -0.29271E-01  2600   0.920E-01    0.625E-01
DAV:   4    -0.136159125456E+04    0.56063E-02   -0.35262E-02  2600   0.426E-01    0.399E-01
DAV:   5    -0.136158811362E+04    0.31409E-02   -0.17166E-02  2344   0.265E-01    0.167E-01
DAV:   6    -0.136158862664E+04   -0.51302E-03   -0.87630E-03  2512   0.184E-01    0.145E-01
DAV:   7    -0.136158849398E+04    0.13266E-03   -0.38150E-03  2488   0.118E-01    0.963E-02
DAV:   8    -0.136158848567E+04    0.83036E-05   -0.18444E-03  2568   0.774E-02    0.530E-02
DAV:   9    -0.136158847223E+04    0.13440E-04   -0.27063E-04  2544   0.373E-02    0.404E-02
DAV:  10    -0.136158846937E+04    0.28651E-05   -0.20026E-04  2400   0.248E-02    0.228E-02
DAV:  11    -0.136158846856E+04    0.80622E-06   -0.66810E-05  2464   0.182E-02    0.104E-02
DAV:  12    -0.136158847005E+04   -0.14931E-05   -0.28881E-05  2312   0.110E-02    0.104E-02
DAV:  13    -0.136158846901E+04    0.10471E-05   -0.11979E-05  1752   0.691E-03    0.507E-03
DAV:  14    -0.136158846886E+04    0.15063E-06   -0.25616E-06  1096   0.503E-03
   8 F= -.13615885E+04 E0= -.13615885E+04  d E =-.674801E+00
 BRION: g(F)=  0.299E+00 g(S)=  0.000E+00 retain N=  7 mean eig= 2.37
 eig:   5.261  5.261  1.673  1.673  0.960  0.960  0.830
 bond charge predicted
       N       E                     dE             d eps       ncg     rms          rms(c)
DAV:   1    -0.136185591919E+04   -0.26745E+00   -0.62195E+01  1368   0.113E+01    0.141E+00
DAV:   2    -0.136217033533E+04   -0.31442E+00   -0.33384E+00  2304   0.434E+00    0.700E-01
DAV:   3    -0.136218858081E+04   -0.18245E-01   -0.26548E-01  2584   0.872E-01    0.568E-01
DAV:   4    -0.136218432280E+04    0.42580E-02   -0.29979E-02  2568   0.398E-01    0.369E-01
DAV:   5    -0.136218183606E+04    0.24867E-02   -0.14833E-02  2344   0.234E-01    0.153E-01
DAV:   6    -0.136218226966E+04   -0.43360E-03   -0.66176E-03  2512   0.159E-01    0.129E-01
DAV:   7    -0.136218216409E+04    0.10557E-03   -0.34284E-03  2528   0.111E-01    0.831E-02
DAV:   8    -0.136218216942E+04   -0.53282E-05   -0.14200E-03  2584   0.710E-02    0.537E-02
DAV:   9    -0.136218215197E+04    0.17448E-04   -0.24481E-04  2528   0.337E-02    0.380E-02
DAV:  10    -0.136218215084E+04    0.11330E-05   -0.16450E-04  2560   0.221E-02    0.195E-02
DAV:  11    -0.136218215082E+04    0.19703E-07   -0.49898E-05  2424   0.153E-02    0.969E-03
DAV:  12    -0.136218215117E+04   -0.35600E-06   -0.19135E-05  2184   0.989E-03    0.801E-03
DAV:  13    -0.136218215094E+04    0.23580E-06   -0.10120E-05  1712   0.620E-03    0.427E-03
DAV:  14    -0.136218215081E+04    0.12519E-06   -0.15520E-06  1008   0.445E-03
   9 F= -.13621822E+04 E0= -.13621822E+04  d E =-.593682E+00
 BRION: g(F)=  0.247E+00 g(S)=  0.000E+00 retain N=  8 mean eig= 2.97
 eig:   7.686  7.686  1.536  1.536  1.763  1.763  0.878  0.878
 bond charge predicted
       N       E                     dE             d eps       ncg     rms          rms(c)
DAV:   1    -0.136241029955E+04   -0.22815E+00   -0.61949E+01  1376   0.112E+01    0.134E+00
DAV:   2    -0.136272308924E+04   -0.31279E+00   -0.33094E+00  2288   0.432E+00    0.668E-01
DAV:   3    -0.136274083882E+04   -0.17750E-01   -0.25861E-01  2576   0.856E-01    0.531E-01
DAV:   4    -0.136273654337E+04    0.42954E-02   -0.28282E-02  2552   0.385E-01    0.346E-01
DAV:   5    -0.136273386024E+04    0.26831E-02   -0.12395E-02  2376   0.225E-01    0.138E-01
DAV:   6    -0.136273420972E+04   -0.34947E-03   -0.65245E-03  2456   0.152E-01    0.103E-01
DAV:   7    -0.136273420378E+04    0.59345E-05   -0.24647E-03  2496   0.973E-02    0.745E-02
DAV:   8    -0.136273420887E+04   -0.50856E-05   -0.11449E-03  2576   0.613E-02    0.450E-02
DAV:   9    -0.136273419840E+04    0.10461E-04   -0.21604E-04  2528   0.324E-02    0.334E-02
DAV:  10    -0.136273419663E+04    0.17761E-05   -0.13315E-04  2592   0.212E-02    0.184E-02
DAV:  11    -0.136273419626E+04    0.36828E-06   -0.44799E-05  2408   0.142E-02    0.867E-03
DAV:  12    -0.136273419663E+04   -0.36869E-06   -0.15597E-05  2008   0.910E-03    0.699E-03
DAV:  13    -0.136273419655E+04    0.79031E-07   -0.90317E-06  1680   0.575E-03
  10 F= -.13627342E+04 E0= -.13627342E+04  d E =-.552046E+00
 BRION: g(F)=  0.215E+00 g(S)=  0.000E+00 retain N=  6 mean eig= 3.43
 eig:   6.968  6.968  2.186  2.186  1.143  1.143
 bond charge predicted
       N       E                     dE             d eps       ncg     rms          rms(c)
DAV:   1    -0.136295246485E+04   -0.21827E+00   -0.37571E+01  1376   0.872E+00    0.101E+00
DAV:   2    -0.136314489599E+04   -0.19243E+00   -0.20390E+00  2280   0.337E+00    0.512E-01
DAV:   3    -0.136315658966E+04   -0.11694E-01   -0.16412E-01  2592   0.679E-01    0.418E-01
DAV:   4    -0.136315445367E+04    0.21360E-02   -0.15843E-02  2608   0.297E-01    0.296E-01
DAV:   5    -0.136315228958E+04    0.21641E-02   -0.72917E-03  2344   0.172E-01    0.124E-01
DAV:   6    -0.136315236909E+04   -0.79509E-04   -0.49859E-03  2400   0.130E-01    0.850E-02
DAV:   7    -0.136315239873E+04   -0.29636E-04   -0.21876E-03  2472   0.879E-02    0.669E-02
DAV:   8    -0.136315238634E+04    0.12386E-04   -0.77512E-04  2592   0.541E-02    0.419E-02
DAV:   9    -0.136315237418E+04    0.12159E-04   -0.19933E-04  2520   0.284E-02    0.268E-02
DAV:  10    -0.136315237616E+04   -0.19826E-05   -0.77622E-05  2576   0.164E-02    0.157E-02
DAV:  11    -0.136315237716E+04   -0.99493E-06   -0.23085E-05  2344   0.107E-02    0.104E-02
DAV:  12    -0.136315237630E+04    0.86348E-06   -0.15669E-05  1984   0.863E-03    0.770E-03
DAV:  13    -0.136315237606E+04    0.23408E-06   -0.10020E-05  1760   0.633E-03    0.424E-03
DAV:  14    -0.136315237584E+04    0.21762E-06   -0.18333E-06   944   0.440E-03
  11 F= -.13631524E+04 E0= -.13631524E+04  d E =-.418179E+00
 BRION: g(F)=  0.199E+00 g(S)=  0.000E+00 retain N=  5 mean eig= 4.02
 eig:   7.593  7.593  1.100  1.917  1.917
 bond charge predicted
       N       E                     dE             d eps       ncg     rms          rms(c)
DAV:   1    -0.136335722175E+04   -0.20485E+00   -0.31406E+01  1384   0.801E+00    0.934E-01
DAV:   2    -0.136351981782E+04   -0.16260E+00   -0.17227E+00  2296   0.312E+00    0.468E-01
DAV:   3    -0.136352951079E+04   -0.96930E-02   -0.13703E-01  2576   0.620E-01    0.379E-01
DAV:   4    -0.136352761814E+04    0.18926E-02   -0.13393E-02  2576   0.273E-01    0.267E-01
DAV:   5    -0.136352578584E+04    0.18323E-02   -0.64307E-03  2328   0.162E-01    0.109E-01
DAV:   6    -0.136352588820E+04   -0.10236E-03   -0.42456E-03  2408   0.121E-01    0.797E-02
DAV:   7    -0.136352590519E+04   -0.16996E-04   -0.18040E-03  2448   0.798E-02    0.609E-02
DAV:   8    -0.136352589573E+04    0.94574E-05   -0.68142E-04  2568   0.501E-02    0.378E-02
DAV:   9    -0.136352588649E+04    0.92420E-05   -0.15604E-04  2496   0.260E-02    0.252E-02
DAV:  10    -0.136352588706E+04   -0.56800E-06   -0.73672E-05  2544   0.156E-02    0.139E-02
DAV:  11    -0.136352588770E+04   -0.64424E-06   -0.20301E-05  2224   0.103E-02    0.846E-03
DAV:  12    -0.136352588747E+04    0.23714E-06   -0.12754E-05  1896   0.774E-03    0.689E-03
DAV:  13    -0.136352588716E+04    0.31118E-06   -0.68242E-06  1608   0.570E-03
  12 F= -.13635259E+04 E0= -.13635259E+04  d E =-.373511E+00
 BRION: g(F)=  0.185E+00 g(S)=  0.000E+00 retain N=  4 mean eig= 4.81
 eig:   7.982  7.982  1.633  1.633
 bond charge predicted
       N       E                     dE             d eps       ncg     rms          rms(c)
DAV:   1    -0.136372556096E+04   -0.19967E+00   -0.37217E+01  1384   0.871E+00    0.102E+00
DAV:   2    -0.136391659319E+04   -0.19103E+00   -0.20232E+00  2288   0.339E+00    0.511E-01
DAV:   3    -0.136392819169E+04   -0.11599E-01   -0.16219E-01  2576   0.676E-01    0.415E-01
DAV:   4    -0.136392599485E+04    0.21968E-02   -0.15883E-02  2592   0.295E-01    0.291E-01
DAV:   5    -0.136392390696E+04    0.20879E-02   -0.77024E-03  2352   0.177E-01    0.117E-01
DAV:   6    -0.136392408368E+04   -0.17672E-03   -0.48838E-03  2432   0.130E-01    0.896E-02
DAV:   7    -0.136392407731E+04    0.63637E-05   -0.20048E-03  2448   0.842E-02    0.653E-02
DAV:   8    -0.136392407001E+04    0.73061E-05   -0.82018E-04  2584   0.545E-02    0.394E-02
DAV:   9    -0.136392406144E+04    0.85646E-05   -0.16664E-04  2520   0.274E-02    0.273E-02
DAV:  10    -0.136392406171E+04   -0.26500E-06   -0.77191E-05  2576   0.160E-02    0.142E-02
DAV:  11    -0.136392406271E+04   -0.10022E-05   -0.22174E-05  2320   0.105E-02    0.903E-03
DAV:  12    -0.136392406219E+04    0.52011E-06   -0.11953E-05  1928   0.792E-03    0.672E-03
DAV:  13    -0.136392406214E+04    0.49782E-07   -0.85486E-06  1728   0.571E-03
  13 F= -.13639241E+04 E0= -.13639241E+04  d E =-.398175E+00
 BRION: g(F)=  0.175E+00 g(S)=  0.000E+00 retain N=  4 mean eig= 4.73
 eig:   7.752  7.752  1.706  1.706
 bond charge predicted
       N       E                     dE             d eps       ncg     rms          rms(c)
DAV:   1    -0.136411269820E+04   -0.18864E+00   -0.28859E+01  1384   0.766E+00    0.907E-01
DAV:   2    -0.136426124504E+04   -0.14855E+00   -0.15678E+00  2288   0.297E+00    0.452E-01
DAV:   3    -0.136427015551E+04   -0.89105E-02   -0.12516E-01  2576   0.587E-01    0.363E-01
DAV:   4    -0.136426822464E+04    0.19309E-02   -0.12447E-02  2584   0.261E-01    0.247E-01
DAV:   5    -0.136426669492E+04    0.15297E-02   -0.60808E-03  2360   0.158E-01    0.952E-02
DAV:   6    -0.136426685672E+04   -0.16180E-03   -0.35446E-03  2464   0.111E-01    0.762E-02
DAV:   7    -0.136426685608E+04    0.64094E-06   -0.13726E-03  2456   0.700E-02    0.543E-02
DAV:   8    -0.136426684733E+04    0.87412E-05   -0.53593E-04  2568   0.443E-02    0.310E-02
DAV:   9    -0.136426684321E+04    0.41242E-05   -0.10840E-04  2496   0.225E-02    0.223E-02
DAV:  10    -0.136426684339E+04   -0.17621E-06   -0.61582E-05  2552   0.141E-02    0.125E-02
DAV:  11    -0.136426684342E+04   -0.35405E-07   -0.18943E-05  2224   0.985E-03    0.687E-03
DAV:  12    -0.136426684353E+04   -0.11086E-06   -0.89314E-06  1760   0.674E-03
  14 F= -.13642668E+04 E0= -.13642668E+04  d E =-.342781E+00
 BRION: g(F)=  0.166E+00 g(S)=  0.000E+00 retain N=  4 mean eig= 4.13
 eig:   6.696  6.696  1.560  1.560
 bond charge predicted
       N       E                     dE             d eps       ncg     rms          rms(c)
DAV:   1    -0.136445522945E+04   -0.18839E+00   -0.29343E+01  1376   0.774E+00    0.904E-01
DAV:   2    -0.136460652561E+04   -0.15130E+00   -0.15990E+00  2296   0.303E+00    0.453E-01
DAV:   3    -0.136461566969E+04   -0.91441E-02   -0.12769E-01  2576   0.596E-01    0.367E-01
DAV:   4    -0.136461392349E+04    0.17462E-02   -0.12394E-02  2600   0.260E-01    0.257E-01
DAV:   5    -0.136461226360E+04    0.16599E-02   -0.59575E-03  2320   0.158E-01    0.103E-01
DAV:   6    -0.136461239455E+04   -0.13095E-03   -0.38680E-03  2416   0.118E-01    0.798E-02
DAV:   7    -0.136461239148E+04    0.30693E-05   -0.16720E-03  2432   0.759E-02    0.584E-02
DAV:   8    -0.136461238336E+04    0.81206E-05   -0.61376E-04  2568   0.479E-02    0.348E-02
DAV:   9    -0.136461237685E+04    0.65121E-05   -0.13584E-04  2464   0.244E-02    0.238E-02
DAV:  10    -0.136461237787E+04   -0.10210E-05   -0.71165E-05  2528   0.151E-02    0.134E-02
DAV:  11    -0.136461237816E+04   -0.29326E-06   -0.22478E-05  2264   0.108E-02    0.836E-03
DAV:  12    -0.136461237785E+04    0.31674E-06   -0.11874E-05  1832   0.791E-03    0.705E-03
DAV:  13    -0.136461237752E+04    0.32727E-06   -0.70911E-06  1552   0.568E-03
  15 F= -.13646124E+04 E0= -.13646124E+04  d E =-.345534E+00
 BRION: g(F)=  0.158E+00 g(S)=  0.000E+00 retain N=  4 mean eig= 3.82
 eig:   6.057  6.057  1.590  1.590
 bond charge predicted
       N       E                     dE             d eps       ncg     rms          rms(c)
DAV:   1    -0.136479572134E+04   -0.18334E+00   -0.30083E+01  1376   0.782E+00    0.912E-01
DAV:   2    -0.136495054685E+04   -0.15483E+00   -0.16378E+00  2288   0.307E+00    0.460E-01
DAV:   3    -0.136495982273E+04   -0.92759E-02   -0.13141E-01  2592   0.605E-01    0.368E-01
DAV:   4    -0.136495780925E+04    0.20135E-02   -0.12772E-02  2600   0.266E-01    0.249E-01
DAV:   5    -0.136495628835E+04    0.15209E-02   -0.60239E-03  2368   0.154E-01    0.993E-02
DAV:   6    -0.136495640647E+04   -0.11812E-03   -0.33653E-03  2448   0.109E-01    0.733E-02
DAV:   7    -0.136495641482E+04   -0.83553E-05   -0.14478E-03  2448   0.716E-02    0.525E-02
DAV:   8    -0.136495641310E+04    0.17216E-05   -0.53846E-04  2592   0.452E-02    0.336E-02
DAV:   9    -0.136495640721E+04    0.58873E-05   -0.11788E-04  2504   0.230E-02    0.236E-02
DAV:  10    -0.136495640733E+04   -0.11832E-06   -0.68780E-05  2576   0.147E-02    0.129E-02
DAV:  11    -0.136495640767E+04   -0.33992E-06   -0.21115E-05  2296   0.102E-02    0.744E-03
DAV:  12    -0.136495640742E+04    0.24572E-06   -0.93678E-06  1840   0.726E-03
  16 F= -.13649564E+04 E0= -.13649564E+04  d E =-.344030E+00
 BRION: g(F)=  0.148E+00 g(S)=  0.000E+00 retain N=  4 mean eig= 4.31
 eig:   7.000  7.000  1.614  1.614
 bond charge predicted
       N       E                     dE             d eps       ncg     rms          rms(c)
DAV:   1    -0.136512921353E+04   -0.17281E+00   -0.26406E+01  1376   0.730E+00    0.842E-01
DAV:   2    -0.136526479243E+04   -0.13558E+00   -0.14274E+00  2296   0.284E+00    0.430E-01
DAV:   3    -0.136527274765E+04   -0.79552E-02   -0.11289E-01  2584   0.549E-01    0.339E-01
DAV:   4    -0.136527093207E+04    0.18156E-02   -0.11093E-02  2584   0.248E-01    0.229E-01
DAV:   5    -0.136526961154E+04    0.13205E-02   -0.50338E-03  2384   0.143E-01    0.897E-02
DAV:   6    -0.136526970784E+04   -0.96302E-04   -0.28502E-03  2448   0.997E-02    0.625E-02
DAV:   7    -0.136526972523E+04   -0.17393E-04   -0.11099E-03  2456   0.631E-02    0.462E-02
DAV:   8    -0.136526972211E+04    0.31166E-05   -0.38502E-04  2592   0.380E-02    0.284E-02
DAV:   9    -0.136526971850E+04    0.36196E-05   -0.97281E-05  2504   0.206E-02    0.194E-02
DAV:  10    -0.136526971915E+04   -0.65655E-06   -0.50924E-05  2568   0.132E-02    0.119E-02
DAV:  11    -0.136526971876E+04    0.39038E-06   -0.17309E-05  2152   0.931E-03    0.608E-03
DAV:  12    -0.136526971886E+04   -0.96828E-07   -0.82153E-06  1744   0.655E-03
  17 F= -.13652697E+04 E0= -.13652697E+04  d E =-.313311E+00
 BRION: g(F)=  0.141E+00 g(S)=  0.000E+00 retain N=  4 mean eig= 4.00
 eig:   6.598  6.598  1.412  1.412
 bond charge predicted
       N       E                     dE             d eps       ncg     rms          rms(c)
DAV:   1    -0.136543316748E+04   -0.16345E+00   -0.23131E+01  1376   0.686E+00    0.817E-01
DAV:   2    -0.136555256366E+04   -0.11940E+00   -0.12623E+00  2288   0.269E+00    0.409E-01
DAV:   3    -0.136555957381E+04   -0.70101E-02   -0.10097E-01  2592   0.529E-01    0.323E-01
DAV:   4    -0.136555785861E+04    0.17152E-02   -0.10210E-02  2584   0.238E-01    0.213E-01
DAV:   5    -0.136555677686E+04    0.10817E-02   -0.47486E-03  2400   0.137E-01    0.816E-02
DAV:   6    -0.136555688709E+04   -0.11023E-03   -0.24010E-03  2472   0.918E-02    0.607E-02
DAV:   7    -0.136555689143E+04   -0.43376E-05   -0.90903E-04  2488   0.580E-02    0.422E-02
DAV:   8    -0.136555689107E+04    0.36041E-06   -0.34093E-04  2576   0.357E-02    0.260E-02
DAV:   9    -0.136555688835E+04    0.27195E-05   -0.72492E-05  2496   0.186E-02    0.189E-02
DAV:  10    -0.136555688836E+04   -0.14479E-07   -0.49352E-05  2512   0.127E-02    0.108E-02
DAV:  11    -0.136555688790E+04    0.45977E-06   -0.15075E-05  2048   0.895E-03    0.499E-03
DAV:  12    -0.136555688814E+04   -0.23734E-06   -0.66865E-06  1624   0.605E-03
  18 F= -.13655569E+04 E0= -.13655569E+04  d E =-.287169E+00
 BRION: g(F)=  0.129E+00 g(S)=  0.000E+00 retain N=  4 mean eig= 4.21
 eig:   7.005  7.005  1.423  1.423
 bond charge predicted
       N       E                     dE             d eps       ncg     rms          rms(c)
DAV:   1    -0.136570989565E+04   -0.15301E+00   -0.17900E+01  1368   0.604E+00    0.715E-01
DAV:   2    -0.136580164299E+04   -0.91747E-01   -0.97389E-01  2296   0.237E+00    0.362E-01
DAV:   3    -0.136580720576E+04   -0.55628E-02   -0.78899E-02  2584   0.462E-01    0.290E-01
DAV:   4    -0.136580599608E+04    0.12097E-02   -0.77829E-03  2592   0.209E-01    0.196E-01
DAV:   5    -0.136580507967E+04    0.91641E-03   -0.41091E-03  2328   0.123E-01    0.775E-02
DAV:   6    -0.136580517550E+04   -0.95827E-04   -0.20483E-03  2472   0.854E-02    0.640E-02
DAV:   7    -0.136580516049E+04    0.15003E-04   -0.93431E-04  2488   0.573E-02    0.411E-02
DAV:   8    -0.136580516066E+04   -0.17119E-06   -0.34345E-04  2552   0.363E-02    0.268E-02
DAV:   9    -0.136580515722E+04    0.34470E-05   -0.65546E-05  2504   0.175E-02    0.191E-02
DAV:  10    -0.136580515684E+04    0.37446E-06   -0.41141E-05  2448   0.113E-02    0.929E-03
DAV:  11    -0.136580515696E+04   -0.11401E-06   -0.10590E-05  1784   0.820E-03    0.526E-03
DAV:  12    -0.136580515731E+04   -0.35716E-06   -0.84048E-06  1584   0.633E-03
  19 F= -.13658052E+04 E0= -.13658052E+04  d E =-.248269E+00
 BRION: g(F)=  0.122E+00 g(S)=  0.000E+00 retain N=  4 mean eig= 4.36
 eig:   7.360  7.360  1.352  1.352
 bond charge predicted
       N       E                     dE             d eps       ncg     rms          rms(c)
DAV:   1    -0.136594721197E+04   -0.14206E+00   -0.15233E+01  1384   0.555E+00    0.660E-01
DAV:   2    -0.136602438715E+04   -0.77175E-01   -0.81442E-01  2304   0.216E+00    0.330E-01
DAV:   3    -0.136602890765E+04   -0.45205E-02   -0.65162E-02  2600   0.417E-01    0.259E-01
DAV:   4    -0.136602772296E+04    0.11847E-02   -0.64512E-03  2584   0.191E-01    0.169E-01
DAV:   5    -0.136602699100E+04    0.73196E-03   -0.32662E-03  2360   0.113E-01    0.631E-02
DAV:   6    -0.136602708227E+04   -0.91267E-04   -0.16536E-03  2496   0.753E-02    0.517E-02
DAV:   7    -0.136602707816E+04    0.41040E-05   -0.57067E-04  2512   0.461E-02    0.349E-02
DAV:   8    -0.136602707516E+04    0.30023E-05   -0.21628E-04  2568   0.282E-02    0.199E-02
DAV:   9    -0.136602707395E+04    0.12113E-05   -0.41092E-05  2504   0.143E-02    0.144E-02
DAV:  10    -0.136602707372E+04    0.23493E-06   -0.27010E-05  2208   0.972E-03    0.814E-03
DAV:  11    -0.136602707326E+04    0.45577E-06   -0.51659E-06  1288   0.699E-03
  20 F= -.13660271E+04 E0= -.13660271E+04  d E =-.221916E+00
 BRION: g(F)=  0.116E+00 g(S)=  0.000E+00 retain N=  4 mean eig= 3.94
 eig:   6.588  6.588  1.292  1.292
