 running on  160 total cores
 distrk:  each k-point on  160 cores,    1 groups
 distr:  one band on   20 cores,    8 groups
 using from now: INCAR     
 vasp.5.4.4.18Apr17-6-g9f103f2a35 (build May 01 2020 14:22:42) gamma-only       
  
 POSCAR found type information on POSCAR  O  La Zr Li Al
 POSCAR found :  5 types and     190 ions
 scaLAPACK will be used
 LDA part: xc-table for Pade appr. of Perdew
 POSCAR, INCAR and KPOINTS ok, starting setup
 FFT: planning ...
 WAVECAR not read
 WARNING: random wavefunctions but no delay for mixing, default for NELMDL
 entering main loop
       N       E                     dE             d eps       ncg     rms          rms(c)
DAV:   1     0.252310237409E+05    0.25231E+05   -0.42353E+05  1600   0.253E+03
DAV:   2     0.940830722691E+04   -0.15823E+05   -0.14622E+05  1440   0.708E+02
DAV:   3     0.269534037713E+04   -0.67130E+04   -0.61180E+04  1496   0.355E+02
DAV:   4    -0.382456421438E+03   -0.30778E+04   -0.28671E+04  2040   0.223E+02
DAV:   5    -0.142407260765E+04   -0.10416E+04   -0.10057E+04  2528   0.142E+02    0.117E+02
DAV:   6    -0.131100293731E+04    0.11307E+03   -0.14455E+03  2424   0.653E+01    0.502E+01
DAV:   7    -0.133371092669E+04   -0.22708E+02   -0.38394E+02  2552   0.335E+01    0.248E+01
DAV:   8    -0.134547637751E+04   -0.11765E+02   -0.29510E+02  2512   0.276E+01    0.285E+01
DAV:   9    -0.133528776666E+04    0.10189E+02   -0.70465E+01  2440   0.161E+01    0.778E+00
DAV:  10    -0.133671370465E+04   -0.14259E+01   -0.15714E+01  2616   0.878E+00    0.852E+00
DAV:  11    -0.133669259110E+04    0.21114E-01   -0.83914E+00  2624   0.493E+00    0.413E+00
DAV:  12    -0.133656409332E+04    0.12850E+00   -0.28466E+00  2576   0.376E+00    0.279E+00
DAV:  13    -0.133664516139E+04   -0.81068E-01   -0.85012E-01  2560   0.183E+00    0.203E+00
DAV:  14    -0.133662527724E+04    0.19884E-01   -0.31894E-01  2624   0.112E+00    0.124E+00
DAV:  15    -0.133663505708E+04   -0.97798E-02   -0.11056E-01  2560   0.662E-01    0.110E+00
DAV:  16    -0.133663618683E+04   -0.11298E-02   -0.46269E-02  2624   0.392E-01    0.756E-01
DAV:  17    -0.133663103065E+04    0.51562E-02   -0.27144E-02  2464   0.344E-01    0.347E-01
DAV:  18    -0.133663129376E+04   -0.26311E-03   -0.67332E-03  2544   0.167E-01    0.198E-01
DAV:  19    -0.133663108135E+04    0.21240E-03   -0.30194E-03  2504   0.104E-01    0.126E-01
DAV:  20    -0.133663112211E+04   -0.40752E-04   -0.62521E-04  2600   0.545E-02    0.459E-02
DAV:  21    -0.133663113080E+04   -0.86889E-05   -0.18514E-04  2624   0.269E-02    0.384E-02
DAV:  22    -0.133663114440E+04   -0.13605E-04   -0.57444E-05  2504   0.170E-02    0.112E-02
DAV:  23    -0.133663114465E+04   -0.24657E-06   -0.15142E-05  1736   0.850E-03    0.662E-03
DAV:  24    -0.133663114646E+04   -0.18169E-05   -0.80044E-06  1312   0.654E-03    0.270E-03
DAV:  25    -0.133663114706E+04   -0.59466E-06   -0.24814E-06  1024   0.468E-03
   1 F= -.13366311E+04 E0= -.13366311E+04  d E =-.133663E+04
 BRION: g(F)=  0.453E+02 g(S)=  0.000E+00
 bond charge predicted
       N       E                     dE             d eps       ncg     rms          rms(c)
DAV:   1    -0.131887231630E+04    0.17759E+02   -0.50921E+03  1520   0.105E+02    0.199E+01
DAV:   2    -0.135331571219E+04   -0.34443E+02   -0.39655E+02  2576   0.456E+01    0.113E+01
DAV:   3    -0.135238753068E+04    0.92818E+00   -0.22860E+01  2584   0.121E+01    0.778E+00
DAV:   4    -0.135108963596E+04    0.12979E+01   -0.66553E+00  2464   0.535E+00    0.397E+00
DAV:   5    -0.135084485563E+04    0.24478E+00   -0.19634E+00  2520   0.324E+00    0.238E+00
DAV:   6    -0.135079192507E+04    0.52931E-01   -0.16547E+00  2600   0.249E+00    0.116E+00
DAV:   7    -0.135080550773E+04   -0.13583E-01   -0.39742E-01  2528   0.136E+00    0.104E+00
DAV:   8    -0.135079982102E+04    0.56867E-02   -0.16283E-01  2616   0.687E-01    0.455E-01
DAV:   9    -0.135079971590E+04    0.10512E-03   -0.30673E-02  2616   0.393E-01    0.288E-01
DAV:  10    -0.135079896795E+04    0.74795E-03   -0.11180E-02  2576   0.243E-01    0.151E-01
DAV:  11    -0.135079950657E+04   -0.53862E-03   -0.93232E-03  2600   0.178E-01    0.129E-01
DAV:  12    -0.135079949738E+04    0.91892E-05   -0.15694E-03  2592   0.803E-02    0.783E-02
DAV:  13    -0.135079942595E+04    0.71434E-04   -0.83335E-04  2608   0.559E-02    0.214E-02
DAV:  14    -0.135079944467E+04   -0.18719E-04   -0.24308E-04  2584   0.324E-02    0.121E-02
DAV:  15    -0.135079945139E+04   -0.67247E-05   -0.58512E-05  2624   0.165E-02    0.113E-02
DAV:  16    -0.135079945077E+04    0.62006E-06   -0.13251E-05  1856   0.892E-03    0.917E-03
DAV:  17    -0.135079945116E+04   -0.38568E-06   -0.19821E-05  1960   0.820E-03    0.476E-03
DAV:  18    -0.135079945122E+04   -0.66517E-07   -0.19208E-06  1040   0.502E-03
   2 F= -.13507995E+04 E0= -.13507995E+04  d E =-.141683E+02
 BRION: g(F)=  0.888E+02 g(S)=  0.000E+00 retain N=  1 mean eig= 0.38
 eig:   0.377
 bond charge predicted
       N       E                     dE             d eps       ncg     rms          rms(c)
DAV:   1    -0.134011187733E+04    0.10688E+02   -0.14945E+03  1320   0.459E+01    0.166E+01
DAV:   2    -0.135979520404E+04   -0.19683E+02   -0.25989E+02  2552   0.249E+01    0.147E+01
DAV:   3    -0.135728167387E+04    0.25135E+01   -0.27392E+01  2496   0.889E+00    0.103E+01
DAV:   4    -0.135548591316E+04    0.17958E+01   -0.16567E+01  2192   0.443E+00    0.336E+00
DAV:   5    -0.135566151657E+04   -0.17560E+00   -0.32360E+00  2464   0.298E+00    0.345E+00
DAV:   6    -0.135546352205E+04    0.19799E+00   -0.19289E+00  2496   0.215E+00    0.899E-01
DAV:   7    -0.135549806858E+04   -0.34547E-01   -0.45330E-01  2480   0.131E+00    0.122E+00
DAV:   8    -0.135548038312E+04    0.17685E-01   -0.11936E-01  2616   0.629E-01    0.721E-01
DAV:   9    -0.135547556539E+04    0.48177E-02   -0.54643E-02  2480   0.384E-01    0.273E-01
DAV:  10    -0.135547586161E+04   -0.29622E-03   -0.12138E-02  2576   0.203E-01    0.123E-01
DAV:  11    -0.135547592393E+04   -0.62318E-04   -0.44480E-03  2560   0.122E-01    0.796E-02
DAV:  12    -0.135547595431E+04   -0.30382E-04   -0.14142E-03  2568   0.718E-02    0.575E-02
DAV:  13    -0.135547594440E+04    0.99096E-05   -0.37162E-04  2616   0.369E-02    0.320E-02
DAV:  14    -0.135547593668E+04    0.77217E-05   -0.14700E-04  2544   0.229E-02    0.115E-02
DAV:  15    -0.135547594278E+04   -0.61004E-05   -0.59100E-05  2528   0.153E-02    0.110E-02
DAV:  16    -0.135547594147E+04    0.13098E-05   -0.76077E-06  1656   0.723E-03    0.784E-03
DAV:  17    -0.135547594110E+04    0.37030E-06   -0.12241E-05  1736   0.600E-03    0.195E-03
DAV:  18    -0.135547594118E+04   -0.81796E-07   -0.14144E-06  1072   0.396E-03
   3 F= -.13554759E+04 E0= -.13554759E+04  d E =-.467649E+01
 BRION: g(F)=  0.192E+02 g(S)=  0.000E+00 retain N=  2 mean eig= 1.22
 eig:   0.180  2.260
 bond charge predicted
       N       E                     dE             d eps       ncg     rms          rms(c)
DAV:   1    -0.135415647715E+04    0.13195E+01   -0.63486E+02  1360   0.291E+01    0.772E+00
DAV:   2    -0.135867722492E+04   -0.45207E+01   -0.54599E+01  2432   0.145E+01    0.472E+00
DAV:   3    -0.135850008490E+04    0.17714E+00   -0.37637E+00  2456   0.468E+00    0.386E+00
DAV:   4    -0.135828822122E+04    0.21186E+00   -0.23238E+00  2176   0.228E+00    0.168E+00
DAV:   5    -0.135830363208E+04   -0.15411E-01   -0.58785E-01  2488   0.147E+00    0.191E+00
DAV:   6    -0.135824479788E+04    0.58834E-01   -0.43068E-01  2440   0.126E+00    0.755E-01
DAV:   7    -0.135825054418E+04   -0.57463E-02   -0.22161E-01  2416   0.768E-01    0.675E-01
DAV:   8    -0.135824933747E+04    0.12067E-02   -0.39516E-02  2512   0.356E-01    0.530E-01
DAV:   9    -0.135824457832E+04    0.47592E-02   -0.17921E-02  2424   0.235E-01    0.241E-01
DAV:  10    -0.135824527442E+04   -0.69610E-03   -0.22252E-02  2408   0.214E-01    0.172E-01
DAV:  11    -0.135824477007E+04    0.50435E-03   -0.33086E-03  2520   0.117E-01    0.675E-02
DAV:  12    -0.135824481992E+04   -0.49851E-04   -0.12238E-03  2496   0.587E-02    0.235E-02
DAV:  13    -0.135824483125E+04   -0.11326E-04   -0.11784E-04  2600   0.238E-02    0.130E-02
DAV:  14    -0.135824483373E+04   -0.24818E-05   -0.25115E-05  2336   0.103E-02    0.971E-03
DAV:  15    -0.135824483354E+04    0.19131E-06   -0.14527E-05  2032   0.711E-03    0.363E-03
DAV:  16    -0.135824483356E+04   -0.23283E-07   -0.24726E-06  1144   0.440E-03
   4 F= -.13582448E+04 E0= -.13582448E+04  d E =-.276889E+01
 BRION: g(F)=  0.538E+01 g(S)=  0.000E+00 retain N=  3 mean eig= 2.61
 eig:   7.105  0.358  0.358
 bond charge predicted
       N       E                     dE             d eps       ncg     rms          rms(c)
DAV:   1    -0.135969146048E+04   -0.14466E+01   -0.21911E+02  1376   0.208E+01    0.369E+00
DAV:   2    -0.136080650599E+04   -0.11150E+01   -0.12062E+01  2288   0.786E+00    0.181E+00
DAV:   3    -0.136082898682E+04   -0.22481E-01   -0.89712E-01  2624   0.171E+00    0.152E+00
DAV:   4    -0.136079154325E+04    0.37444E-01   -0.22967E-01  2536   0.954E-01    0.745E-01
DAV:   5    -0.136078718449E+04    0.43588E-02   -0.71519E-02  2392   0.580E-01    0.467E-01
DAV:   6    -0.136078704436E+04    0.14013E-03   -0.51375E-02  2552   0.407E-01    0.262E-01
DAV:   7    -0.136078678568E+04    0.25869E-03   -0.13349E-02  2368   0.219E-01    0.206E-01
DAV:   8    -0.136078665106E+04    0.13461E-03   -0.48554E-03  2416   0.121E-01    0.107E-01
DAV:   9    -0.136078656715E+04    0.83909E-04   -0.15664E-03  2576   0.740E-02    0.604E-02
DAV:  10    -0.136078663885E+04   -0.71700E-04   -0.10109E-03  2456   0.546E-02    0.725E-02
DAV:  11    -0.136078657642E+04    0.62432E-04   -0.43026E-04  2528   0.390E-02    0.285E-02
DAV:  12    -0.136078657883E+04   -0.24091E-05   -0.18356E-04  2504   0.251E-02    0.162E-02
DAV:  13    -0.136078658038E+04   -0.15536E-05   -0.39414E-05  2416   0.126E-02    0.976E-03
DAV:  14    -0.136078658021E+04    0.17062E-06   -0.93529E-06  1696   0.619E-03
   5 F= -.13607866E+04 E0= -.13607866E+04  d E =-.254175E+01
 BRION: g(F)=  0.246E+01 g(S)=  0.000E+00 retain N=  4 mean eig= 2.05
 eig:   7.013  0.059  0.558  0.558
 bond charge predicted
       N       E                     dE             d eps       ncg     rms          rms(c)
DAV:   1    -0.136139498204E+04   -0.60840E+00   -0.19019E+02  1352   0.189E+01    0.280E+00
DAV:   2    -0.136231055485E+04   -0.91557E+00   -0.96865E+00  2272   0.704E+00    0.143E+00
DAV:   3    -0.136233630165E+04   -0.25747E-01   -0.66461E-01  2592   0.144E+00    0.120E+00
DAV:   4    -0.136231005887E+04    0.26243E-01   -0.12134E-01  2544   0.726E-01    0.675E-01
DAV:   5    -0.136230255163E+04    0.75072E-02   -0.63687E-02  2384   0.482E-01    0.348E-01
DAV:   6    -0.136230340300E+04   -0.85137E-03   -0.27359E-02  2560   0.317E-01    0.259E-01
DAV:   7    -0.136230282937E+04    0.57362E-03   -0.12136E-02  2480   0.202E-01    0.151E-01
DAV:   8    -0.136230284833E+04   -0.18958E-04   -0.35385E-03  2600   0.111E-01    0.825E-02
DAV:   9    -0.136230279879E+04    0.49542E-04   -0.86729E-04  2624   0.594E-02    0.537E-02
DAV:  10    -0.136230283820E+04   -0.39413E-04   -0.57913E-04  2264   0.400E-02    0.471E-02
DAV:  11    -0.136230280377E+04    0.34430E-04   -0.19982E-04  2512   0.300E-02    0.175E-02
DAV:  12    -0.136230281067E+04   -0.68957E-05   -0.13754E-04  2424   0.201E-02    0.161E-02
DAV:  13    -0.136230280750E+04    0.31685E-05   -0.30278E-05  2136   0.118E-02    0.708E-03
DAV:  14    -0.136230280788E+04   -0.37954E-06   -0.12031E-05  1768   0.692E-03    0.295E-03
DAV:  15    -0.136230280795E+04   -0.70591E-07   -0.12844E-06  1024   0.393E-03
   6 F= -.13623028E+04 E0= -.13623028E+04  d E =-.151623E+01
 BRION: g(F)=  0.156E+01 g(S)=  0.000E+00 retain N=  5 mean eig= 2.00
 eig:   6.839  0.788  0.927  0.927  0.505
 bond charge predicted
       N       E                     dE             d eps       ncg     rms          rms(c)
DAV:   1    -0.136230576639E+04   -0.29585E-02   -0.30440E+02  1344   0.239E+01    0.321E+00
DAV:   2    -0.136378501761E+04   -0.14793E+01   -0.15414E+01  2304   0.891E+00    0.171E+00
DAV:   3    -0.136382172384E+04   -0.36706E-01   -0.98291E-01  2592   0.175E+00    0.141E+00
DAV:   4    -0.136378166714E+04    0.40057E-01   -0.18595E-01  2512   0.855E-01    0.772E-01
DAV:   5    -0.136376855541E+04    0.13112E-01   -0.86316E-02  2448   0.569E-01    0.393E-01
DAV:   6    -0.136376939006E+04   -0.83465E-03   -0.35857E-02  2560   0.366E-01    0.292E-01
DAV:   7    -0.136376864001E+04    0.75005E-03   -0.13225E-02  2488   0.219E-01    0.170E-01
DAV:   8    -0.136376873495E+04   -0.94941E-04   -0.58533E-03  2520   0.129E-01    0.867E-02
DAV:   9    -0.136376866074E+04    0.74215E-04   -0.88303E-04  2560   0.639E-02    0.599E-02
DAV:  10    -0.136376866601E+04   -0.52719E-05   -0.66299E-04  2336   0.450E-02    0.412E-02
DAV:  11    -0.136376865404E+04    0.11973E-04   -0.27303E-04  2528   0.333E-02    0.163E-02
DAV:  12    -0.136376865834E+04   -0.43000E-05   -0.91710E-05  2440   0.191E-02    0.132E-02
DAV:  13    -0.136376865811E+04    0.22755E-06   -0.30697E-05  2200   0.107E-02    0.786E-03
DAV:  14    -0.136376865783E+04    0.27484E-06   -0.98735E-06  1728   0.672E-03
   7 F= -.13637687E+04 E0= -.13637687E+04  d E =-.146585E+01
 BRION: g(F)=  0.118E+01 g(S)=  0.000E+00 retain N=  6 mean eig= 2.02
 eig:   7.902  1.512  1.512  0.790  0.200  0.200
 bond charge predicted
       N       E                     dE             d eps       ncg     rms          rms(c)
DAV:   1    -0.136401945945E+04   -0.25080E+00   -0.88013E+01  1368   0.130E+01    0.169E+00
DAV:   2    -0.136444796273E+04   -0.42850E+00   -0.45276E+00  2288   0.490E+00    0.919E-01
DAV:   3    -0.136446365100E+04   -0.15688E-01   -0.32959E-01  2600   0.973E-01    0.722E-01
DAV:   4    -0.136445310990E+04    0.10541E-01   -0.45702E-02  2520   0.463E-01    0.406E-01
DAV:   5    -0.136444947716E+04    0.36327E-02   -0.22081E-02  2328   0.295E-01    0.174E-01
DAV:   6    -0.136445001060E+04   -0.53343E-03   -0.10627E-02  2488   0.195E-01    0.140E-01
DAV:   7    -0.136444993345E+04    0.77149E-04   -0.32990E-03  2336   0.112E-01    0.100E-01
DAV:   8    -0.136444990947E+04    0.23975E-04   -0.15175E-03  2432   0.667E-02    0.531E-02
DAV:   9    -0.136444989038E+04    0.19093E-04   -0.26873E-04  2472   0.365E-02    0.382E-02
DAV:  10    -0.136444989788E+04   -0.74972E-05   -0.35788E-04  2280   0.320E-02    0.315E-02
DAV:  11    -0.136444988653E+04    0.11351E-04   -0.10933E-04  2408   0.233E-02    0.131E-02
DAV:  12    -0.136444988985E+04   -0.33230E-05   -0.61879E-05  2288   0.135E-02    0.111E-02
DAV:  13    -0.136444988833E+04    0.15218E-05   -0.11894E-05  1792   0.781E-03    0.475E-03
DAV:  14    -0.136444988842E+04   -0.90236E-07   -0.40028E-06  1264   0.530E-03
   8 F= -.13644499E+04 E0= -.13644499E+04  d E =-.681231E+00
 BRION: g(F)=  0.337E+00 g(S)=  0.000E+00 retain N=  6 mean eig= 1.71
 eig:   6.554  0.819  1.105  1.105  0.133  0.526
 bond charge predicted
       N       E                     dE             d eps       ncg     rms          rms(c)
DAV:   1    -0.136444163016E+04    0.82582E-02   -0.11797E+02  1368   0.154E+01    0.179E+00
DAV:   2    -0.136501878244E+04   -0.57715E+00   -0.60303E+00  2296   0.586E+00    0.916E-01
DAV:   3    -0.136504866450E+04   -0.29882E-01   -0.44460E-01  2592   0.110E+00    0.726E-01
DAV:   4    -0.136504027584E+04    0.83887E-02   -0.44378E-02  2576   0.488E-01    0.478E-01
DAV:   5    -0.136503463634E+04    0.56395E-02   -0.21930E-02  2320   0.316E-01    0.185E-01
DAV:   6    -0.136503533758E+04   -0.70124E-03   -0.14071E-02  2448   0.228E-01    0.151E-01
DAV:   7    -0.136503535028E+04   -0.12707E-04   -0.49261E-03  2456   0.135E-01    0.114E-01
DAV:   8    -0.136503530638E+04    0.43902E-04   -0.19846E-03  2584   0.827E-02    0.596E-02
DAV:   9    -0.136503527532E+04    0.31060E-04   -0.44522E-04  2376   0.450E-02    0.404E-02
DAV:  10    -0.136503528119E+04   -0.58710E-05   -0.26640E-04  2424   0.307E-02    0.257E-02
DAV:  11    -0.136503527674E+04    0.44475E-05   -0.80871E-05  2432   0.206E-02    0.122E-02
DAV:  12    -0.136503528012E+04   -0.33714E-05   -0.50158E-05  2352   0.132E-02    0.132E-02
DAV:  13    -0.136503527787E+04    0.22476E-05   -0.16844E-05  1840   0.835E-03    0.599E-03
DAV:  14    -0.136503527792E+04   -0.56083E-07   -0.75113E-06  1600   0.597E-03
   9 F= -.13650353E+04 E0= -.13650353E+04  d E =-.585390E+00
 BRION: g(F)=  0.468E+00 g(S)=  0.000E+00 retain N=  7 mean eig= 2.06
 eig:   7.070  3.629  1.365  1.365  0.284  0.284  0.431
 bond charge predicted
       N       E                     dE             d eps       ncg     rms          rms(c)
DAV:   1    -0.136511895427E+04   -0.83676E-01   -0.76502E+01  1376   0.124E+01    0.144E+00
DAV:   2    -0.136550234445E+04   -0.38339E+00   -0.40304E+00  2288   0.482E+00    0.742E-01
DAV:   3    -0.136552397758E+04   -0.21633E-01   -0.31135E-01  2608   0.896E-01    0.589E-01
DAV:   4    -0.136551875507E+04    0.52225E-02   -0.29596E-02  2576   0.401E-01    0.387E-01
DAV:   5    -0.136551552928E+04    0.32258E-02   -0.14787E-02  2328   0.239E-01    0.147E-01
DAV:   6    -0.136551602034E+04   -0.49106E-03   -0.75978E-03  2448   0.160E-01    0.116E-01
DAV:   7    -0.136551600998E+04    0.10355E-04   -0.30444E-03  2512   0.104E-01    0.798E-02
DAV:   8    -0.136551600158E+04    0.84021E-05   -0.11131E-03  2608   0.648E-02    0.484E-02
DAV:   9    -0.136551598645E+04    0.15133E-04   -0.24892E-04  2440   0.332E-02    0.346E-02
DAV:  10    -0.136551598892E+04   -0.24760E-05   -0.17542E-04  2504   0.236E-02    0.191E-02
DAV:  11    -0.136551598781E+04    0.11154E-05   -0.51705E-05  2376   0.160E-02    0.898E-03
DAV:  12    -0.136551598892E+04   -0.11135E-05   -0.22663E-05  2240   0.102E-02    0.863E-03
DAV:  13    -0.136551598812E+04    0.80482E-06   -0.80912E-06  1624   0.616E-03
  10 F= -.13655160E+04 E0= -.13655160E+04  d E =-.480710E+00
 BRION: g(F)=  0.190E+00 g(S)=  0.000E+00 retain N=  7 mean eig= 1.63
 eig:   4.030  2.219  2.219  1.073  0.760  0.760  0.345
 bond charge predicted
       N       E                     dE             d eps       ncg     rms          rms(c)
DAV:   1    -0.136555615548E+04   -0.40167E-01   -0.63347E+01  1376   0.114E+01    0.130E+00
DAV:   2    -0.136587648574E+04   -0.32033E+00   -0.33690E+00  2312   0.444E+00    0.668E-01
DAV:   3    -0.136589422731E+04   -0.17742E-01   -0.25464E-01  2592   0.848E-01    0.524E-01
DAV:   4    -0.136589013936E+04    0.40879E-02   -0.24886E-02  2592   0.371E-01    0.354E-01
DAV:   5    -0.136588732855E+04    0.28108E-02   -0.11618E-02  2400   0.227E-01    0.141E-01
DAV:   6    -0.136588759430E+04   -0.26575E-03   -0.73879E-03  2440   0.169E-01    0.104E-01
DAV:   7    -0.136588766063E+04   -0.66330E-04   -0.32652E-03  2416   0.107E-01    0.813E-02
DAV:   8    -0.136588764639E+04    0.14235E-04   -0.10585E-03  2608   0.624E-02    0.455E-02
DAV:   9    -0.136588763212E+04    0.14268E-04   -0.26597E-04  2560   0.343E-02    0.305E-02
DAV:  10    -0.136588763611E+04   -0.39874E-05   -0.16011E-04  2536   0.240E-02    0.206E-02
DAV:  11    -0.136588763369E+04    0.24180E-05   -0.61864E-05  2392   0.169E-02    0.937E-03
DAV:  12    -0.136588763447E+04   -0.77815E-06   -0.23310E-05  2232   0.108E-02    0.901E-03
DAV:  13    -0.136588763375E+04    0.71828E-06   -0.11436E-05  1744   0.676E-03    0.475E-03
DAV:  14    -0.136588763350E+04    0.25560E-06   -0.24251E-06  1016   0.521E-03
  11 F= -.13658876E+04 E0= -.13658876E+04  d E =-.371645E+00
 BRION: g(F)=  0.143E+00 g(S)=  0.000E+00 retain N=  8 mean eig= 2.08
 eig:   4.102  4.234  4.234  0.843  0.923  0.923  0.994  0.380
 bond charge predicted
       N       E                     dE             d eps       ncg     rms          rms(c)
DAV:   1    -0.136592669334E+04   -0.39060E-01   -0.47720E+01  1376   0.986E+00    0.111E+00
DAV:   2    -0.136616776453E+04   -0.24107E+00   -0.25404E+00  2304   0.386E+00    0.559E-01
DAV:   3    -0.136618258126E+04   -0.14817E-01   -0.19912E-01  2592   0.721E-01    0.453E-01
DAV:   4    -0.136618025046E+04    0.23308E-02   -0.17204E-02  2608   0.309E-01    0.325E-01
DAV:   5    -0.136617786397E+04    0.23865E-02   -0.86336E-03  2352   0.186E-01    0.134E-01
DAV:   6    -0.136617805151E+04   -0.18754E-03   -0.57421E-03  2336   0.140E-01    0.978E-02
DAV:   7    -0.136617806695E+04   -0.15442E-04   -0.27362E-03  2480   0.956E-02    0.717E-02
DAV:   8    -0.136617805283E+04    0.14122E-04   -0.89733E-04  2568   0.601E-02    0.457E-02
DAV:   9    -0.136617803703E+04    0.15796E-04   -0.24288E-04  2464   0.315E-02    0.301E-02
DAV:  10    -0.136617803927E+04   -0.22387E-05   -0.10906E-04  2504   0.190E-02    0.172E-02
DAV:  11    -0.136617804070E+04   -0.14280E-05   -0.35181E-05  2392   0.128E-02    0.119E-02
DAV:  12    -0.136617803951E+04    0.11901E-05   -0.19942E-05  2176   0.970E-03    0.920E-03
DAV:  13    -0.136617803899E+04    0.51704E-06   -0.12208E-05  1760   0.674E-03    0.482E-03
DAV:  14    -0.136617803869E+04    0.30163E-06   -0.21599E-06   984   0.469E-03
  12 F= -.13661780E+04 E0= -.13661780E+04  d E =-.290405E+00
 BRION: g(F)=  0.116E+00 g(S)=  0.000E+00 retain N=  5 mean eig= 3.58
 eig:   7.880  7.880  0.063  1.046  1.046
 bond charge predicted
       N       E                     dE             d eps       ncg     rms          rms(c)
DAV:   1    -0.136609719903E+04    0.80840E-01   -0.80631E+01  1376   0.129E+01    0.142E+00
DAV:   2    -0.136651165045E+04   -0.41445E+00   -0.43594E+00  2304   0.508E+00    0.721E-01
DAV:   3    -0.136653665186E+04   -0.25001E-01   -0.33754E-01  2592   0.943E-01    0.576E-01
DAV:   4    -0.136653284240E+04    0.38095E-02   -0.28468E-02  2592   0.404E-01    0.426E-01
DAV:   5    -0.136652850266E+04    0.43397E-02   -0.13225E-02  2392   0.234E-01    0.192E-01
DAV:   6    -0.136652834463E+04    0.15803E-03   -0.10411E-02  2304   0.193E-01    0.112E-01
DAV:   7    -0.136652856709E+04   -0.22246E-03   -0.58695E-03  2512   0.135E-01    0.101E-01
DAV:   8    -0.136652852597E+04    0.41118E-04   -0.13481E-03  2576   0.780E-02    0.686E-02
DAV:   9    -0.136652847987E+04    0.46099E-04   -0.52834E-04  2512   0.430E-02    0.374E-02
DAV:  10    -0.136652849091E+04   -0.11031E-04   -0.22453E-04  2504   0.279E-02    0.230E-02
DAV:  11    -0.136652849402E+04   -0.31154E-05   -0.64722E-05  2440   0.172E-02    0.169E-02
DAV:  12    -0.136652849031E+04    0.37156E-05   -0.48188E-05  2248   0.146E-02    0.130E-02
DAV:  13    -0.136652848956E+04    0.74301E-06   -0.28351E-05  2232   0.997E-03    0.816E-03
DAV:  14    -0.136652848911E+04    0.45732E-06   -0.66885E-06  1568   0.556E-03
  13 F= -.13665285E+04 E0= -.13665285E+04  d E =-.350450E+00
 BRION: g(F)=  0.950E-01 g(S)=  0.000E+00 retain N=  2 mean eig= 4.28
 eig:   4.276  4.276
 bond charge predicted
       N       E                     dE             d eps       ncg     rms          rms(c)
DAV:   1    -0.136653203019E+04   -0.35406E-02   -0.47475E+01  1368   0.986E+00    0.109E+00
DAV:   2    -0.136677259106E+04   -0.24056E+00   -0.25373E+00  2304   0.385E+00    0.557E-01
DAV:   3    -0.136678726128E+04   -0.14670E-01   -0.19867E-01  2600   0.726E-01    0.449E-01
DAV:   4    -0.136678499870E+04    0.22626E-02   -0.16551E-02  2608   0.306E-01    0.331E-01
DAV:   5    -0.136678224938E+04    0.27493E-02   -0.82275E-03  2312   0.185E-01    0.140E-01
DAV:   6    -0.136678232062E+04   -0.71234E-04   -0.64612E-03  2312   0.148E-01    0.933E-02
DAV:   7    -0.136678238371E+04   -0.63090E-04   -0.29939E-03  2480   0.977E-02    0.737E-02
DAV:   8    -0.136678236201E+04    0.21698E-04   -0.83321E-04  2584   0.601E-02    0.457E-02
DAV:   9    -0.136678234669E+04    0.15323E-04   -0.27495E-04  2504   0.321E-02    0.275E-02
DAV:  10    -0.136678235184E+04   -0.51515E-05   -0.91662E-05  2544   0.191E-02    0.178E-02
DAV:  11    -0.136678235221E+04   -0.37217E-06   -0.33446E-05  2384   0.124E-02    0.114E-02
DAV:  12    -0.136678235133E+04    0.87630E-06   -0.20205E-05  2128   0.958E-03    0.905E-03
DAV:  13    -0.136678235086E+04    0.47729E-06   -0.11459E-05  1760   0.669E-03    0.502E-03
DAV:  14    -0.136678235053E+04    0.32190E-06   -0.23087E-06   992   0.469E-03
  14 F= -.13667824E+04 E0= -.13667824E+04  d E =-.253861E+00
 BRION: g(F)=  0.861E-01 g(S)=  0.000E+00 retain N=  3 mean eig= 5.10
 eig:   2.025  6.633  6.633
 bond charge predicted
       N       E                     dE             d eps       ncg     rms          rms(c)
DAV:   1    -0.136679165197E+04   -0.93011E-02   -0.35886E+01  1376   0.857E+00    0.953E-01
DAV:   2    -0.136697600063E+04   -0.18435E+00   -0.19440E+00  2304   0.338E+00    0.487E-01
DAV:   3    -0.136698707970E+04   -0.11079E-01   -0.15150E-01  2600   0.633E-01    0.388E-01
DAV:   4    -0.136698518521E+04    0.18945E-02   -0.12749E-02  2608   0.270E-01    0.283E-01
DAV:   5    -0.136698316600E+04    0.20192E-02   -0.63838E-03  2344   0.161E-01    0.118E-01
DAV:   6    -0.136698321570E+04   -0.49701E-04   -0.45718E-03  2368   0.125E-01    0.785E-02
DAV:   7    -0.136698326857E+04   -0.52873E-04   -0.22610E-03  2480   0.845E-02    0.626E-02
DAV:   8    -0.136698325659E+04    0.11985E-04   -0.60998E-04  2568   0.512E-02    0.404E-02
DAV:   9    -0.136698324274E+04    0.13847E-04   -0.18996E-04  2448   0.272E-02    0.244E-02
DAV:  10    -0.136698324624E+04   -0.35046E-05   -0.83893E-05  2488   0.171E-02    0.144E-02
DAV:  11    -0.136698324726E+04   -0.10158E-05   -0.27445E-05  2328   0.114E-02    0.990E-03
DAV:  12    -0.136698324620E+04    0.10628E-05   -0.15878E-05  1960   0.890E-03    0.772E-03
DAV:  13    -0.136698324596E+04    0.23642E-06   -0.97258E-06  1728   0.614E-03
  15 F= -.13669832E+04 E0= -.13669832E+04  d E =-.200895E+00
 BRION: g(F)=  0.762E-01 g(S)=  0.000E+00 retain N=  2 mean eig= 3.44
 eig:   3.442  3.442
 bond charge predicted
       N       E                     dE             d eps       ncg     rms          rms(c)
DAV:   1    -0.136704192468E+04   -0.58678E-01   -0.13357E+01  1376   0.523E+00    0.590E-01
DAV:   2    -0.136710998885E+04   -0.68064E-01   -0.71819E-01  2304   0.205E+00    0.303E-01
DAV:   3    -0.136711406599E+04   -0.40771E-02   -0.56408E-02  2584   0.389E-01    0.244E-01
DAV:   4    -0.136711333660E+04    0.72939E-03   -0.49366E-03  2592   0.166E-01    0.178E-01
DAV:   5    -0.136711249946E+04    0.83714E-03   -0.26291E-03  2296   0.106E-01    0.718E-02
DAV:   6    -0.136711255065E+04   -0.51187E-04   -0.19402E-03  2344   0.819E-02    0.541E-02
DAV:   7    -0.136711255822E+04   -0.75651E-05   -0.81159E-04  2464   0.515E-02    0.415E-02
DAV:   8    -0.136711255104E+04    0.71790E-05   -0.26400E-04  2528   0.324E-02    0.237E-02
DAV:   9    -0.136711254617E+04    0.48629E-05   -0.75526E-05  2360   0.173E-02    0.149E-02
DAV:  10    -0.136711254750E+04   -0.13220E-05   -0.29386E-05  2408   0.104E-02    0.966E-03
DAV:  11    -0.136711254694E+04    0.55339E-06   -0.70225E-06  1376   0.731E-03
  16 F= -.13671125E+04 E0= -.13671125E+04  d E =-.129301E+00
 BRION: g(F)=  0.701E-01 g(S)=  0.000E+00 retain N=  3 mean eig= 4.12
 eig:   5.557  5.557  1.252
 bond charge predicted
       N       E                     dE             d eps       ncg     rms          rms(c)
DAV:   1    -0.136715768369E+04   -0.45136E-01   -0.20921E+01  1376   0.653E+00    0.729E-01
DAV:   2    -0.136726327447E+04   -0.10559E+00   -0.11153E+00  2312   0.254E+00    0.370E-01
DAV:   3    -0.136726973738E+04   -0.64629E-02   -0.88070E-02  2600   0.480E-01    0.295E-01
DAV:   4    -0.136726863731E+04    0.11001E-02   -0.72624E-03  2608   0.203E-01    0.216E-01
DAV:   5    -0.136726737362E+04    0.12637E-02   -0.39816E-03  2280   0.130E-01    0.839E-02
DAV:   6    -0.136726747236E+04   -0.98732E-04   -0.28606E-03  2328   0.985E-02    0.652E-02
DAV:   7    -0.136726747956E+04   -0.72032E-05   -0.10874E-03  2432   0.601E-02    0.467E-02
DAV:   8    -0.136726747460E+04    0.49623E-05   -0.35588E-04  2584   0.370E-02    0.268E-02
DAV:   9    -0.136726746825E+04    0.63511E-05   -0.95194E-05  2376   0.201E-02    0.175E-02
DAV:  10    -0.136726746963E+04   -0.13855E-05   -0.34562E-05  2448   0.117E-02    0.106E-02
DAV:  11    -0.136726746913E+04    0.50568E-06   -0.99575E-06  1568   0.777E-03
  17 F= -.13672675E+04 E0= -.13672675E+04  d E =-.154922E+00
 BRION: g(F)=  0.645E-01 g(S)=  0.000E+00 retain N=  3 mean eig= 4.57
 eig:   6.188  6.188  1.325
 bond charge predicted
       N       E                     dE             d eps       ncg     rms          rms(c)
DAV:   1    -0.136732386202E+04   -0.56392E-01   -0.17168E+01  1376   0.591E+00    0.661E-01
DAV:   2    -0.136741149760E+04   -0.87636E-01   -0.92425E-01  2312   0.233E+00    0.335E-01
DAV:   3    -0.136741696801E+04   -0.54704E-02   -0.73357E-02  2584   0.434E-01    0.268E-01
DAV:   4    -0.136741613021E+04    0.83780E-03   -0.61205E-03  2600   0.187E-01    0.199E-01
DAV:   5    -0.136741507143E+04    0.10588E-02   -0.32607E-03  2296   0.119E-01    0.803E-02
DAV:   6    -0.136741513298E+04   -0.61551E-04   -0.24710E-03  2352   0.917E-02    0.610E-02
DAV:   7    -0.136741514166E+04   -0.86850E-05   -0.10111E-03  2472   0.579E-02    0.458E-02
DAV:   8    -0.136741513435E+04    0.73178E-05   -0.31983E-04  2536   0.356E-02    0.264E-02
DAV:   9    -0.136741512750E+04    0.68427E-05   -0.92350E-05  2280   0.191E-02    0.161E-02
DAV:  10    -0.136741512966E+04   -0.21550E-05   -0.37982E-05  2392   0.117E-02    0.106E-02
DAV:  11    -0.136741512893E+04    0.73267E-06   -0.94223E-06  1512   0.792E-03
  18 F= -.13674151E+04 E0= -.13674151E+04  d E =-.147660E+00
 BRION: g(F)=  0.614E-01 g(S)=  0.000E+00 retain N=  3 mean eig= 5.04
 eig:   1.416  6.851  6.851
 bond charge predicted
       N       E                     dE             d eps       ncg     rms          rms(c)
DAV:   1    -0.136747855293E+04   -0.63423E-01   -0.78986E+00  1376   0.399E+00    0.446E-01
DAV:   2    -0.136751884736E+04   -0.40294E-01   -0.42451E-01  2312   0.158E+00    0.225E-01
DAV:   3    -0.136752127638E+04   -0.24290E-02   -0.32802E-02  2584   0.296E-01    0.179E-01
DAV:   4    -0.136752087926E+04    0.39713E-03   -0.27869E-03  2592   0.126E-01    0.131E-01
DAV:   5    -0.136752041676E+04    0.46250E-03   -0.14951E-03  2288   0.820E-02    0.499E-02
DAV:   6    -0.136752046232E+04   -0.45561E-04   -0.11141E-03  2376   0.609E-02    0.410E-02
DAV:   7    -0.136752046438E+04   -0.20559E-05   -0.38001E-04  2472   0.366E-02    0.303E-02
DAV:   8    -0.136752046078E+04    0.36005E-05   -0.13245E-04  2552   0.222E-02    0.163E-02
DAV:   9    -0.136752045820E+04    0.25777E-05   -0.35892E-05  2192   0.123E-02    0.103E-02
DAV:  10    -0.136752045873E+04   -0.52741E-06   -0.10791E-05  1888   0.720E-03    0.651E-03
DAV:  11    -0.136752045816E+04    0.56429E-06   -0.17480E-06  1024   0.525E-03
  19 F= -.13675205E+04 E0= -.13675205E+04  d E =-.105329E+00
 BRION: g(F)=  0.602E-01 g(S)=  0.000E+00 retain N=  3 mean eig= 3.73
 eig:   4.678  4.678  1.826
 bond charge predicted
       N       E                     dE             d eps       ncg     rms          rms(c)
DAV:   1    -0.136757929356E+04   -0.58835E-01   -0.51122E+00  1384   0.322E+00    0.357E-01
DAV:   2    -0.136760564665E+04   -0.26353E-01   -0.27736E-01  2312   0.128E+00    0.179E-01
DAV:   3    -0.136760728058E+04   -0.16339E-02   -0.21621E-02  2584   0.239E-01    0.143E-01
DAV:   4    -0.136760704327E+04    0.23731E-03   -0.18138E-03  2600   0.102E-01    0.105E-01
DAV:   5    -0.136760676172E+04    0.28156E-03   -0.94184E-04  2320   0.635E-02    0.411E-02
DAV:   6    -0.136760678468E+04   -0.22969E-04   -0.66447E-04  2400   0.468E-02    0.322E-02
DAV:   7    -0.136760678627E+04   -0.15844E-05   -0.26840E-04  2440   0.301E-02    0.233E-02
DAV:   8    -0.136760678456E+04    0.17091E-05   -0.86351E-05  2552   0.186E-02    0.136E-02
DAV:   9    -0.136760678302E+04    0.15393E-05   -0.22197E-05  2168   0.973E-03    0.876E-03
DAV:  10    -0.136760678321E+04   -0.18827E-06   -0.82705E-06  1520   0.645E-03
  20 F= -.13676068E+04 E0= -.13676068E+04  d E =-.863250E-01
 BRION: g(F)=  0.596E-01 g(S)=  0.000E+00 retain N=  3 mean eig= 3.73
 eig:   4.911  4.911  1.373
