 running on  160 total cores
 distrk:  each k-point on  160 cores,    1 groups
 distr:  one band on   20 cores,    8 groups
 using from now: INCAR     
 vasp.5.4.4.18Apr17-6-g9f103f2a35 (build May 01 2020 14:22:42) gamma-only       
  
 POSCAR found type information on POSCAR  O  La Zr Li Al
 POSCAR found :  5 types and     190 ions
 scaLAPACK will be used
 LDA part: xc-table for Pade appr. of Perdew
 POSCAR, INCAR and KPOINTS ok, starting setup
 FFT: planning ...
 WAVECAR not read
 WARNING: random wavefunctions but no delay for mixing, default for NELMDL
 entering main loop
       N       E                     dE             d eps       ncg     rms          rms(c)
DAV:   1     0.252929072075E+05    0.25293E+05   -0.42120E+05  1568   0.253E+03
DAV:   2     0.943452490278E+04   -0.15858E+05   -0.14609E+05  1424   0.707E+02
DAV:   3     0.266258451909E+04   -0.67719E+04   -0.61729E+04  1536   0.357E+02
DAV:   4    -0.391127829095E+03   -0.30537E+04   -0.28584E+04  2048   0.224E+02
DAV:   5    -0.142425118715E+04   -0.10331E+04   -0.99114E+03  2536   0.138E+02    0.117E+02
DAV:   6    -0.131112421209E+04    0.11313E+03   -0.14467E+03  2448   0.655E+01    0.503E+01
DAV:   7    -0.133368067299E+04   -0.22556E+02   -0.38169E+02  2552   0.337E+01    0.242E+01
DAV:   8    -0.134431473670E+04   -0.10634E+02   -0.26350E+02  2536   0.266E+01    0.267E+01
DAV:   9    -0.133590825746E+04    0.84065E+01   -0.66067E+01  2448   0.155E+01    0.685E+00
DAV:  10    -0.133721026709E+04   -0.13020E+01   -0.14439E+01  2624   0.852E+00    0.721E+00
DAV:  11    -0.133741579316E+04   -0.20553E+00   -0.66205E+00  2616   0.445E+00    0.351E+00
DAV:  12    -0.133730104937E+04    0.11474E+00   -0.24254E+00  2608   0.345E+00    0.224E+00
DAV:  13    -0.133736083403E+04   -0.59785E-01   -0.75383E-01  2592   0.172E+00    0.171E+00
DAV:  14    -0.133735439033E+04    0.64437E-02   -0.27167E-01  2624   0.105E+00    0.122E+00
DAV:  15    -0.133736154564E+04   -0.71553E-02   -0.90779E-02  2536   0.610E-01    0.967E-01
DAV:  16    -0.133736297920E+04   -0.14336E-02   -0.31155E-02  2624   0.336E-01    0.655E-01
DAV:  17    -0.133735822937E+04    0.47498E-02   -0.23534E-02  2440   0.304E-01    0.350E-01
DAV:  18    -0.133735845507E+04   -0.22570E-03   -0.60487E-03  2528   0.162E-01    0.201E-01
DAV:  19    -0.133735816306E+04    0.29201E-03   -0.31213E-03  2480   0.991E-02    0.134E-01
DAV:  20    -0.133735820957E+04   -0.46510E-04   -0.67102E-04  2544   0.595E-02    0.624E-02
DAV:  21    -0.133735821850E+04   -0.89350E-05   -0.17160E-04  2616   0.249E-02    0.417E-02
DAV:  22    -0.133735822871E+04   -0.10207E-04   -0.55236E-05  2528   0.159E-02    0.238E-02
DAV:  23    -0.133735822970E+04   -0.98694E-06   -0.16181E-05  1328   0.768E-03    0.163E-02
DAV:  24    -0.133735823263E+04   -0.29310E-05   -0.60746E-06  1080   0.632E-03    0.949E-03
DAV:  25    -0.133735823293E+04   -0.30085E-06   -0.29679E-06  1016   0.470E-03
   1 F= -.13373582E+04 E0= -.13373582E+04  d E =-.133736E+04
 BRION: g(F)=  0.380E+02 g(S)=  0.000E+00
 bond charge predicted
       N       E                     dE             d eps       ncg     rms          rms(c)
DAV:   1    -0.132527878671E+04    0.12079E+02   -0.44952E+03  1584   0.993E+01    0.196E+01
DAV:   2    -0.135583759941E+04   -0.30559E+02   -0.35547E+02  2536   0.440E+01    0.964E+00
DAV:   3    -0.135562737923E+04    0.21022E+00   -0.21446E+01  2616   0.115E+01    0.695E+00
DAV:   4    -0.135472421398E+04    0.90317E+00   -0.58555E+00  2568   0.506E+00    0.361E+00
DAV:   5    -0.135451324315E+04    0.21097E+00   -0.15274E+00  2520   0.302E+00    0.216E+00
DAV:   6    -0.135446858884E+04    0.44654E-01   -0.13058E+00  2568   0.230E+00    0.912E-01
DAV:   7    -0.135449282895E+04   -0.24240E-01   -0.41333E-01  2464   0.133E+00    0.961E-01
DAV:   8    -0.135448956839E+04    0.32606E-02   -0.79559E-02  2624   0.540E-01    0.593E-01
DAV:   9    -0.135448745857E+04    0.21098E-02   -0.40816E-02  2592   0.382E-01    0.251E-01
DAV:  10    -0.135448765761E+04   -0.19905E-03   -0.11438E-02  2560   0.248E-01    0.185E-01
DAV:  11    -0.135448764232E+04    0.15292E-04   -0.72415E-03  2624   0.166E-01    0.107E-01
DAV:  12    -0.135448771520E+04   -0.72872E-04   -0.20215E-03  2592   0.871E-02    0.695E-02
DAV:  13    -0.135448770681E+04    0.83835E-05   -0.82210E-04  2608   0.552E-02    0.312E-02
DAV:  14    -0.135448771059E+04   -0.37785E-05   -0.21130E-04  2624   0.322E-02    0.211E-02
DAV:  15    -0.135448771204E+04   -0.14482E-05   -0.10655E-04  2616   0.198E-02    0.975E-03
DAV:  16    -0.135448771293E+04   -0.89250E-06   -0.27123E-05  2560   0.104E-02    0.569E-03
DAV:  17    -0.135448771294E+04   -0.47730E-08   -0.28008E-06  1104   0.602E-03
   2 F= -.13544877E+04 E0= -.13544877E+04  d E =-.171295E+02
 BRION: g(F)=  0.147E+02 g(S)=  0.000E+00 retain N=  1 mean eig= 0.69
 eig:   0.694
 bond charge predicted
       N       E                     dE             d eps       ncg     rms          rms(c)
DAV:   1    -0.134957784500E+04    0.49099E+01   -0.13976E+03  1440   0.512E+01    0.104E+01
DAV:   2    -0.135898929575E+04   -0.94115E+01   -0.11343E+02  2512   0.228E+01    0.976E+00
DAV:   3    -0.135935324062E+04   -0.36394E+00   -0.80932E+00  2592   0.637E+00    0.784E+00
DAV:   4    -0.135908381826E+04    0.26942E+00   -0.21525E+00  2536   0.299E+00    0.478E+00
DAV:   5    -0.135899910548E+04    0.84713E-01   -0.10580E+00  2160   0.236E+00    0.277E+00
DAV:   6    -0.135892068830E+04    0.78417E-01   -0.93042E-01  2520   0.178E+00    0.145E+00
DAV:   7    -0.135892204732E+04   -0.13590E-02   -0.28507E-01  2472   0.101E+00    0.789E-01
DAV:   8    -0.135892124573E+04    0.80158E-03   -0.37339E-02  2624   0.406E-01    0.616E-01
DAV:   9    -0.135892058555E+04    0.66018E-03   -0.18489E-02  2520   0.261E-01    0.487E-01
DAV:  10    -0.135891754123E+04    0.30443E-02   -0.12076E-02  2504   0.226E-01    0.239E-01
DAV:  11    -0.135891756580E+04   -0.24564E-04   -0.85266E-03  2496   0.159E-01    0.746E-02
DAV:  12    -0.135891758984E+04   -0.24045E-04   -0.89714E-04  2608   0.686E-02    0.420E-02
DAV:  13    -0.135891761003E+04   -0.20188E-04   -0.19523E-04  2576   0.282E-02    0.276E-02
DAV:  14    -0.135891760873E+04    0.12960E-05   -0.59078E-05  2616   0.170E-02    0.141E-02
DAV:  15    -0.135891760909E+04   -0.35175E-06   -0.39364E-05  2496   0.115E-02    0.571E-03
DAV:  16    -0.135891760917E+04   -0.79672E-07   -0.50499E-06  1232   0.661E-03
   3 F= -.13589176E+04 E0= -.13589176E+04  d E =-.442990E+01
 BRION: g(F)=  0.415E+01 g(S)=  0.000E+00 retain N=  2 mean eig= 0.47
 eig:   0.393  0.540
 bond charge predicted
       N       E                     dE             d eps       ncg     rms          rms(c)
DAV:   1    -0.135996913190E+04   -0.10515E+01   -0.33050E+02  1360   0.264E+01    0.537E+00
DAV:   2    -0.136159369139E+04   -0.16246E+01   -0.18268E+01  2280   0.104E+01    0.235E+00
DAV:   3    -0.136164688182E+04   -0.53190E-01   -0.15056E+00  2608   0.236E+00    0.195E+00
DAV:   4    -0.136160139316E+04    0.45489E-01   -0.36267E-01  2584   0.127E+00    0.969E-01
DAV:   5    -0.136159780569E+04    0.35875E-02   -0.11713E-01  2352   0.727E-01    0.612E-01
DAV:   6    -0.136159634366E+04    0.14620E-02   -0.71203E-02  2584   0.511E-01    0.315E-01
DAV:   7    -0.136159650627E+04   -0.16261E-03   -0.22561E-02  2440   0.288E-01    0.233E-01
DAV:   8    -0.136159641906E+04    0.87211E-04   -0.66987E-03  2608   0.154E-01    0.132E-01
DAV:   9    -0.136159631475E+04    0.10431E-03   -0.22429E-03  2624   0.974E-02    0.791E-02
DAV:  10    -0.136159639478E+04   -0.80035E-04   -0.12171E-03  2472   0.657E-02    0.793E-02
DAV:  11    -0.136159633552E+04    0.59269E-04   -0.66026E-04  2504   0.471E-02    0.309E-02
DAV:  12    -0.136159633620E+04   -0.68740E-06   -0.19764E-04  2512   0.286E-02    0.141E-02
DAV:  13    -0.136159634030E+04   -0.40998E-05   -0.47031E-05  2576   0.141E-02    0.928E-03
DAV:  14    -0.136159634098E+04   -0.67317E-06   -0.12489E-05  1992   0.707E-03    0.451E-03
DAV:  15    -0.136159634085E+04    0.12518E-06   -0.20568E-06  1016   0.509E-03
   4 F= -.13615963E+04 E0= -.13615963E+04  d E =-.267873E+01
 BRION: g(F)=  0.144E+01 g(S)=  0.000E+00 retain N=  3 mean eig= 1.16
 eig:   0.732  1.375  1.375
 bond charge predicted
       N       E                     dE             d eps       ncg     rms          rms(c)
DAV:   1    -0.136220363078E+04   -0.60729E+00   -0.15318E+02  1368   0.180E+01    0.239E+00
DAV:   2    -0.136294794410E+04   -0.74431E+00   -0.80083E+00  2288   0.685E+00    0.124E+00
DAV:   3    -0.136298175363E+04   -0.33810E-01   -0.63195E-01  2600   0.141E+00    0.102E+00
DAV:   4    -0.136296563852E+04    0.16115E-01   -0.87459E-02  2592   0.664E-01    0.619E-01
DAV:   5    -0.136295803708E+04    0.76014E-02   -0.45560E-02  2248   0.442E-01    0.279E-01
DAV:   6    -0.136295902207E+04   -0.98499E-03   -0.25221E-02  2544   0.317E-01    0.259E-01
DAV:   7    -0.136295868765E+04    0.33442E-03   -0.13614E-02  2424   0.210E-01    0.164E-01
DAV:   8    -0.136295864536E+04    0.42287E-04   -0.37346E-03  2576   0.120E-01    0.874E-02
DAV:   9    -0.136295861116E+04    0.34202E-04   -0.70337E-04  2592   0.585E-02    0.640E-02
DAV:  10    -0.136295866127E+04   -0.50106E-04   -0.80707E-04  2264   0.455E-02    0.584E-02
DAV:  11    -0.136295859839E+04    0.62878E-04   -0.37708E-04  2480   0.422E-02    0.209E-02
DAV:  12    -0.136295861232E+04   -0.13933E-04   -0.21959E-04  2472   0.270E-02    0.235E-02
DAV:  13    -0.136295860516E+04    0.71587E-05   -0.56124E-05  2288   0.152E-02    0.967E-03
DAV:  14    -0.136295860560E+04   -0.44014E-06   -0.17425E-05  1928   0.820E-03    0.385E-03
DAV:  15    -0.136295860592E+04   -0.31365E-06   -0.16587E-06  1016   0.471E-03
   5 F= -.13629586E+04 E0= -.13629586E+04  d E =-.136227E+01
 BRION: g(F)=  0.937E+00 g(S)=  0.000E+00 retain N=  4 mean eig= 1.59
 eig:   2.359  2.359  0.814  0.814
 bond charge predicted
       N       E                     dE             d eps       ncg     rms          rms(c)
DAV:   1    -0.136345651070E+04   -0.49791E+00   -0.97639E+01  1376   0.143E+01    0.181E+00
DAV:   2    -0.136395051272E+04   -0.49400E+00   -0.52297E+00  2288   0.560E+00    0.950E-01
DAV:   3    -0.136397551566E+04   -0.25003E-01   -0.41139E-01  2608   0.111E+00    0.769E-01
DAV:   4    -0.136396640046E+04    0.91152E-02   -0.53237E-02  2584   0.528E-01    0.468E-01
DAV:   5    -0.136396284363E+04    0.35568E-02   -0.22707E-02  2416   0.309E-01    0.200E-01
DAV:   6    -0.136396346520E+04   -0.62157E-03   -0.11899E-02  2464   0.222E-01    0.154E-01
DAV:   7    -0.136396338040E+04    0.84798E-04   -0.60560E-03  2352   0.148E-01    0.112E-01
DAV:   8    -0.136396340307E+04   -0.22672E-04   -0.22846E-03  2576   0.860E-02    0.694E-02
DAV:   9    -0.136396336385E+04    0.39216E-04   -0.45771E-04  2592   0.467E-02    0.474E-02
DAV:  10    -0.136396337436E+04   -0.10511E-04   -0.45355E-04  2400   0.360E-02    0.366E-02
DAV:  11    -0.136396336206E+04    0.12300E-04   -0.18427E-04  2464   0.286E-02    0.137E-02
DAV:  12    -0.136396336509E+04   -0.30268E-05   -0.64213E-05  2328   0.171E-02    0.136E-02
DAV:  13    -0.136396336352E+04    0.15696E-05   -0.23781E-05  2088   0.966E-03    0.643E-03
DAV:  14    -0.136396336380E+04   -0.27726E-06   -0.11998E-05  1768   0.658E-03    0.398E-03
DAV:  15    -0.136396336375E+04    0.45038E-07   -0.85423E-07   992   0.391E-03
   6 F= -.13639634E+04 E0= -.13639634E+04  d E =-.100476E+01
 BRION: g(F)=  0.524E+00 g(S)=  0.000E+00 retain N=  5 mean eig= 2.30
 eig:   4.271  4.271  1.063  1.063  0.831
 bond charge predicted
       N       E                     dE             d eps       ncg     rms          rms(c)
DAV:   1    -0.136427371394E+04   -0.31035E+00   -0.10732E+02  1376   0.149E+01    0.181E+00
DAV:   2    -0.136482449078E+04   -0.55078E+00   -0.58044E+00  2296   0.590E+00    0.911E-01
DAV:   3    -0.136485669647E+04   -0.32206E-01   -0.45302E-01  2584   0.113E+00    0.734E-01
DAV:   4    -0.136484986684E+04    0.68296E-02   -0.48314E-02  2616   0.510E-01    0.491E-01
DAV:   5    -0.136484506152E+04    0.48053E-02   -0.22648E-02  2400   0.315E-01    0.195E-01
DAV:   6    -0.136484582969E+04   -0.76818E-03   -0.13033E-02  2480   0.221E-01    0.159E-01
DAV:   7    -0.136484577758E+04    0.52117E-04   -0.53595E-03  2464   0.141E-01    0.116E-01
DAV:   8    -0.136484573778E+04    0.39793E-04   -0.22911E-03  2592   0.902E-02    0.631E-02
DAV:   9    -0.136484571660E+04    0.21188E-04   -0.46981E-04  2528   0.461E-02    0.439E-02
DAV:  10    -0.136484572278E+04   -0.61859E-05   -0.23835E-04  2592   0.292E-02    0.270E-02
DAV:  11    -0.136484572214E+04    0.64007E-06   -0.97969E-05  2464   0.209E-02    0.153E-02
DAV:  12    -0.136484572146E+04    0.68311E-06   -0.35525E-05  2312   0.139E-02    0.130E-02
DAV:  13    -0.136484572051E+04    0.95140E-06   -0.28325E-05  2128   0.921E-03    0.619E-03
DAV:  14    -0.136484572024E+04    0.26752E-06   -0.37203E-06  1184   0.551E-03
   7 F= -.13648457E+04 E0= -.13648457E+04  d E =-.882356E+00
 BRION: g(F)=  0.362E+00 g(S)=  0.000E+00 retain N=  6 mean eig= 2.80
 eig:   5.626  5.626  1.777  1.777  0.992  0.992
 bond charge predicted
       N       E                     dE             d eps       ncg     rms          rms(c)
DAV:   1    -0.136498359712E+04   -0.13788E+00   -0.12394E+02  1376   0.159E+01    0.193E+00
DAV:   2    -0.136561555948E+04   -0.63196E+00   -0.66748E+00  2296   0.626E+00    0.962E-01
DAV:   3    -0.136565246219E+04   -0.36903E-01   -0.52695E-01  2576   0.120E+00    0.771E-01
DAV:   4    -0.136564436933E+04    0.80929E-02   -0.54919E-02  2552   0.545E-01    0.518E-01
DAV:   5    -0.136563844499E+04    0.59243E-02   -0.27130E-02  2336   0.338E-01    0.206E-01
DAV:   6    -0.136563933827E+04   -0.89328E-03   -0.15937E-02  2456   0.245E-01    0.174E-01
DAV:   7    -0.136563925276E+04    0.85509E-04   -0.66172E-03  2488   0.156E-01    0.127E-01
DAV:   8    -0.136563920308E+04    0.49674E-04   -0.27527E-03  2576   0.980E-02    0.680E-02
DAV:   9    -0.136563917526E+04    0.27825E-04   -0.53499E-04  2504   0.497E-02    0.473E-02
DAV:  10    -0.136563918299E+04   -0.77276E-05   -0.30642E-04  2568   0.320E-02    0.295E-02
DAV:  11    -0.136563918058E+04    0.24108E-05   -0.11934E-04  2472   0.231E-02    0.157E-02
DAV:  12    -0.136563918087E+04   -0.28942E-06   -0.45289E-05  2336   0.152E-02    0.143E-02
DAV:  13    -0.136563917949E+04    0.13782E-05   -0.32321E-05  2096   0.100E-02    0.698E-03
DAV:  14    -0.136563917945E+04    0.35259E-07   -0.75102E-06  1584   0.589E-03
   8 F= -.13656392E+04 E0= -.13656392E+04  d E =-.793459E+00
 BRION: g(F)=  0.253E+00 g(S)=  0.000E+00 retain N=  6 mean eig= 3.56
 eig:   7.640  7.640  2.122  2.122  0.908  0.908
 bond charge predicted
       N       E                     dE             d eps       ncg     rms          rms(c)
DAV:   1    -0.136571116182E+04   -0.71982E-01   -0.10644E+02  1384   0.147E+01    0.177E+00
DAV:   2    -0.136625225969E+04   -0.54110E+00   -0.57237E+00  2288   0.575E+00    0.878E-01
DAV:   3    -0.136628376025E+04   -0.31501E-01   -0.45167E-01  2584   0.111E+00    0.708E-01
DAV:   4    -0.136627678494E+04    0.69753E-02   -0.45528E-02  2560   0.498E-01    0.482E-01
DAV:   5    -0.136627105600E+04    0.57289E-02   -0.22650E-02  2344   0.312E-01    0.187E-01
DAV:   6    -0.136627180176E+04   -0.74576E-03   -0.13958E-02  2408   0.220E-01    0.156E-01
DAV:   7    -0.136627174854E+04    0.53225E-04   -0.49600E-03  2472   0.137E-01    0.114E-01
DAV:   8    -0.136627170392E+04    0.44616E-04   -0.21956E-03  2576   0.859E-02    0.595E-02
DAV:   9    -0.136627168232E+04    0.21599E-04   -0.44736E-04  2416   0.453E-02    0.418E-02
DAV:  10    -0.136627168753E+04   -0.52108E-05   -0.20415E-04  2464   0.274E-02    0.251E-02
DAV:  11    -0.136627168579E+04    0.17398E-05   -0.73792E-05  2488   0.187E-02    0.131E-02
DAV:  12    -0.136627168714E+04   -0.13458E-05   -0.36574E-05  2360   0.125E-02    0.127E-02
DAV:  13    -0.136627168566E+04    0.14810E-05   -0.20027E-05  1864   0.841E-03    0.609E-03
DAV:  14    -0.136627168556E+04    0.95766E-07   -0.57328E-06  1424   0.591E-03
   9 F= -.13662717E+04 E0= -.13662717E+04  d E =-.632506E+00
 BRION: g(F)=  0.188E+00 g(S)=  0.000E+00 retain N=  3 mean eig= 5.17
 eig:   1.909  6.802  6.802
 bond charge predicted
       N       E                     dE             d eps       ncg     rms          rms(c)
DAV:   1    -0.136633575369E+04   -0.64068E-01   -0.76370E+01  1376   0.125E+01    0.147E+00
DAV:   2    -0.136672872256E+04   -0.39297E+00   -0.41725E+00  2312   0.491E+00    0.744E-01
DAV:   3    -0.136675188829E+04   -0.23166E-01   -0.33279E-01  2592   0.946E-01    0.598E-01
DAV:   4    -0.136674696780E+04    0.49205E-02   -0.31751E-02  2560   0.425E-01    0.420E-01
DAV:   5    -0.136674234232E+04    0.46255E-02   -0.16239E-02  2320   0.260E-01    0.166E-01
DAV:   6    -0.136674270521E+04   -0.36289E-03   -0.10981E-02  2384   0.196E-01    0.132E-01
DAV:   7    -0.136674271145E+04   -0.62411E-05   -0.43146E-03  2440   0.126E-01    0.998E-02
DAV:   8    -0.136674268111E+04    0.30348E-04   -0.16420E-03  2584   0.764E-02    0.559E-02
DAV:   9    -0.136674265858E+04    0.22523E-04   -0.37646E-04  2440   0.405E-02    0.368E-02
DAV:  10    -0.136674266503E+04   -0.64512E-05   -0.18188E-04  2472   0.250E-02    0.223E-02
DAV:  11    -0.136674266530E+04   -0.26380E-06   -0.62361E-05  2440   0.175E-02    0.139E-02
DAV:  12    -0.136674266498E+04    0.31375E-06   -0.33561E-05  2304   0.124E-02    0.127E-02
DAV:  13    -0.136674266356E+04    0.14281E-05   -0.21053E-05  1960   0.857E-03    0.608E-03
DAV:  14    -0.136674266355E+04    0.84983E-08   -0.68117E-06  1600   0.584E-03
  10 F= -.13667427E+04 E0= -.13667427E+04  d E =-.470978E+00
 BRION: g(F)=  0.150E+00 g(S)=  0.000E+00 retain N=  3 mean eig= 5.80
 eig:   7.507  7.507  2.384
 bond charge predicted
       N       E                     dE             d eps       ncg     rms          rms(c)
DAV:   1    -0.136681609166E+04   -0.73428E-01   -0.52955E+01  1368   0.104E+01    0.123E+00
DAV:   2    -0.136708583406E+04   -0.26974E+00   -0.28704E+00  2296   0.409E+00    0.630E-01
DAV:   3    -0.136710127615E+04   -0.15442E-01   -0.22867E-01  2592   0.801E-01    0.504E-01
DAV:   4    -0.136709761086E+04    0.36653E-02   -0.22867E-02  2576   0.356E-01    0.349E-01
DAV:   5    -0.136709437069E+04    0.32402E-02   -0.11573E-02  2352   0.225E-01    0.139E-01
DAV:   6    -0.136709461524E+04   -0.24456E-03   -0.76720E-03  2392   0.169E-01    0.111E-01
DAV:   7    -0.136709462517E+04   -0.99221E-05   -0.31136E-03  2432   0.106E-01    0.840E-02
DAV:   8    -0.136709460706E+04    0.18105E-04   -0.11684E-03  2584   0.641E-02    0.467E-02
DAV:   9    -0.136709459288E+04    0.14187E-04   -0.27175E-04  2520   0.345E-02    0.311E-02
DAV:  10    -0.136709459635E+04   -0.34754E-05   -0.12456E-04  2528   0.213E-02    0.200E-02
DAV:  11    -0.136709459573E+04    0.62208E-06   -0.49320E-05  2392   0.153E-02    0.115E-02
DAV:  12    -0.136709459582E+04   -0.91139E-07   -0.23795E-05  2232   0.107E-02    0.108E-02
DAV:  13    -0.136709459477E+04    0.10453E-05   -0.15247E-05  1808   0.751E-03    0.515E-03
DAV:  14    -0.136709459465E+04    0.12216E-06   -0.45645E-06  1344   0.536E-03
  11 F= -.13670946E+04 E0= -.13670946E+04  d E =-.351931E+00
 BRION: g(F)=  0.130E+00 g(S)=  0.000E+00 retain N=  3 mean eig= 5.28
 eig:   6.800  6.800  2.245
 bond charge predicted
       N       E                     dE             d eps       ncg     rms          rms(c)
DAV:   1    -0.136719498833E+04   -0.10039E+00   -0.24073E+01  1368   0.701E+00    0.823E-01
DAV:   2    -0.136731594955E+04   -0.12096E+00   -0.12882E+00  2312   0.271E+00    0.424E-01
DAV:   3    -0.136732286682E+04   -0.69173E-02   -0.10296E-01  2592   0.527E-01    0.336E-01
DAV:   4    -0.136732108083E+04    0.17860E-02   -0.10281E-02  2552   0.239E-01    0.225E-01
DAV:   5    -0.136731983344E+04    0.12474E-02   -0.52048E-03  2336   0.145E-01    0.852E-02
DAV:   6    -0.136731996589E+04   -0.13245E-03   -0.27613E-03  2456   0.988E-02    0.686E-02
DAV:   7    -0.136731996472E+04    0.11756E-05   -0.10242E-03  2488   0.622E-02    0.469E-02
DAV:   8    -0.136731996297E+04    0.17421E-05   -0.40634E-04  2560   0.385E-02    0.275E-02
DAV:   9    -0.136731995962E+04    0.33533E-05   -0.78210E-05  2520   0.195E-02    0.199E-02
DAV:  10    -0.136731995996E+04   -0.33763E-06   -0.49223E-05  2528   0.130E-02    0.106E-02
DAV:  11    -0.136731995995E+04    0.87166E-08   -0.15402E-05  2072   0.908E-03    0.533E-03
DAV:  12    -0.136731996009E+04   -0.13717E-06   -0.56120E-06  1576   0.593E-03
  12 F= -.13673200E+04 E0= -.13673200E+04  d E =-.225365E+00
 BRION: g(F)=  0.114E+00 g(S)=  0.000E+00 retain N=  3 mean eig= 4.70
 eig:   6.258  6.258  1.573
 bond charge predicted
       N       E                     dE             d eps       ncg     rms          rms(c)
DAV:   1    -0.136741609426E+04   -0.96134E-01   -0.15311E+01  1360   0.558E+00    0.650E-01
DAV:   2    -0.136749230765E+04   -0.76213E-01   -0.80717E-01  2296   0.216E+00    0.331E-01
DAV:   3    -0.136749649826E+04   -0.41906E-02   -0.62438E-02  2600   0.425E-01    0.260E-01
DAV:   4    -0.136749537493E+04    0.11233E-02   -0.60318E-03  2584   0.183E-01    0.175E-01
DAV:   5    -0.136749455907E+04    0.81586E-03   -0.34941E-03  2304   0.119E-01    0.629E-02
DAV:   6    -0.136749467802E+04   -0.11895E-03   -0.18475E-03  2496   0.796E-02    0.576E-02
DAV:   7    -0.136749467152E+04    0.65039E-05   -0.58159E-04  2528   0.466E-02    0.381E-02
DAV:   8    -0.136749466475E+04    0.67620E-05   -0.21222E-04  2560   0.284E-02    0.199E-02
DAV:   9    -0.136749466401E+04    0.74784E-06   -0.38501E-05  2504   0.140E-02    0.140E-02
DAV:  10    -0.136749466453E+04   -0.52348E-06   -0.23358E-05  2240   0.962E-03    0.725E-03
DAV:  11    -0.136749466409E+04    0.43669E-06   -0.33774E-06  1160   0.646E-03
  13 F= -.13674947E+04 E0= -.13674947E+04  d E =-.174704E+00
 BRION: g(F)=  0.101E+00 g(S)=  0.000E+00 retain N=  3 mean eig= 3.78
 eig:   5.001  5.001  1.345
 bond charge predicted
       N       E                     dE             d eps       ncg     rms          rms(c)
DAV:   1    -0.136757469859E+04   -0.80034E-01   -0.33953E+01  1360   0.830E+00    0.943E-01
DAV:   2    -0.136774255470E+04   -0.16786E+00   -0.17787E+00  2296   0.319E+00    0.483E-01
DAV:   3    -0.136775208497E+04   -0.95303E-02   -0.13865E-01  2584   0.637E-01    0.379E-01
DAV:   4    -0.136774987012E+04    0.22148E-02   -0.13101E-02  2584   0.267E-01    0.262E-01
DAV:   5    -0.136774804782E+04    0.18223E-02   -0.71203E-03  2312   0.172E-01    0.978E-02
DAV:   6    -0.136774824861E+04   -0.20079E-03   -0.39407E-03  2480   0.117E-01    0.814E-02
DAV:   7    -0.136774824562E+04    0.29960E-05   -0.13452E-03  2520   0.712E-02    0.551E-02
DAV:   8    -0.136774823843E+04    0.71840E-05   -0.53209E-04  2584   0.445E-02    0.307E-02
DAV:   9    -0.136774823561E+04    0.28195E-05   -0.98733E-05  2528   0.223E-02    0.223E-02
DAV:  10    -0.136774823597E+04   -0.35301E-06   -0.60249E-05  2560   0.146E-02    0.112E-02
DAV:  11    -0.136774823616E+04   -0.19188E-06   -0.18098E-05  2168   0.973E-03    0.523E-03
DAV:  12    -0.136774823641E+04   -0.25249E-06   -0.60447E-06  1544   0.611E-03
  14 F= -.13677482E+04 E0= -.13677482E+04  d E =-.253572E+00
 BRION: g(F)=  0.905E-01 g(S)=  0.000E+00 retain N=  3 mean eig= 4.16
 eig:   5.553  5.553  1.389
 bond charge predicted
       N       E                     dE             d eps       ncg     rms          rms(c)
DAV:   1    -0.136775943541E+04   -0.11199E-01   -0.56231E+01  1368   0.107E+01    0.121E+00
DAV:   2    -0.136804082492E+04   -0.28139E+00   -0.29789E+00  2312   0.416E+00    0.620E-01
DAV:   3    -0.136805751387E+04   -0.16689E-01   -0.23727E-01  2592   0.796E-01    0.491E-01
DAV:   4    -0.136805404036E+04    0.34735E-02   -0.21158E-02  2592   0.345E-01    0.347E-01
DAV:   5    -0.136805074685E+04    0.32935E-02   -0.11484E-02  2312   0.216E-01    0.134E-01
DAV:   6    -0.136805101570E+04   -0.26885E-03   -0.70012E-03  2416   0.154E-01    0.105E-01
DAV:   7    -0.136805101202E+04    0.36812E-05   -0.26072E-03  2432   0.959E-02    0.727E-02
DAV:   8    -0.136805100276E+04    0.92649E-05   -0.97687E-04  2600   0.605E-02    0.431E-02
DAV:   9    -0.136805099251E+04    0.10246E-04   -0.21236E-04  2432   0.313E-02    0.302E-02
DAV:  10    -0.136805099396E+04   -0.14446E-05   -0.11504E-04  2472   0.198E-02    0.157E-02
DAV:  11    -0.136805099460E+04   -0.64218E-06   -0.33126E-05  2440   0.130E-02    0.820E-03
DAV:  12    -0.136805099509E+04   -0.48966E-06   -0.16395E-05  2072   0.875E-03    0.760E-03
DAV:  13    -0.136805099451E+04    0.57896E-06   -0.58461E-06  1440   0.575E-03
  15 F= -.13680510E+04 E0= -.13680510E+04  d E =-.302758E+00
 BRION: g(F)=  0.781E-01 g(S)=  0.000E+00 retain N=  2 mean eig= 4.84
 eig:   4.844  4.844
 bond charge predicted
       N       E                     dE             d eps       ncg     rms          rms(c)
DAV:   1    -0.136812819775E+04   -0.77203E-01   -0.12485E+01  1376   0.507E+00    0.576E-01
DAV:   2    -0.136819147183E+04   -0.63274E-01   -0.66907E-01  2296   0.199E+00    0.290E-01
DAV:   3    -0.136819540455E+04   -0.39327E-02   -0.53953E-02  2592   0.384E-01    0.231E-01
DAV:   4    -0.136819469693E+04    0.70762E-03   -0.45832E-03  2584   0.164E-01    0.169E-01
DAV:   5    -0.136819390444E+04    0.79249E-03   -0.27855E-03  2248   0.109E-01    0.641E-02
DAV:   6    -0.136819399314E+04   -0.88699E-04   -0.18980E-03  2432   0.806E-02    0.576E-02
DAV:   7    -0.136819398721E+04    0.59306E-05   -0.68254E-04  2472   0.483E-02    0.395E-02
DAV:   8    -0.136819397812E+04    0.90832E-05   -0.23036E-04  2544   0.298E-02    0.201E-02
DAV:   9    -0.136819397544E+04    0.26890E-05   -0.50143E-05  2240   0.152E-02    0.136E-02
DAV:  10    -0.136819397575E+04   -0.31697E-06   -0.17907E-05  2136   0.902E-03    0.727E-03
DAV:  11    -0.136819397533E+04    0.41789E-06   -0.27121E-06  1056   0.588E-03
  16 F= -.13681940E+04 E0= -.13681940E+04  d E =-.142981E+00
 BRION: g(F)=  0.727E-01 g(S)=  0.000E+00 retain N=  3 mean eig= 4.93
 eig:   6.388  6.388  2.022
 bond charge predicted
       N       E                     dE             d eps       ncg     rms          rms(c)
DAV:   1    -0.136827309948E+04   -0.79124E-01   -0.12996E+01  1376   0.516E+00    0.583E-01
DAV:   2    -0.136833941549E+04   -0.66316E-01   -0.70310E-01  2304   0.205E+00    0.297E-01
DAV:   3    -0.136834363176E+04   -0.42163E-02   -0.57392E-02  2576   0.394E-01    0.238E-01
DAV:   4    -0.136834293992E+04    0.69183E-03   -0.50314E-03  2600   0.170E-01    0.174E-01
DAV:   5    -0.136834218761E+04    0.75231E-03   -0.28736E-03  2272   0.105E-01    0.680E-02
DAV:   6    -0.136834225705E+04   -0.69436E-04   -0.17104E-03  2416   0.761E-02    0.567E-02
DAV:   7    -0.136834225074E+04    0.63088E-05   -0.74967E-04  2504   0.501E-02    0.373E-02
DAV:   8    -0.136834224556E+04    0.51770E-05   -0.25163E-04  2512   0.318E-02    0.226E-02
DAV:   9    -0.136834224335E+04    0.22119E-05   -0.53622E-05  2472   0.156E-02    0.153E-02
DAV:  10    -0.136834224358E+04   -0.23082E-06   -0.23251E-05  2408   0.932E-03    0.737E-03
DAV:  11    -0.136834224348E+04    0.10047E-06   -0.20887E-06  1000   0.618E-03
  17 F= -.13683422E+04 E0= -.13683422E+04  d E =-.148268E+00
 BRION: g(F)=  0.691E-01 g(S)=  0.000E+00 retain N=  3 mean eig= 4.90
 eig:   6.469  6.469  1.751
 bond charge predicted
       N       E                     dE             d eps       ncg     rms          rms(c)
DAV:   1    -0.136840331806E+04   -0.61074E-01   -0.27739E+01  1376   0.753E+00    0.849E-01
DAV:   2    -0.136854501078E+04   -0.14169E+00   -0.14948E+00  2288   0.296E+00    0.427E-01
DAV:   3    -0.136855392632E+04   -0.89155E-02   -0.12049E-01  2568   0.574E-01    0.338E-01
DAV:   4    -0.136855248824E+04    0.14381E-02   -0.10626E-02  2592   0.245E-01    0.247E-01
DAV:   5    -0.136855084100E+04    0.16472E-02   -0.56896E-03  2280   0.154E-01    0.966E-02
DAV:   6    -0.136855098385E+04   -0.14285E-03   -0.37624E-03  2392   0.112E-01    0.764E-02
DAV:   7    -0.136855098427E+04   -0.41512E-06   -0.14060E-03  2480   0.691E-02    0.531E-02
DAV:   8    -0.136855097363E+04    0.10640E-04   -0.48517E-04  2568   0.435E-02    0.311E-02
DAV:   9    -0.136855096724E+04    0.63905E-05   -0.11620E-04  2336   0.227E-02    0.207E-02
DAV:  10    -0.136855096830E+04   -0.10644E-05   -0.51989E-05  2416   0.141E-02    0.111E-02
DAV:  11    -0.136855096847E+04   -0.17486E-06   -0.14446E-05  2088   0.895E-03    0.550E-03
DAV:  12    -0.136855096880E+04   -0.32340E-06   -0.83294E-06  1696   0.608E-03
  18 F= -.13685510E+04 E0= -.13685510E+04  d E =-.208725E+00
 BRION: g(F)=  0.635E-01 g(S)=  0.000E+00 retain N=  3 mean eig= 4.83
 eig:   6.496  6.496  1.494
 bond charge predicted
       N       E                     dE             d eps       ncg     rms          rms(c)
DAV:   1    -0.136861668240E+04   -0.65714E-01   -0.20670E+01  1368   0.652E+00    0.731E-01
DAV:   2    -0.136872275406E+04   -0.10607E+00   -0.11220E+00  2288   0.257E+00    0.370E-01
DAV:   3    -0.136872957834E+04   -0.68243E-02   -0.91613E-02  2560   0.499E-01    0.294E-01
DAV:   4    -0.136872856309E+04    0.10153E-02   -0.80859E-03  2584   0.215E-01    0.218E-01
DAV:   5    -0.136872733397E+04    0.12291E-02   -0.43141E-03  2320   0.133E-01    0.895E-02
DAV:   6    -0.136872739875E+04   -0.64781E-04   -0.28637E-03  2368   0.100E-01    0.676E-02
DAV:   7    -0.136872740629E+04   -0.75395E-05   -0.12318E-03  2480   0.645E-02    0.480E-02
DAV:   8    -0.136872739770E+04    0.85909E-05   -0.40224E-04  2544   0.401E-02    0.292E-02
DAV:   9    -0.136872739249E+04    0.52102E-05   -0.10475E-04  2432   0.208E-02    0.187E-02
DAV:  10    -0.136872739335E+04   -0.86451E-06   -0.38727E-05  2544   0.124E-02    0.108E-02
DAV:  11    -0.136872739348E+04   -0.12899E-06   -0.11981E-05  1816   0.821E-03    0.616E-03
DAV:  12    -0.136872739349E+04   -0.95315E-08   -0.82675E-06  1664   0.657E-03
  19 F= -.13687274E+04 E0= -.13687274E+04  d E =-.176425E+00
 BRION: g(F)=  0.582E-01 g(S)=  0.000E+00 retain N=  3 mean eig= 5.34
 eig:   7.190  7.190  1.627
 bond charge predicted
       N       E                     dE             d eps       ncg     rms          rms(c)
DAV:   1    -0.136879712994E+04   -0.69736E-01   -0.15714E+01  1368   0.567E+00    0.643E-01
DAV:   2    -0.136887799310E+04   -0.80863E-01   -0.85611E-01  2280   0.225E+00    0.323E-01
DAV:   3    -0.136888323519E+04   -0.52421E-02   -0.70234E-02  2552   0.440E-01    0.256E-01
DAV:   4    -0.136888246302E+04    0.77217E-03   -0.63381E-03  2576   0.189E-01    0.189E-01
DAV:   5    -0.136888155806E+04    0.90496E-03   -0.34582E-03  2360   0.116E-01    0.758E-02
DAV:   6    -0.136888162226E+04   -0.64203E-04   -0.20280E-03  2416   0.830E-02    0.590E-02
DAV:   7    -0.136888162145E+04    0.81206E-06   -0.88536E-04  2520   0.551E-02    0.394E-02
DAV:   8    -0.136888161805E+04    0.33997E-05   -0.30067E-04  2560   0.349E-02    0.266E-02
DAV:   9    -0.136888161371E+04    0.43367E-05   -0.71691E-05  2520   0.175E-02    0.169E-02
DAV:  10    -0.136888161399E+04   -0.27544E-06   -0.27025E-05  2504   0.102E-02    0.843E-03
DAV:  11    -0.136888161399E+04   -0.63592E-08   -0.20241E-06  1008   0.603E-03
  20 F= -.13688816E+04 E0= -.13688816E+04  d E =-.154221E+00
 BRION: g(F)=  0.546E-01 g(S)=  0.000E+00 retain N=  2 mean eig= 5.54
 eig:   5.542  5.542
