 running on  160 total cores
 distrk:  each k-point on  160 cores,    1 groups
 distr:  one band on   20 cores,    8 groups
 using from now: INCAR     
 vasp.5.4.4.18Apr17-6-g9f103f2a35 (build May 01 2020 14:22:42) gamma-only       
  
 POSCAR found type information on POSCAR  O  La Zr Li Al
 POSCAR found :  5 types and     190 ions
 scaLAPACK will be used
 LDA part: xc-table for Pade appr. of Perdew
 POSCAR, INCAR and KPOINTS ok, starting setup
 FFT: planning ...
 WAVECAR not read
 WARNING: random wavefunctions but no delay for mixing, default for NELMDL
 entering main loop
       N       E                     dE             d eps       ncg     rms          rms(c)
DAV:   1     0.253323026061E+05    0.25332E+05   -0.42141E+05  1568   0.253E+03
DAV:   2     0.943079602059E+04   -0.15902E+05   -0.14648E+05  1424   0.711E+02
DAV:   3     0.266317906549E+04   -0.67676E+04   -0.61793E+04  1504   0.357E+02
DAV:   4    -0.396708503470E+03   -0.30599E+04   -0.28595E+04  2048   0.223E+02
DAV:   5    -0.142113439088E+04   -0.10244E+04   -0.99170E+03  2536   0.140E+02    0.117E+02
DAV:   6    -0.130081143049E+04    0.12032E+03   -0.14144E+03  2416   0.655E+01    0.503E+01
DAV:   7    -0.132448755800E+04   -0.23676E+02   -0.39504E+02  2568   0.342E+01    0.247E+01
DAV:   8    -0.133211099879E+04   -0.76234E+01   -0.23851E+02  2552   0.265E+01    0.244E+01
DAV:   9    -0.132672997235E+04    0.53810E+01   -0.47714E+01  2544   0.143E+01    0.776E+00
DAV:  10    -0.132752795204E+04   -0.79798E+00   -0.16387E+01  2624   0.782E+00    0.726E+00
DAV:  11    -0.132786968189E+04   -0.34173E+00   -0.53304E+00  2624   0.413E+00    0.433E+00
DAV:  12    -0.132773744209E+04    0.13224E+00   -0.21666E+00  2568   0.331E+00    0.341E+00
DAV:  13    -0.132779344076E+04   -0.55999E-01   -0.97000E-01  2528   0.179E+00    0.236E+00
DAV:  14    -0.132777129144E+04    0.22149E-01   -0.28077E-01  2584   0.110E+00    0.127E+00
DAV:  15    -0.132777734931E+04   -0.60579E-02   -0.94236E-02  2584   0.606E-01    0.978E-01
DAV:  16    -0.132777832487E+04   -0.97557E-03   -0.24195E-02  2624   0.301E-01    0.715E-01
DAV:  17    -0.132777787215E+04    0.45272E-03   -0.22845E-02  2296   0.301E-01    0.442E-01
DAV:  18    -0.132777804786E+04   -0.17571E-03   -0.54076E-03  2304   0.157E-01    0.208E-01
DAV:  19    -0.132777786644E+04    0.18142E-03   -0.26305E-03  2536   0.104E-01    0.125E-01
DAV:  20    -0.132777787755E+04   -0.11114E-04   -0.82449E-04  2536   0.513E-02    0.605E-02
DAV:  21    -0.132777788985E+04   -0.12298E-04   -0.29076E-04  2616   0.332E-02    0.517E-02
DAV:  22    -0.132777791068E+04   -0.20834E-04   -0.98167E-05  2504   0.216E-02    0.215E-02
DAV:  23    -0.132777790386E+04    0.68206E-05   -0.34999E-05  2144   0.127E-02    0.204E-02
DAV:  24    -0.132777791011E+04   -0.62450E-05   -0.23532E-05  2064   0.103E-02    0.529E-03
DAV:  25    -0.132777790720E+04    0.29102E-05   -0.54197E-06  1112   0.660E-03    0.726E-03
DAV:  26    -0.132777790840E+04   -0.12012E-05   -0.26864E-06  1008   0.559E-03    0.359E-03
DAV:  27    -0.132777790962E+04   -0.12170E-05   -0.14037E-06   944   0.421E-03    0.849E-04
DAV:  28    -0.132777790883E+04    0.78818E-06   -0.90641E-07   920   0.411E-03
   1 F= -.13277779E+04 E0= -.13277779E+04  d E =-.132778E+04
 BRION: g(F)=  0.631E+02 g(S)=  0.000E+00
 bond charge predicted
       N       E                     dE             d eps       ncg     rms          rms(c)
DAV:   1    -0.129034591267E+04    0.37432E+02   -0.78947E+03  1672   0.132E+02    0.302E+01
DAV:   2    -0.135191392798E+04   -0.61568E+02   -0.71719E+02  2576   0.589E+01    0.149E+01
DAV:   3    -0.134954741610E+04    0.23665E+01   -0.41675E+01  2616   0.162E+01    0.972E+00
DAV:   4    -0.134681421677E+04    0.27332E+01   -0.15106E+01  2352   0.836E+00    0.462E+00
DAV:   5    -0.134662267917E+04    0.19154E+00   -0.55708E+00  2512   0.496E+00    0.351E+00
DAV:   6    -0.134653162608E+04    0.91053E-01   -0.34387E+00  2576   0.324E+00    0.201E+00
DAV:   7    -0.134645147682E+04    0.80149E-01   -0.48537E-01  2504   0.190E+00    0.103E+00
DAV:   8    -0.134646448205E+04   -0.13005E-01   -0.50293E-01  2576   0.119E+00    0.795E-01
DAV:   9    -0.134646658322E+04   -0.21012E-02   -0.72558E-02  2576   0.543E-01    0.645E-01
DAV:  10    -0.134646253773E+04    0.40455E-02   -0.37930E-02  2592   0.346E-01    0.350E-01
DAV:  11    -0.134646270845E+04   -0.17072E-03   -0.30969E-02  2568   0.292E-01    0.202E-01
DAV:  12    -0.134646287523E+04   -0.16678E-03   -0.45691E-03  2488   0.150E-01    0.170E-01
DAV:  13    -0.134646256886E+04    0.30636E-03   -0.24213E-03  2584   0.895E-02    0.702E-02
DAV:  14    -0.134646258468E+04   -0.15823E-04   -0.98178E-04  2576   0.539E-02    0.370E-02
DAV:  15    -0.134646258946E+04   -0.47786E-05   -0.17555E-04  2600   0.307E-02    0.271E-02
DAV:  16    -0.134646258427E+04    0.51978E-05   -0.10104E-04  2608   0.190E-02    0.209E-02
DAV:  17    -0.134646258334E+04    0.92949E-06   -0.27742E-05  2432   0.101E-02    0.134E-02
DAV:  18    -0.134646258129E+04    0.20469E-05   -0.12246E-05  1696   0.672E-03    0.715E-03
DAV:  19    -0.134646258122E+04    0.72774E-07   -0.49058E-06  1440   0.581E-03
   2 F= -.13464626E+04 E0= -.13464626E+04  d E =-.186847E+02
 BRION: g(F)=  0.625E+02 g(S)=  0.000E+00 retain N=  1 mean eig= 0.50
 eig:   0.501
 bond charge predicted
       N       E                     dE             d eps       ncg     rms          rms(c)
DAV:   1    -0.133172431584E+04    0.14738E+02   -0.28881E+03  1440   0.744E+01    0.183E+01
DAV:   2    -0.135869831450E+04   -0.26974E+02   -0.33141E+02  2544   0.344E+01    0.162E+01
DAV:   3    -0.135693576287E+04    0.17626E+01   -0.22962E+01  2608   0.113E+01    0.126E+01
DAV:   4    -0.135517970619E+04    0.17561E+01   -0.19309E+01  2176   0.610E+00    0.605E+00
DAV:   5    -0.135548468402E+04   -0.30498E+00   -0.59784E+00  2320   0.420E+00    0.681E+00
DAV:   6    -0.135473274368E+04    0.75194E+00   -0.86213E+00  2432   0.400E+00    0.169E+00
DAV:   7    -0.135475873054E+04   -0.25987E-01   -0.11918E+00  2392   0.243E+00    0.125E+00
DAV:   8    -0.135476728817E+04   -0.85576E-02   -0.47446E-01  2608   0.111E+00    0.644E-01
DAV:   9    -0.135476306843E+04    0.42197E-02   -0.66885E-02  2536   0.586E-01    0.349E-01
DAV:  10    -0.135476423823E+04   -0.11698E-02   -0.32915E-02  2424   0.332E-01    0.224E-01
DAV:  11    -0.135476436698E+04   -0.12874E-03   -0.90366E-03  2584   0.202E-01    0.223E-01
DAV:  12    -0.135476391930E+04    0.44768E-03   -0.74399E-03  2480   0.142E-01    0.121E-01
DAV:  13    -0.135476388367E+04    0.35631E-04   -0.29075E-03  2512   0.991E-02    0.763E-02
DAV:  14    -0.135476384227E+04    0.41401E-04   -0.63863E-04  2488   0.524E-02    0.463E-02
DAV:  15    -0.135476383810E+04    0.41652E-05   -0.29604E-04  2608   0.296E-02    0.174E-02
DAV:  16    -0.135476383773E+04    0.36678E-06   -0.52104E-05  2568   0.150E-02    0.734E-03
DAV:  17    -0.135476383957E+04   -0.18384E-05   -0.15903E-05  2160   0.889E-03    0.451E-03
DAV:  18    -0.135476383948E+04    0.96727E-07   -0.17242E-06  1056   0.432E-03
   3 F= -.13547638E+04 E0= -.13547638E+04  d E =-.830126E+01
 BRION: g(F)=  0.978E+01 g(S)=  0.000E+00 retain N=  2 mean eig= 1.58
 eig:   0.350  2.804
 bond charge predicted
       N       E                     dE             d eps       ncg     rms          rms(c)
DAV:   1    -0.135567960112E+04   -0.91576E+00   -0.44655E+02  1368   0.278E+01    0.569E+00
DAV:   2    -0.135810893002E+04   -0.24293E+01   -0.27519E+01  2392   0.112E+01    0.284E+00
DAV:   3    -0.135812212473E+04   -0.13195E-01   -0.18327E+00  2584   0.296E+00    0.235E+00
DAV:   4    -0.135804533806E+04    0.76787E-01   -0.51578E-01  2480   0.136E+00    0.118E+00
DAV:   5    -0.135804031299E+04    0.50251E-02   -0.22705E-01  2456   0.890E-01    0.908E-01
DAV:   6    -0.135803083523E+04    0.94778E-02   -0.11656E-01  2520   0.658E-01    0.479E-01
DAV:   7    -0.135803148499E+04   -0.64976E-03   -0.53594E-02  2536   0.402E-01    0.333E-01
DAV:   8    -0.135803073682E+04    0.74817E-03   -0.86784E-03  2600   0.192E-01    0.198E-01
DAV:   9    -0.135803045376E+04    0.28307E-03   -0.50215E-03  2544   0.123E-01    0.819E-02
DAV:  10    -0.135803055832E+04   -0.10456E-03   -0.14544E-03  2264   0.752E-02    0.680E-02
DAV:  11    -0.135803051509E+04    0.43229E-04   -0.35082E-04  2624   0.373E-02    0.355E-02
DAV:  12    -0.135803051720E+04   -0.21129E-05   -0.24346E-04  2536   0.252E-02    0.167E-02
DAV:  13    -0.135803051808E+04   -0.87918E-06   -0.32767E-05  2568   0.133E-02    0.901E-03
DAV:  14    -0.135803051889E+04   -0.80731E-06   -0.19386E-05  2296   0.765E-03    0.586E-03
DAV:  15    -0.135803051849E+04    0.39715E-06   -0.24214E-06  1104   0.502E-03
   4 F= -.13580305E+04 E0= -.13580305E+04  d E =-.326668E+01
 BRION: g(F)=  0.363E+01 g(S)=  0.000E+00 retain N=  3 mean eig= 1.69
 eig:   4.410  0.336  0.336
 bond charge predicted
       N       E                     dE             d eps       ncg     rms          rms(c)
DAV:   1    -0.135899748977E+04   -0.96697E+00   -0.17402E+02  1368   0.178E+01    0.288E+00
DAV:   2    -0.135985480314E+04   -0.85731E+00   -0.92182E+00  2304   0.675E+00    0.150E+00
DAV:   3    -0.135986686626E+04   -0.12063E-01   -0.62862E-01  2616   0.140E+00    0.124E+00
DAV:   4    -0.135983501978E+04    0.31846E-01   -0.16400E-01  2528   0.802E-01    0.598E-01
DAV:   5    -0.135983075517E+04    0.42646E-02   -0.58094E-02  2496   0.474E-01    0.401E-01
DAV:   6    -0.135983011350E+04    0.64167E-03   -0.40700E-02  2560   0.363E-01    0.190E-01
DAV:   7    -0.135983022064E+04   -0.10714E-03   -0.11080E-02  2256   0.197E-01    0.176E-01
DAV:   8    -0.135983013685E+04    0.83783E-04   -0.32701E-03  2352   0.951E-02    0.101E-01
DAV:   9    -0.135983005778E+04    0.79074E-04   -0.18281E-03  2536   0.712E-02    0.516E-02
DAV:  10    -0.135983007605E+04   -0.18269E-04   -0.57208E-04  2440   0.476E-02    0.492E-02
DAV:  11    -0.135983005667E+04    0.19382E-04   -0.24429E-04  2480   0.287E-02    0.202E-02
DAV:  12    -0.135983006195E+04   -0.52823E-05   -0.12414E-04  2432   0.187E-02    0.131E-02
DAV:  13    -0.135983006175E+04    0.19974E-06   -0.18176E-05  1936   0.993E-03    0.910E-03
DAV:  14    -0.135983006149E+04    0.26000E-06   -0.14083E-05  1640   0.684E-03    0.434E-03
DAV:  15    -0.135983006143E+04    0.54119E-07   -0.22920E-06  1056   0.484E-03
   5 F= -.13598301E+04 E0= -.13598301E+04  d E =-.179954E+01
 BRION: g(F)=  0.162E+01 g(S)=  0.000E+00 retain N=  4 mean eig= 1.49
 eig:   3.704  1.088  0.577  0.577
 bond charge predicted
       N       E                     dE             d eps       ncg     rms          rms(c)
DAV:   1    -0.136038640476E+04   -0.55634E+00   -0.16478E+02  1352   0.178E+01    0.258E+00
DAV:   2    -0.136117480493E+04   -0.78840E+00   -0.83424E+00  2288   0.653E+00    0.127E+00
DAV:   3    -0.136120104691E+04   -0.26242E-01   -0.57630E-01  2600   0.134E+00    0.104E+00
DAV:   4    -0.136118192699E+04    0.19120E-01   -0.93458E-02  2584   0.653E-01    0.600E-01
DAV:   5    -0.136117574473E+04    0.61823E-02   -0.46981E-02  2368   0.418E-01    0.285E-01
DAV:   6    -0.136117642522E+04   -0.68049E-03   -0.21092E-02  2560   0.276E-01    0.205E-01
DAV:   7    -0.136117629148E+04    0.13374E-03   -0.79316E-03  2520   0.161E-01    0.124E-01
DAV:   8    -0.136117628510E+04    0.63817E-05   -0.19934E-03  2600   0.867E-02    0.671E-02
DAV:   9    -0.136117626765E+04    0.17451E-04   -0.52494E-04  2616   0.461E-02    0.452E-02
DAV:  10    -0.136117628741E+04   -0.19760E-04   -0.35321E-04  2272   0.323E-02    0.358E-02
DAV:  11    -0.136117627068E+04    0.16724E-04   -0.14373E-04  2552   0.239E-02    0.140E-02
DAV:  12    -0.136117627395E+04   -0.32685E-05   -0.77159E-05  2392   0.160E-02    0.119E-02
DAV:  13    -0.136117627289E+04    0.10623E-05   -0.17957E-05  2016   0.908E-03    0.637E-03
DAV:  14    -0.136117627300E+04   -0.11281E-06   -0.86341E-06  1672   0.582E-03
   6 F= -.13611763E+04 E0= -.13611763E+04  d E =-.134621E+01
 BRION: g(F)=  0.900E+00 g(S)=  0.000E+00 retain N=  5 mean eig= 1.56
 eig:   2.810  2.810  0.579  0.789  0.789
 bond charge predicted
       N       E                     dE             d eps       ncg     rms          rms(c)
DAV:   1    -0.136149843380E+04   -0.32216E+00   -0.16143E+02  1376   0.181E+01    0.249E+00
DAV:   2    -0.136229935850E+04   -0.80092E+00   -0.83815E+00  2288   0.680E+00    0.121E+00
DAV:   3    -0.136233723076E+04   -0.37872E-01   -0.61713E-01  2608   0.133E+00    0.970E-01
DAV:   4    -0.136232110384E+04    0.16127E-01   -0.87729E-02  2568   0.666E-01    0.540E-01
DAV:   5    -0.136231750067E+04    0.36032E-02   -0.39007E-02  2408   0.407E-01    0.248E-01
DAV:   6    -0.136231848873E+04   -0.98805E-03   -0.17469E-02  2544   0.250E-01    0.173E-01
DAV:   7    -0.136231835352E+04    0.13521E-03   -0.43639E-03  2552   0.136E-01    0.113E-01
DAV:   8    -0.136231833650E+04    0.17024E-04   -0.17115E-03  2600   0.775E-02    0.574E-02
DAV:   9    -0.136231832407E+04    0.12429E-04   -0.30572E-04  2608   0.408E-02    0.368E-02
DAV:  10    -0.136231833204E+04   -0.79696E-05   -0.22643E-04  2344   0.285E-02    0.232E-02
DAV:  11    -0.136231833237E+04   -0.33755E-06   -0.78838E-05  2592   0.183E-02    0.113E-02
DAV:  12    -0.136231833319E+04   -0.81735E-06   -0.32705E-05  2328   0.112E-02    0.922E-03
DAV:  13    -0.136231833298E+04    0.20720E-06   -0.13015E-05  1832   0.780E-03    0.582E-03
DAV:  14    -0.136231833278E+04    0.20278E-06   -0.29950E-06  1088   0.531E-03
   7 F= -.13623183E+04 E0= -.13623183E+04  d E =-.114206E+01
 BRION: g(F)=  0.758E+00 g(S)=  0.000E+00 retain N=  6 mean eig= 1.65
 eig:   4.362  1.715  1.715  0.879  0.625  0.625
 bond charge predicted
       N       E                     dE             d eps       ncg     rms          rms(c)
DAV:   1    -0.136260653164E+04   -0.28820E+00   -0.49522E+01  1376   0.963E+00    0.144E+00
DAV:   2    -0.136285449776E+04   -0.24797E+00   -0.26197E+00  2272   0.371E+00    0.711E-01
DAV:   3    -0.136286301360E+04   -0.85158E-02   -0.18921E-01  2616   0.748E-01    0.546E-01
DAV:   4    -0.136285650629E+04    0.65073E-02   -0.29691E-02  2504   0.366E-01    0.285E-01
DAV:   5    -0.136285549350E+04    0.10128E-02   -0.12776E-02  2400   0.209E-01    0.136E-01
DAV:   6    -0.136285571859E+04   -0.22509E-03   -0.50861E-03  2592   0.128E-01    0.814E-02
DAV:   7    -0.136285570770E+04    0.10894E-04   -0.10518E-03  2480   0.683E-02    0.596E-02
DAV:   8    -0.136285570282E+04    0.48774E-05   -0.41010E-04  2552   0.366E-02    0.303E-02
DAV:   9    -0.136285570021E+04    0.26057E-05   -0.10650E-04  2552   0.225E-02    0.168E-02
DAV:  10    -0.136285570444E+04   -0.42290E-05   -0.67777E-05  2512   0.147E-02    0.141E-02
DAV:  11    -0.136285570246E+04    0.19790E-05   -0.22374E-05  2168   0.978E-03    0.531E-03
DAV:  12    -0.136285570267E+04   -0.20517E-06   -0.41760E-06  1192   0.581E-03
   8 F= -.13628557E+04 E0= -.13628557E+04  d E =-.537370E+00
 BRION: g(F)=  0.471E+00 g(S)=  0.000E+00 retain N=  7 mean eig= 2.03
 eig:   2.946  2.946  3.771  2.691  0.623  0.623  0.613
 bond charge predicted
       N       E                     dE             d eps       ncg     rms          rms(c)
DAV:   1    -0.136302746627E+04   -0.17176E+00   -0.12524E+02  1384   0.161E+01    0.190E+00
DAV:   2    -0.136368192944E+04   -0.65446E+00   -0.68823E+00  2280   0.636E+00    0.969E-01
DAV:   3    -0.136372084271E+04   -0.38913E-01   -0.53761E-01  2576   0.124E+00    0.785E-01
DAV:   4    -0.136371371965E+04    0.71231E-02   -0.55214E-02  2592   0.553E-01    0.553E-01
DAV:   5    -0.136370763733E+04    0.60823E-02   -0.29346E-02  2296   0.327E-01    0.216E-01
DAV:   6    -0.136370857256E+04   -0.93523E-03   -0.16085E-02  2464   0.239E-01    0.178E-01
DAV:   7    -0.136370850316E+04    0.69397E-04   -0.77808E-03  2464   0.160E-01    0.122E-01
DAV:   8    -0.136370845786E+04    0.45294E-04   -0.26238E-03  2624   0.102E-01    0.717E-02
DAV:   9    -0.136370843434E+04    0.23522E-04   -0.52479E-04  2528   0.485E-02    0.494E-02
DAV:  10    -0.136370844115E+04   -0.68117E-05   -0.24457E-04  2608   0.289E-02    0.263E-02
DAV:  11    -0.136370844694E+04   -0.57885E-05   -0.10937E-04  2488   0.217E-02    0.173E-02
DAV:  12    -0.136370844420E+04    0.27379E-05   -0.38424E-05  2344   0.156E-02    0.134E-02
DAV:  13    -0.136370844380E+04    0.40536E-06   -0.34930E-05  2192   0.996E-03    0.759E-03
DAV:  14    -0.136370844317E+04    0.62428E-06   -0.42278E-06  1248   0.567E-03
   9 F= -.13637084E+04 E0= -.13637084E+04  d E =-.852741E+00
 BRION: g(F)=  0.284E+00 g(S)=  0.000E+00 retain N=  8 mean eig= 2.80
 eig:   6.359  6.359  3.697  2.561  0.934  0.934  0.642  0.936
 bond charge predicted
       N       E                     dE             d eps       ncg     rms          rms(c)
DAV:   1    -0.136374797851E+04   -0.39535E-01   -0.12307E+02  1384   0.159E+01    0.189E+00
DAV:   2    -0.136439019254E+04   -0.64221E+00   -0.67387E+00  2296   0.635E+00    0.951E-01
DAV:   3    -0.136442563920E+04   -0.35447E-01   -0.51359E-01  2600   0.120E+00    0.764E-01
DAV:   4    -0.136441713528E+04    0.85039E-02   -0.52161E-02  2600   0.543E-01    0.520E-01
DAV:   5    -0.136441070482E+04    0.64305E-02   -0.26953E-02  2304   0.320E-01    0.199E-01
DAV:   6    -0.136441165585E+04   -0.95103E-03   -0.15511E-02  2456   0.233E-01    0.162E-01
DAV:   7    -0.136441156305E+04    0.92799E-04   -0.63113E-03  2424   0.145E-01    0.112E-01
DAV:   8    -0.136441154171E+04    0.21338E-04   -0.22859E-03  2616   0.933E-02    0.639E-02
DAV:   9    -0.136441152290E+04    0.18817E-04   -0.45558E-04  2504   0.460E-02    0.468E-02
DAV:  10    -0.136441152614E+04   -0.32448E-05   -0.23118E-04  2560   0.281E-02    0.256E-02
DAV:  11    -0.136441152776E+04   -0.16187E-05   -0.96482E-05  2472   0.206E-02    0.140E-02
DAV:  12    -0.136441152813E+04   -0.37067E-06   -0.36692E-05  2352   0.142E-02    0.124E-02
DAV:  13    -0.136441152719E+04    0.93515E-06   -0.23293E-05  2120   0.869E-03    0.664E-03
DAV:  14    -0.136441152691E+04    0.28113E-06   -0.52826E-06  1360   0.572E-03
  10 F= -.13644115E+04 E0= -.13644115E+04  d E =-.703084E+00
 BRION: g(F)=  0.218E+00 g(S)=  0.000E+00 retain N=  7 mean eig= 2.61
 eig:   5.318  5.318  2.169  2.169  1.291  1.291  0.744
 bond charge predicted
       N       E                     dE             d eps       ncg     rms          rms(c)
DAV:   1    -0.136452813777E+04   -0.11661E+00   -0.53382E+01  1392   0.105E+01    0.129E+00
DAV:   2    -0.136480543057E+04   -0.27729E+00   -0.29310E+00  2296   0.418E+00    0.633E-01
DAV:   3    -0.136482050240E+04   -0.15072E-01   -0.22616E-01  2600   0.799E-01    0.517E-01
DAV:   4    -0.136481628652E+04    0.42159E-02   -0.24210E-02  2600   0.367E-01    0.343E-01
DAV:   5    -0.136481324902E+04    0.30375E-02   -0.13136E-02  2256   0.236E-01    0.129E-01
DAV:   6    -0.136481377037E+04   -0.52135E-03   -0.81069E-03  2472   0.173E-01    0.124E-01
DAV:   7    -0.136481369639E+04    0.73979E-04   -0.30513E-03  2440   0.101E-01    0.854E-02
DAV:   8    -0.136481367287E+04    0.23522E-04   -0.11208E-03  2584   0.635E-02    0.423E-02
DAV:   9    -0.136481366186E+04    0.11010E-04   -0.21128E-04  2392   0.320E-02    0.319E-02
DAV:  10    -0.136481366460E+04   -0.27362E-05   -0.11594E-04  2328   0.204E-02    0.208E-02
DAV:  11    -0.136481366178E+04    0.28210E-05   -0.49410E-05  2392   0.150E-02    0.969E-03
DAV:  12    -0.136481366339E+04   -0.16187E-05   -0.26496E-05  2312   0.103E-02    0.102E-02
DAV:  13    -0.136481366217E+04    0.12213E-05   -0.93396E-06  1640   0.666E-03    0.469E-03
DAV:  14    -0.136481366209E+04    0.87675E-07   -0.24833E-06  1048   0.552E-03
  11 F= -.13648137E+04 E0= -.13648137E+04  d E =-.402135E+00
 BRION: g(F)=  0.169E+00 g(S)=  0.000E+00 retain N=  6 mean eig= 3.84
 eig:   7.897  7.897  2.552  2.552  1.062  1.062
 bond charge predicted
       N       E                     dE             d eps       ncg     rms          rms(c)
DAV:   1    -0.136471714482E+04    0.96517E-01   -0.10200E+02  1392   0.146E+01    0.170E+00
DAV:   2    -0.136525928561E+04   -0.54214E+00   -0.57243E+00  2312   0.599E+00    0.866E-01
DAV:   3    -0.136528956152E+04   -0.30276E-01   -0.43711E-01  2592   0.110E+00    0.703E-01
DAV:   4    -0.136528310673E+04    0.64548E-02   -0.41242E-02  2600   0.489E-01    0.512E-01
DAV:   5    -0.136527624623E+04    0.68605E-02   -0.23974E-02  2264   0.303E-01    0.205E-01
DAV:   6    -0.136527682595E+04   -0.57972E-03   -0.15972E-02  2376   0.234E-01    0.164E-01
DAV:   7    -0.136527679793E+04    0.28028E-04   -0.74501E-03  2408   0.151E-01    0.119E-01
DAV:   8    -0.136527674265E+04    0.55274E-04   -0.23982E-03  2592   0.100E-01    0.678E-02
DAV:   9    -0.136527671611E+04    0.26546E-04   -0.58412E-04  2464   0.491E-02    0.454E-02
DAV:  10    -0.136527672505E+04   -0.89420E-05   -0.21126E-04  2520   0.278E-02    0.268E-02
DAV:  11    -0.136527672658E+04   -0.15295E-05   -0.98057E-05  2488   0.207E-02    0.162E-02
DAV:  12    -0.136527672605E+04    0.52260E-06   -0.45663E-05  2384   0.150E-02    0.147E-02
DAV:  13    -0.136527672466E+04    0.13985E-05   -0.28145E-05  2264   0.950E-03    0.824E-03
DAV:  14    -0.136527672426E+04    0.39785E-06   -0.86390E-06  1728   0.581E-03
  12 F= -.13652767E+04 E0= -.13652767E+04  d E =-.463062E+00
 BRION: g(F)=  0.124E+00 g(S)=  0.000E+00 retain N=  3 mean eig= 5.47
 eig:   7.394  7.394  1.631
 bond charge predicted
       N       E                     dE             d eps       ncg     rms          rms(c)
DAV:   1    -0.136534540990E+04   -0.68685E-01   -0.33607E+01  1392   0.837E+00    0.976E-01
DAV:   2    -0.136552369229E+04   -0.17828E+00   -0.18808E+00  2320   0.341E+00    0.497E-01
DAV:   3    -0.136553397727E+04   -0.10285E-01   -0.14563E-01  2592   0.631E-01    0.402E-01
DAV:   4    -0.136553190099E+04    0.20763E-02   -0.13782E-02  2608   0.282E-01    0.290E-01
DAV:   5    -0.136552975067E+04    0.21503E-02   -0.70281E-03  2312   0.173E-01    0.118E-01
DAV:   6    -0.136552989367E+04   -0.14301E-03   -0.53423E-03  2392   0.138E-01    0.865E-02
DAV:   7    -0.136552991121E+04   -0.17539E-04   -0.23485E-03  2400   0.867E-02    0.679E-02
DAV:   8    -0.136552989701E+04    0.14198E-04   -0.72084E-04  2584   0.541E-02    0.386E-02
DAV:   9    -0.136552988568E+04    0.11333E-04   -0.22014E-04  2512   0.291E-02    0.246E-02
DAV:  10    -0.136552988980E+04   -0.41165E-05   -0.75749E-05  2520   0.174E-02    0.175E-02
DAV:  11    -0.136552988914E+04    0.66112E-06   -0.37816E-05  2296   0.126E-02    0.107E-02
DAV:  12    -0.136552988835E+04    0.79199E-06   -0.17067E-05  2120   0.986E-03    0.841E-03
DAV:  13    -0.136552988804E+04    0.30349E-06   -0.12067E-05  1776   0.670E-03    0.452E-03
DAV:  14    -0.136552988781E+04    0.23030E-06   -0.19203E-06   976   0.471E-03
  13 F= -.13655299E+04 E0= -.13655299E+04  d E =-.253164E+00
 BRION: g(F)=  0.116E+00 g(S)=  0.000E+00 retain N=  3 mean eig= 3.06
 eig:   3.868  3.868  1.457
 bond charge predicted
       N       E                     dE             d eps       ncg     rms          rms(c)
DAV:   1    -0.136559492201E+04   -0.65034E-01   -0.22432E+01  1392   0.686E+00    0.792E-01
DAV:   2    -0.136571334103E+04   -0.11842E+00   -0.12511E+00  2312   0.279E+00    0.403E-01
DAV:   3    -0.136572031423E+04   -0.69732E-02   -0.97393E-02  2592   0.517E-01    0.324E-01
DAV:   4    -0.136571898456E+04    0.13297E-02   -0.87313E-03  2600   0.227E-01    0.238E-01
DAV:   5    -0.136571752193E+04    0.14626E-02   -0.50439E-03  2288   0.148E-01    0.944E-02
DAV:   6    -0.136571765958E+04   -0.13765E-03   -0.36664E-03  2416   0.114E-01    0.770E-02
DAV:   7    -0.136571766087E+04   -0.12945E-05   -0.14344E-03  2408   0.684E-02    0.565E-02
DAV:   8    -0.136571764924E+04    0.11638E-04   -0.48798E-04  2584   0.438E-02    0.302E-02
DAV:   9    -0.136571763960E+04    0.96365E-05   -0.12785E-04  2272   0.230E-02    0.195E-02
DAV:  10    -0.136571764218E+04   -0.25757E-05   -0.48254E-05  2432   0.137E-02    0.127E-02
DAV:  11    -0.136571764133E+04    0.84378E-06   -0.19060E-05  2152   0.942E-03    0.623E-03
DAV:  12    -0.136571764168E+04   -0.34504E-06   -0.72504E-06  1664   0.667E-03
  14 F= -.13657176E+04 E0= -.13657176E+04  d E =-.187754E+00
 BRION: g(F)=  0.101E+00 g(S)=  0.000E+00 retain N=  3 mean eig= 4.25
 eig:   5.630  5.630  1.489
 bond charge predicted
       N       E                     dE             d eps       ncg     rms          rms(c)
DAV:   1    -0.136578162487E+04   -0.63984E-01   -0.22862E+01  1384   0.693E+00    0.776E-01
DAV:   2    -0.136590345543E+04   -0.12183E+00   -0.12835E+00  2296   0.282E+00    0.397E-01
DAV:   3    -0.136591122000E+04   -0.77646E-02   -0.10184E-01  2584   0.524E-01    0.323E-01
DAV:   4    -0.136591029307E+04    0.92693E-03   -0.87413E-03  2608   0.227E-01    0.252E-01
DAV:   5    -0.136590876177E+04    0.15313E-02   -0.43915E-03  2352   0.141E-01    0.116E-01
DAV:   6    -0.136590872791E+04    0.33865E-04   -0.41408E-03  2232   0.122E-01    0.729E-02
DAV:   7    -0.136590877955E+04   -0.51645E-04   -0.21509E-03  2424   0.831E-02    0.640E-02
DAV:   8    -0.136590876511E+04    0.14436E-04   -0.51461E-04  2568   0.485E-02    0.430E-02
DAV:   9    -0.136590874259E+04    0.22528E-04   -0.22733E-04  2496   0.277E-02    0.215E-02
DAV:  10    -0.136590874828E+04   -0.56927E-05   -0.81650E-05  2544   0.177E-02    0.147E-02
DAV:  11    -0.136590874919E+04   -0.91300E-06   -0.26812E-05  2136   0.107E-02    0.117E-02
DAV:  12    -0.136590874777E+04    0.14190E-05   -0.17571E-05  2104   0.937E-03    0.938E-03
DAV:  13    -0.136590874727E+04    0.50418E-06   -0.11882E-05  1752   0.675E-03    0.593E-03
DAV:  14    -0.136590874678E+04    0.48685E-06   -0.16261E-06   936   0.454E-03
  15 F= -.13659087E+04 E0= -.13659087E+04  d E =-.191105E+00
 BRION: g(F)=  0.943E-01 g(S)=  0.000E+00 retain N=  3 mean eig= 4.51
 eig:   6.087  6.087  1.352
 bond charge predicted
       N       E                     dE             d eps       ncg     rms          rms(c)
DAV:   1    -0.136597298697E+04   -0.64240E-01   -0.20693E+01  1376   0.655E+00    0.719E-01
DAV:   2    -0.136608198897E+04   -0.10900E+00   -0.11445E+00  2304   0.263E+00    0.369E-01
DAV:   3    -0.136608900752E+04   -0.70186E-02   -0.91328E-02  2568   0.497E-01    0.300E-01
DAV:   4    -0.136608829133E+04    0.71619E-03   -0.77469E-03  2608   0.212E-01    0.239E-01
DAV:   5    -0.136608687050E+04    0.14208E-02   -0.35143E-03  2376   0.131E-01    0.120E-01
DAV:   6    -0.136608671046E+04    0.16004E-03   -0.40669E-03  2176   0.125E-01    0.660E-02
DAV:   7    -0.136608680324E+04   -0.92783E-04   -0.23783E-03  2400   0.859E-02    0.659E-02
DAV:   8    -0.136608679534E+04    0.79020E-05   -0.43079E-04  2528   0.474E-02    0.499E-02
DAV:   9    -0.136608675655E+04    0.38791E-04   -0.24899E-04  2464   0.293E-02    0.243E-02
DAV:  10    -0.136608676455E+04   -0.79999E-05   -0.14383E-04  2536   0.215E-02    0.164E-02
DAV:  11    -0.136608676475E+04   -0.19935E-06   -0.42566E-05  2160   0.129E-02    0.124E-02
DAV:  12    -0.136608676348E+04    0.12667E-05   -0.23642E-05  2200   0.110E-02    0.113E-02
DAV:  13    -0.136608676274E+04    0.74228E-06   -0.16932E-05  1952   0.783E-03    0.769E-03
DAV:  14    -0.136608676209E+04    0.64884E-06   -0.17787E-06   968   0.478E-03
  16 F= -.13660868E+04 E0= -.13660868E+04  d E =-.178015E+00
 BRION: g(F)=  0.893E-01 g(S)=  0.000E+00 retain N=  3 mean eig= 3.97
 eig:   5.292  5.292  1.333
 bond charge predicted
       N       E                     dE             d eps       ncg     rms          rms(c)
DAV:   1    -0.136610481806E+04   -0.18055E-01   -0.40102E+01  1384   0.911E+00    0.101E+00
DAV:   2    -0.136631555385E+04   -0.21074E+00   -0.22152E+00  2296   0.365E+00    0.514E-01
DAV:   3    -0.136632943943E+04   -0.13886E-01   -0.17879E-01  2560   0.702E-01    0.422E-01
DAV:   4    -0.136632816108E+04    0.12784E-02   -0.15553E-02  2616   0.295E-01    0.335E-01
DAV:   5    -0.136632551242E+04    0.26487E-02   -0.70013E-03  2392   0.181E-01    0.170E-01
DAV:   6    -0.136632521379E+04    0.29863E-03   -0.77501E-03  2184   0.171E-01    0.942E-02
DAV:   7    -0.136632538136E+04   -0.16757E-03   -0.45214E-03  2408   0.119E-01    0.940E-02
DAV:   8    -0.136632536096E+04    0.20398E-04   -0.87841E-04  2536   0.664E-02    0.734E-02
DAV:   9    -0.136632528283E+04    0.78130E-04   -0.46145E-04  2384   0.395E-02    0.363E-02
DAV:  10    -0.136632529643E+04   -0.13598E-04   -0.30349E-04  2464   0.299E-02    0.216E-02
DAV:  11    -0.136632530003E+04   -0.36010E-05   -0.82591E-05  2104   0.182E-02    0.183E-02
DAV:  12    -0.136632529695E+04    0.30768E-05   -0.56453E-05  2256   0.163E-02    0.175E-02
DAV:  13    -0.136632529434E+04    0.26111E-05   -0.41322E-05  2200   0.119E-02    0.116E-02
DAV:  14    -0.136632529331E+04    0.10356E-05   -0.10159E-05  1704   0.699E-03    0.548E-03
DAV:  15    -0.136632529294E+04    0.36691E-06   -0.22096E-06   960   0.465E-03
  17 F= -.13663253E+04 E0= -.13663253E+04  d E =-.238531E+00
 BRION: g(F)=  0.822E-01 g(S)=  0.000E+00 retain N=  2 mean eig= 3.88
 eig:   3.881  3.881
 bond charge predicted
       N       E                     dE             d eps       ncg     rms          rms(c)
DAV:   1    -0.136634810945E+04   -0.22816E-01   -0.36959E+01  1384   0.869E+00    0.941E-01
DAV:   2    -0.136653835829E+04   -0.19025E+00   -0.19929E+00  2288   0.340E+00    0.485E-01
DAV:   3    -0.136655101409E+04   -0.12656E-01   -0.16208E-01  2560   0.664E-01    0.395E-01
DAV:   4    -0.136654993044E+04    0.10837E-02   -0.13821E-02  2616   0.277E-01    0.315E-01
DAV:   5    -0.136654759445E+04    0.23360E-02   -0.58868E-03  2408   0.166E-01    0.164E-01
DAV:   6    -0.136654724755E+04    0.34690E-03   -0.67722E-03  2176   0.158E-01    0.841E-02
DAV:   7    -0.136654741558E+04   -0.16803E-03   -0.39723E-03  2416   0.111E-01    0.865E-02
DAV:   8    -0.136654740352E+04    0.12059E-04   -0.73848E-04  2520   0.614E-02    0.701E-02
DAV:   9    -0.136654733126E+04    0.72257E-04   -0.38224E-04  2424   0.365E-02    0.360E-02
DAV:  10    -0.136654734109E+04   -0.98277E-05   -0.28482E-04  2416   0.286E-02    0.198E-02
DAV:  11    -0.136654734452E+04   -0.34254E-05   -0.70083E-05  2152   0.172E-02    0.165E-02
DAV:  12    -0.136654734193E+04    0.25899E-05   -0.46931E-05  2232   0.146E-02    0.159E-02
DAV:  13    -0.136654733975E+04    0.21754E-05   -0.35434E-05  2184   0.110E-02    0.105E-02
DAV:  14    -0.136654733888E+04    0.87274E-06   -0.82194E-06  1648   0.641E-03
  18 F= -.13665473E+04 E0= -.13665473E+04  d E =-.222046E+00
 BRION: g(F)=  0.767E-01 g(S)=  0.000E+00 retain N=  3 mean eig= 5.22
 eig:   2.091  6.780  6.780
 bond charge predicted
       N       E                     dE             d eps       ncg     rms          rms(c)
DAV:   1    -0.136658317502E+04   -0.35835E-01   -0.27489E+01  1360   0.746E+00    0.820E-01
DAV:   2    -0.136672430463E+04   -0.14113E+00   -0.14778E+00  2288   0.289E+00    0.421E-01
DAV:   3    -0.136673352313E+04   -0.92185E-02   -0.11898E-01  2560   0.565E-01    0.341E-01
DAV:   4    -0.136673265519E+04    0.86793E-03   -0.10244E-02  2600   0.237E-01    0.268E-01
DAV:   5    -0.136673086728E+04    0.17879E-02   -0.45276E-03  2400   0.147E-01    0.133E-01
DAV:   6    -0.136673070342E+04    0.16386E-03   -0.49417E-03  2192   0.134E-01    0.702E-02
DAV:   7    -0.136673081067E+04   -0.10725E-03   -0.25965E-03  2416   0.901E-02    0.702E-02
DAV:   8    -0.136673079758E+04    0.13088E-04   -0.52420E-04  2568   0.503E-02    0.521E-02
DAV:   9    -0.136673075879E+04    0.38786E-04   -0.27695E-04  2448   0.309E-02    0.253E-02
DAV:  10    -0.136673076750E+04   -0.87109E-05   -0.15122E-04  2464   0.219E-02    0.168E-02
DAV:  11    -0.136673076782E+04   -0.31824E-06   -0.35076E-05  2184   0.125E-02    0.125E-02
DAV:  12    -0.136673076660E+04    0.12257E-05   -0.28501E-05  2200   0.110E-02    0.115E-02
DAV:  13    -0.136673076538E+04    0.12142E-05   -0.17204E-05  1944   0.808E-03    0.706E-03
DAV:  14    -0.136673076488E+04    0.50379E-06   -0.20151E-06   960   0.501E-03
  19 F= -.13667308E+04 E0= -.13667308E+04  d E =-.183426E+00
 BRION: g(F)=  0.728E-01 g(S)=  0.000E+00 retain N=  3 mean eig= 5.79
 eig:   7.708  7.708  1.946
 bond charge predicted
       N       E                     dE             d eps       ncg     rms          rms(c)
DAV:   1    -0.136670287143E+04    0.27894E-01   -0.47470E+01  1360   0.981E+00    0.106E+00
DAV:   2    -0.136694576017E+04   -0.24289E+00   -0.25420E+00  2280   0.377E+00    0.549E-01
DAV:   3    -0.136696178790E+04   -0.16028E-01   -0.20599E-01  2568   0.746E-01    0.446E-01
DAV:   4    -0.136696039547E+04    0.13924E-02   -0.17345E-02  2600   0.310E-01    0.354E-01
DAV:   5    -0.136695739437E+04    0.30011E-02   -0.74716E-03  2424   0.184E-01    0.182E-01
DAV:   6    -0.136695695729E+04    0.43708E-03   -0.82523E-03  2152   0.172E-01    0.904E-02
DAV:   7    -0.136695718265E+04   -0.22536E-03   -0.48295E-03  2440   0.121E-01    0.956E-02
DAV:   8    -0.136695715899E+04    0.23661E-04   -0.91603E-04  2512   0.680E-02    0.761E-02
DAV:   9    -0.136695707822E+04    0.80768E-04   -0.46140E-04  2376   0.396E-02    0.389E-02
DAV:  10    -0.136695708924E+04   -0.11024E-04   -0.31792E-04  2352   0.303E-02    0.205E-02
DAV:  11    -0.136695709400E+04   -0.47605E-05   -0.70006E-05  2064   0.174E-02    0.176E-02
DAV:  12    -0.136695709115E+04    0.28598E-05   -0.57524E-05  2208   0.155E-02    0.171E-02
DAV:  13    -0.136695708815E+04    0.29957E-05   -0.40472E-05  2232   0.120E-02    0.108E-02
DAV:  14    -0.136695708742E+04    0.73234E-06   -0.93192E-06  1712   0.700E-03
  20 F= -.13669571E+04 E0= -.13669571E+04  d E =-.226323E+00
 BRION: g(F)=  0.649E-01 g(S)=  0.000E+00 retain N=  2 mean eig= 3.58
 eig:   3.584  3.584
