 running on  160 total cores
 distrk:  each k-point on  160 cores,    1 groups
 distr:  one band on   20 cores,    8 groups
 using from now: INCAR     
 vasp.5.4.4.18Apr17-6-g9f103f2a35 (build May 01 2020 14:22:42) gamma-only       
  
 POSCAR found type information on POSCAR  O  La Zr Li Al
 POSCAR found :  5 types and     190 ions
 scaLAPACK will be used
 LDA part: xc-table for Pade appr. of Perdew
 POSCAR, INCAR and KPOINTS ok, starting setup
 FFT: planning ...
 WAVECAR not read
 WARNING: random wavefunctions but no delay for mixing, default for NELMDL
 entering main loop
       N       E                     dE             d eps       ncg     rms          rms(c)
DAV:   1     0.253019506930E+05    0.25302E+05   -0.42148E+05  1600   0.253E+03
DAV:   2     0.940683935549E+04   -0.15895E+05   -0.14704E+05  1440   0.707E+02
DAV:   3     0.263153105378E+04   -0.67753E+04   -0.61926E+04  1544   0.355E+02
DAV:   4    -0.387174845506E+03   -0.30187E+04   -0.28223E+04  2056   0.225E+02
DAV:   5    -0.141595345272E+04   -0.10288E+04   -0.99278E+03  2536   0.138E+02    0.117E+02
DAV:   6    -0.129650513241E+04    0.11945E+03   -0.14075E+03  2416   0.660E+01    0.500E+01
DAV:   7    -0.131997080926E+04   -0.23466E+02   -0.39411E+02  2576   0.340E+01    0.248E+01
DAV:   8    -0.132788550949E+04   -0.79147E+01   -0.24378E+02  2544   0.265E+01    0.247E+01
DAV:   9    -0.132236275959E+04    0.55227E+01   -0.48380E+01  2528   0.143E+01    0.803E+00
DAV:  10    -0.132314591448E+04   -0.78315E+00   -0.17329E+01  2608   0.783E+00    0.718E+00
DAV:  11    -0.132352725300E+04   -0.38134E+00   -0.55708E+00  2624   0.421E+00    0.449E+00
DAV:  12    -0.132338357832E+04    0.14367E+00   -0.22859E+00  2568   0.342E+00    0.325E+00
DAV:  13    -0.132343763594E+04   -0.54058E-01   -0.99223E-01  2568   0.181E+00    0.218E+00
DAV:  14    -0.132341879871E+04    0.18837E-01   -0.27908E-01  2616   0.110E+00    0.123E+00
DAV:  15    -0.132342519827E+04   -0.63996E-02   -0.95804E-02  2576   0.596E-01    0.909E-01
DAV:  16    -0.132342581124E+04   -0.61297E-03   -0.31986E-02  2624   0.336E-01    0.617E-01
DAV:  17    -0.132342550164E+04    0.30959E-03   -0.22986E-02  2400   0.291E-01    0.393E-01
DAV:  18    -0.132342579674E+04   -0.29510E-03   -0.50636E-03  2392   0.149E-01    0.163E-01
DAV:  19    -0.132342572056E+04    0.76185E-04   -0.21214E-03  2608   0.923E-02    0.135E-01
DAV:  20    -0.132342573154E+04   -0.10977E-04   -0.85120E-04  2552   0.498E-02    0.561E-02
DAV:  21    -0.132342575433E+04   -0.22798E-04   -0.22675E-04  2624   0.277E-02    0.470E-02
DAV:  22    -0.132342577373E+04   -0.19398E-04   -0.85461E-05  2496   0.173E-02    0.197E-02
DAV:  23    -0.132342577124E+04    0.24917E-05   -0.36282E-05  2064   0.112E-02    0.163E-02
DAV:  24    -0.132342577657E+04   -0.53330E-05   -0.18786E-05  1728   0.883E-03    0.581E-03
DAV:  25    -0.132342577661E+04   -0.31170E-07   -0.52029E-06  1040   0.538E-03
   1 F= -.13234258E+04 E0= -.13234249E+04  d E =-.132343E+04
 BRION: g(F)=  0.689E+02 g(S)=  0.000E+00
 bond charge predicted
       N       E                     dE             d eps       ncg     rms          rms(c)
DAV:   1    -0.129436254561E+04    0.29063E+02   -0.75048E+03  1744   0.132E+02    0.283E+01
DAV:   2    -0.135220235746E+04   -0.57840E+02   -0.67114E+02  2552   0.598E+01    0.150E+01
DAV:   3    -0.135065926256E+04    0.15431E+01   -0.42280E+01  2616   0.169E+01    0.103E+01
DAV:   4    -0.134846067842E+04    0.21986E+01   -0.13158E+01  2496   0.740E+00    0.522E+00
DAV:   5    -0.134804912804E+04    0.41155E+00   -0.35953E+00  2568   0.449E+00    0.338E+00
DAV:   6    -0.134791670577E+04    0.13242E+00   -0.34349E+00  2520   0.365E+00    0.191E+00
DAV:   7    -0.134791226307E+04    0.44427E-02   -0.91376E-01  2528   0.209E+00    0.146E+00
DAV:   8    -0.134790759979E+04    0.46633E-02   -0.38817E-01  2624   0.108E+00    0.748E-01
DAV:   9    -0.134790651245E+04    0.10873E-02   -0.65311E-02  2624   0.545E-01    0.399E-01
DAV:  10    -0.134790489249E+04    0.16200E-02   -0.21130E-02  2592   0.339E-01    0.213E-01
DAV:  11    -0.134790576552E+04   -0.87303E-03   -0.14746E-02  2624   0.251E-01    0.213E-01
DAV:  12    -0.134790541957E+04    0.34594E-03   -0.57943E-03  2544   0.142E-01    0.696E-02
DAV:  13    -0.134790552107E+04   -0.10150E-03   -0.18197E-03  2608   0.816E-02    0.391E-02
DAV:  14    -0.134790554414E+04   -0.23068E-04   -0.23476E-04  2624   0.362E-02    0.283E-02
DAV:  15    -0.134790553905E+04    0.50886E-05   -0.10596E-04  2536   0.206E-02    0.147E-02
DAV:  16    -0.134790554348E+04   -0.44267E-05   -0.50107E-05  2616   0.146E-02    0.916E-03
DAV:  17    -0.134790554307E+04    0.40619E-06   -0.67788E-06  1496   0.725E-03
   2 F= -.13479055E+04 E0= -.13479055E+04  d E =-.244798E+02
 BRION: g(F)=  0.317E+02 g(S)=  0.000E+00 retain N=  1 mean eig= 0.63
 eig:   0.633
 bond charge predicted
       N       E                     dE             d eps       ncg     rms          rms(c)
DAV:   1    -0.133697547525E+04    0.10930E+02   -0.27224E+03  1448   0.743E+01    0.149E+01
DAV:   2    -0.135655813912E+04   -0.19583E+02   -0.23837E+02  2488   0.326E+01    0.123E+01
DAV:   3    -0.135650347275E+04    0.54666E-01   -0.17222E+01  2592   0.103E+01    0.992E+00
DAV:   4    -0.135558251963E+04    0.92095E+00   -0.72557E+00  2368   0.458E+00    0.537E+00
DAV:   5    -0.135550597700E+04    0.76543E-01   -0.27631E+00  2264   0.343E+00    0.434E+00
DAV:   6    -0.135522436662E+04    0.28161E+00   -0.25851E+00  2496   0.313E+00    0.183E+00
DAV:   7    -0.135525275771E+04   -0.28391E-01   -0.10311E+00  2464   0.180E+00    0.125E+00
DAV:   8    -0.135524030094E+04    0.12457E-01   -0.19680E-01  2600   0.854E-01    0.499E-01
DAV:   9    -0.135524117258E+04   -0.87164E-03   -0.57390E-02  2616   0.446E-01    0.361E-01
DAV:  10    -0.135524155991E+04   -0.38733E-03   -0.15107E-02  2288   0.249E-01    0.263E-01
DAV:  11    -0.135524091726E+04    0.64264E-03   -0.76862E-03  2352   0.158E-01    0.106E-01
DAV:  12    -0.135524103016E+04   -0.11290E-03   -0.29494E-03  2576   0.102E-01    0.690E-02
DAV:  13    -0.135524101188E+04    0.18283E-04   -0.57398E-04  2616   0.545E-02    0.364E-02
DAV:  14    -0.135524102325E+04   -0.11371E-04   -0.30276E-04  2568   0.298E-02    0.157E-02
DAV:  15    -0.135524102719E+04   -0.39362E-05   -0.59953E-05  2624   0.172E-02    0.882E-03
DAV:  16    -0.135524102848E+04   -0.12977E-05   -0.20174E-05  2312   0.922E-03    0.786E-03
DAV:  17    -0.135524102844E+04    0.47716E-07   -0.65718E-06  1536   0.598E-03
   3 F= -.13552410E+04 E0= -.13552410E+04  d E =-.733549E+01
 BRION: g(F)=  0.676E+01 g(S)=  0.000E+00 retain N=  2 mean eig= 0.82
 eig:   0.453  1.177
 bond charge predicted
       N       E                     dE             d eps       ncg     rms          rms(c)
DAV:   1    -0.135627181882E+04   -0.10308E+01   -0.36739E+02  1368   0.269E+01    0.547E+00
DAV:   2    -0.135819944009E+04   -0.19276E+01   -0.21823E+01  2392   0.109E+01    0.264E+00
DAV:   3    -0.135819485906E+04    0.45810E-02   -0.14837E+00  2600   0.264E+00    0.203E+00
DAV:   4    -0.135812926667E+04    0.65592E-01   -0.46695E-01  2480   0.141E+00    0.923E-01
DAV:   5    -0.135812249478E+04    0.67719E-02   -0.13454E-01  2448   0.833E-01    0.629E-01
DAV:   6    -0.135812301694E+04   -0.52216E-03   -0.12214E-01  2576   0.614E-01    0.344E-01
DAV:   7    -0.135812264782E+04    0.36913E-03   -0.19076E-02  2480   0.303E-01    0.276E-01
DAV:   8    -0.135812240565E+04    0.24217E-03   -0.12757E-02  2352   0.181E-01    0.122E-01
DAV:   9    -0.135812246473E+04   -0.59083E-04   -0.32069E-03  2624   0.113E-01    0.942E-02
DAV:  10    -0.135812241001E+04    0.54726E-04   -0.12624E-03  2520   0.722E-02    0.567E-02
DAV:  11    -0.135812241894E+04   -0.89362E-05   -0.63458E-04  2536   0.492E-02    0.300E-02
DAV:  12    -0.135812242550E+04   -0.65550E-05   -0.19601E-04  2624   0.251E-02    0.204E-02
DAV:  13    -0.135812242360E+04    0.19009E-05   -0.44704E-05  2560   0.157E-02    0.106E-02
DAV:  14    -0.135812242486E+04   -0.12642E-05   -0.32742E-05  2472   0.974E-03    0.639E-03
DAV:  15    -0.135812242470E+04    0.16399E-06   -0.24664E-06  1136   0.564E-03
   4 F= -.13581224E+04 E0= -.13581224E+04  d E =-.288140E+01
 BRION: g(F)=  0.262E+01 g(S)=  0.000E+00 retain N=  3 mean eig= 0.88
 eig:   2.088  0.543  0.023
 bond charge predicted
       N       E                     dE             d eps       ncg     rms          rms(c)
DAV:   1    -0.135912483661E+04   -0.10024E+01   -0.14298E+02  1368   0.168E+01    0.262E+00
DAV:   2    -0.135982488514E+04   -0.70005E+00   -0.75775E+00  2280   0.625E+00    0.136E+00
DAV:   3    -0.135984234569E+04   -0.17461E-01   -0.54410E-01  2608   0.135E+00    0.115E+00
DAV:   4    -0.135982099298E+04    0.21353E-01   -0.12265E-01  2536   0.710E-01    0.577E-01
DAV:   5    -0.135981807049E+04    0.29225E-02   -0.48692E-02  2456   0.421E-01    0.364E-01
DAV:   6    -0.135981758628E+04    0.48421E-03   -0.24164E-02  2576   0.301E-01    0.216E-01
DAV:   7    -0.135981751544E+04    0.70836E-04   -0.11587E-02  2392   0.187E-01    0.147E-01
DAV:   8    -0.135981751166E+04    0.37849E-05   -0.26428E-03  2536   0.982E-02    0.884E-02
DAV:   9    -0.135981744903E+04    0.62626E-04   -0.11164E-03  2608   0.593E-02    0.502E-02
DAV:  10    -0.135981747949E+04   -0.30458E-04   -0.45932E-04  2496   0.402E-02    0.473E-02
DAV:  11    -0.135981745076E+04    0.28729E-04   -0.23248E-04  2440   0.291E-02    0.170E-02
DAV:  12    -0.135981745701E+04   -0.62456E-05   -0.12134E-04  2304   0.202E-02    0.124E-02
DAV:  13    -0.135981745623E+04    0.78016E-06   -0.17348E-05  1960   0.100E-02    0.833E-03
DAV:  14    -0.135981745652E+04   -0.29497E-06   -0.19370E-05  1688   0.741E-03    0.490E-03
DAV:  15    -0.135981745619E+04    0.33047E-06   -0.19254E-06  1032   0.493E-03
   5 F= -.13598175E+04 E0= -.13598175E+04  d E =-.169503E+01
 BRION: g(F)=  0.122E+01 g(S)=  0.000E+00 retain N=  4 mean eig= 1.74
 eig:   2.805  2.805  0.666  0.666
 bond charge predicted
       N       E                     dE             d eps       ncg     rms          rms(c)
DAV:   1    -0.136038362875E+04   -0.56617E+00   -0.23421E+02  1376   0.219E+01    0.289E+00
DAV:   2    -0.136151889547E+04   -0.11353E+01   -0.11952E+01  2280   0.809E+00    0.143E+00
DAV:   3    -0.136157532316E+04   -0.56428E-01   -0.90360E-01  2608   0.169E+00    0.115E+00
DAV:   4    -0.136155532664E+04    0.19997E-01   -0.11307E-01  2576   0.772E-01    0.715E-01
DAV:   5    -0.136154630807E+04    0.90186E-02   -0.57575E-02  2368   0.482E-01    0.302E-01
DAV:   6    -0.136154790658E+04   -0.15985E-02   -0.27286E-02  2560   0.322E-01    0.247E-01
DAV:   7    -0.136154757275E+04    0.33383E-03   -0.10581E-02  2488   0.195E-01    0.157E-01
DAV:   8    -0.136154756108E+04    0.11668E-04   -0.44326E-03  2576   0.124E-01    0.850E-02
DAV:   9    -0.136154751208E+04    0.49005E-04   -0.74887E-04  2584   0.614E-02    0.599E-02
DAV:  10    -0.136154753146E+04   -0.19378E-04   -0.72182E-04  2336   0.464E-02    0.412E-02
DAV:  11    -0.136154751366E+04    0.17793E-04   -0.20754E-04  2520   0.335E-02    0.153E-02
DAV:  12    -0.136154752381E+04   -0.10151E-04   -0.12878E-04  2504   0.198E-02    0.193E-02
DAV:  13    -0.136154751869E+04    0.51227E-05   -0.34945E-05  2256   0.122E-02    0.838E-03
DAV:  14    -0.136154751893E+04   -0.23590E-06   -0.14982E-05  1832   0.729E-03    0.301E-03
DAV:  15    -0.136154751915E+04   -0.22833E-06   -0.12320E-06  1008   0.413E-03
   6 F= -.13615475E+04 E0= -.13615475E+04  d E =-.173006E+01
 BRION: g(F)=  0.764E+00 g(S)=  0.000E+00 retain N=  5 mean eig= 1.82
 eig:   3.082  3.082  1.048  1.048  0.847
 bond charge predicted
       N       E                     dE             d eps       ncg     rms          rms(c)
DAV:   1    -0.136201937676E+04   -0.47186E+00   -0.94112E+01  1384   0.140E+01    0.190E+00
DAV:   2    -0.136249950480E+04   -0.48013E+00   -0.50845E+00  2304   0.541E+00    0.914E-01
DAV:   3    -0.136252605691E+04   -0.26552E-01   -0.39911E-01  2616   0.109E+00    0.742E-01
DAV:   4    -0.136251869054E+04    0.73664E-02   -0.48725E-02  2600   0.521E-01    0.464E-01
DAV:   5    -0.136251554629E+04    0.31442E-02   -0.24334E-02  2368   0.303E-01    0.196E-01
DAV:   6    -0.136251626599E+04   -0.71970E-03   -0.10592E-02  2576   0.204E-01    0.166E-01
DAV:   7    -0.136251607919E+04    0.18680E-03   -0.49856E-03  2528   0.133E-01    0.105E-01
DAV:   8    -0.136251607318E+04    0.60101E-05   -0.20222E-03  2584   0.853E-02    0.607E-02
DAV:   9    -0.136251605150E+04    0.21675E-04   -0.31776E-04  2560   0.400E-02    0.432E-02
DAV:  10    -0.136251605672E+04   -0.52190E-05   -0.28618E-04  2400   0.291E-02    0.261E-02
DAV:  11    -0.136251605252E+04    0.41989E-05   -0.77585E-05  2456   0.201E-02    0.108E-02
DAV:  12    -0.136251605532E+04   -0.27922E-05   -0.39600E-05  2336   0.120E-02    0.106E-02
DAV:  13    -0.136251605419E+04    0.11321E-05   -0.10009E-05  1744   0.715E-03    0.496E-03
DAV:  14    -0.136251605423E+04   -0.43554E-07   -0.43657E-06  1312   0.532E-03
   7 F= -.13625161E+04 E0= -.13625161E+04  d E =-.968535E+00
 BRION: g(F)=  0.538E+00 g(S)=  0.000E+00 retain N=  6 mean eig= 2.38
 eig:   4.462  4.462  1.914  1.914  0.771  0.771
 bond charge predicted
       N       E                     dE             d eps       ncg     rms          rms(c)
DAV:   1    -0.136278026385E+04   -0.26421E+00   -0.14970E+02  1392   0.176E+01    0.214E+00
DAV:   2    -0.136356179050E+04   -0.78153E+00   -0.82355E+00  2288   0.691E+00    0.108E+00
DAV:   3    -0.136360694806E+04   -0.45158E-01   -0.64016E-01  2600   0.135E+00    0.878E-01
DAV:   4    -0.136359714314E+04    0.98049E-02   -0.66549E-02  2608   0.620E-01    0.604E-01
DAV:   5    -0.136358895583E+04    0.81873E-02   -0.35671E-02  2328   0.381E-01    0.240E-01
DAV:   6    -0.136359028223E+04   -0.13264E-02   -0.22205E-02  2480   0.281E-01    0.213E-01
DAV:   7    -0.136359006233E+04    0.21990E-03   -0.86901E-03  2464   0.176E-01    0.148E-01
DAV:   8    -0.136358997534E+04    0.86990E-04   -0.35963E-03  2584   0.113E-01    0.764E-02
DAV:   9    -0.136358993789E+04    0.37448E-04   -0.69421E-04  2416   0.556E-02    0.529E-02
DAV:  10    -0.136358994628E+04   -0.83883E-05   -0.32370E-04  2480   0.339E-02    0.301E-02
DAV:  11    -0.136358994588E+04    0.39871E-06   -0.11015E-04  2472   0.232E-02    0.161E-02
DAV:  12    -0.136358994886E+04   -0.29832E-05   -0.55287E-05  2384   0.156E-02    0.165E-02
DAV:  13    -0.136358994620E+04    0.26599E-05   -0.34923E-05  2200   0.107E-02    0.795E-03
DAV:  14    -0.136358994622E+04   -0.16866E-07   -0.97011E-06  1752   0.621E-03
   8 F= -.13635899E+04 E0= -.13635899E+04  d E =-.107389E+01
 BRION: g(F)=  0.457E+00 g(S)=  0.000E+00 retain N=  7 mean eig= 2.55
 eig:   4.122  4.122  3.488  3.488  0.851  0.851  0.904
 bond charge predicted
       N       E                     dE             d eps       ncg     rms          rms(c)
DAV:   1    -0.136389474997E+04   -0.30480E+00   -0.66109E+01  1392   0.117E+01    0.147E+00
DAV:   2    -0.136424516217E+04   -0.35041E+00   -0.37088E+00  2288   0.463E+00    0.734E-01
DAV:   3    -0.136426561867E+04   -0.20457E-01   -0.29422E-01  2584   0.926E-01    0.603E-01
DAV:   4    -0.136426101230E+04    0.46064E-02   -0.32359E-02  2600   0.428E-01    0.407E-01
DAV:   5    -0.136425759415E+04    0.34182E-02   -0.16216E-02  2360   0.263E-01    0.166E-01
DAV:   6    -0.136425813053E+04   -0.53639E-03   -0.10011E-02  2488   0.195E-01    0.145E-01
DAV:   7    -0.136425804350E+04    0.87035E-04   -0.42319E-03  2448   0.123E-01    0.104E-01
DAV:   8    -0.136425800948E+04    0.34021E-04   -0.18817E-03  2600   0.802E-02    0.550E-02
DAV:   9    -0.136425798823E+04    0.21245E-04   -0.35458E-04  2528   0.396E-02    0.378E-02
DAV:  10    -0.136425799100E+04   -0.27719E-05   -0.18659E-04  2568   0.252E-02    0.226E-02
DAV:  11    -0.136425799069E+04    0.31154E-06   -0.72022E-05  2432   0.181E-02    0.124E-02
DAV:  12    -0.136425799104E+04   -0.34798E-06   -0.26154E-05  2312   0.122E-02    0.114E-02
DAV:  13    -0.136425799013E+04    0.91121E-06   -0.23253E-05  1944   0.846E-03    0.570E-03
DAV:  14    -0.136425798993E+04    0.19894E-06   -0.34075E-06  1176   0.530E-03
   9 F= -.13642580E+04 E0= -.13642580E+04  d E =-.668044E+00
 BRION: g(F)=  0.323E+00 g(S)=  0.000E+00 retain N=  8 mean eig= 3.33
 eig:   7.143  7.143  4.165  4.165  1.230  1.230  0.797  0.797
 bond charge predicted
       N       E                     dE             d eps       ncg     rms          rms(c)
DAV:   1    -0.136448824230E+04   -0.23025E+00   -0.93352E+01  1392   0.138E+01    0.165E+00
DAV:   2    -0.136498237617E+04   -0.49413E+00   -0.52269E+00  2296   0.559E+00    0.814E-01
DAV:   3    -0.136501262111E+04   -0.30245E-01   -0.41370E-01  2584   0.107E+00    0.677E-01
DAV:   4    -0.136500780271E+04    0.48184E-02   -0.38696E-02  2608   0.478E-01    0.503E-01
DAV:   5    -0.136500118329E+04    0.66194E-02   -0.20809E-02  2344   0.310E-01    0.214E-01
DAV:   6    -0.136500162874E+04   -0.44545E-03   -0.18634E-02  2352   0.262E-01    0.173E-01
DAV:   7    -0.136500160474E+04    0.24001E-04   -0.76171E-03  2400   0.163E-01    0.137E-01
DAV:   8    -0.136500152919E+04    0.75549E-04   -0.26838E-03  2560   0.998E-02    0.702E-02
DAV:   9    -0.136500147426E+04    0.54928E-04   -0.74052E-04  2448   0.535E-02    0.419E-02
DAV:  10    -0.136500148815E+04   -0.13893E-04   -0.24454E-04  2488   0.303E-02    0.290E-02
DAV:  11    -0.136500148499E+04    0.31568E-05   -0.84178E-05  2448   0.196E-02    0.172E-02
DAV:  12    -0.136500148553E+04   -0.53697E-06   -0.50053E-05  2352   0.147E-02    0.154E-02
DAV:  13    -0.136500148353E+04    0.19972E-05   -0.30251E-05  2088   0.986E-03    0.748E-03
DAV:  14    -0.136500148343E+04    0.10418E-06   -0.75690E-06  1632   0.598E-03
  10 F= -.13650015E+04 E0= -.13650015E+04  d E =-.743494E+00
 BRION: g(F)=  0.268E+00 g(S)=  0.000E+00 retain N=  6 mean eig= 3.74
 eig:   7.614  7.614  2.511  2.511  1.080  1.080
 bond charge predicted
       N       E                     dE             d eps       ncg     rms          rms(c)
DAV:   1    -0.136523603191E+04   -0.23455E+00   -0.61857E+01  1376   0.112E+01    0.136E+00
DAV:   2    -0.136556540008E+04   -0.32937E+00   -0.34782E+00  2296   0.451E+00    0.673E-01
DAV:   3    -0.136558485642E+04   -0.19456E-01   -0.27331E-01  2592   0.867E-01    0.559E-01
DAV:   4    -0.136558107202E+04    0.37844E-02   -0.25953E-02  2624   0.386E-01    0.404E-01
DAV:   5    -0.136557637837E+04    0.46936E-02   -0.13905E-02  2312   0.258E-01    0.163E-01
DAV:   6    -0.136557683689E+04   -0.45852E-03   -0.12483E-02  2384   0.208E-01    0.139E-01
DAV:   7    -0.136557680879E+04    0.28093E-04   -0.40689E-03  2424   0.120E-01    0.112E-01
DAV:   8    -0.136557674794E+04    0.60850E-04   -0.15880E-03  2600   0.750E-02    0.560E-02
DAV:   9    -0.136557669935E+04    0.48593E-04   -0.47997E-04  2296   0.434E-02    0.319E-02
DAV:  10    -0.136557671282E+04   -0.13465E-04   -0.17779E-04  2368   0.244E-02    0.260E-02
DAV:  11    -0.136557670509E+04    0.77245E-05   -0.58262E-05  2424   0.161E-02    0.125E-02
DAV:  12    -0.136557670620E+04   -0.11107E-05   -0.33053E-05  2304   0.117E-02    0.101E-02
DAV:  13    -0.136557670560E+04    0.59869E-06   -0.13198E-05  1768   0.718E-03    0.514E-03
DAV:  14    -0.136557670564E+04   -0.33207E-07   -0.44390E-06  1288   0.534E-03
  11 F= -.13655767E+04 E0= -.13655767E+04  d E =-.575222E+00
 BRION: g(F)=  0.233E+00 g(S)=  0.000E+00 retain N=  4 mean eig= 4.45
 eig:   7.306  7.306  1.590  1.590
 bond charge predicted
       N       E                     dE             d eps       ncg     rms          rms(c)
DAV:   1    -0.136578574864E+04   -0.20904E+00   -0.55899E+01  1384   0.107E+01    0.127E+00
DAV:   2    -0.136608845192E+04   -0.30270E+00   -0.32115E+00  2296   0.438E+00    0.634E-01
DAV:   3    -0.136610740591E+04   -0.18954E-01   -0.25989E-01  2584   0.848E-01    0.535E-01
DAV:   4    -0.136610440561E+04    0.30003E-02   -0.23662E-02  2624   0.373E-01    0.405E-01
DAV:   5    -0.136609980576E+04    0.45998E-02   -0.12664E-02  2328   0.243E-01    0.178E-01
DAV:   6    -0.136609991002E+04   -0.10426E-03   -0.12785E-02  2312   0.216E-01    0.139E-01
DAV:   7    -0.136609992570E+04   -0.15680E-04   -0.54747E-03  2384   0.137E-01    0.117E-01
DAV:   8    -0.136609986421E+04    0.61494E-04   -0.17472E-03  2568   0.825E-02    0.632E-02
DAV:   9    -0.136609981602E+04    0.48189E-04   -0.55235E-04  2536   0.448E-02    0.343E-02
DAV:  10    -0.136609982848E+04   -0.12460E-04   -0.19503E-04  2520   0.266E-02    0.240E-02
DAV:  11    -0.136609982942E+04   -0.94119E-06   -0.77391E-05  2384   0.176E-02    0.186E-02
DAV:  12    -0.136609982645E+04    0.29688E-05   -0.37055E-05  2296   0.142E-02    0.155E-02
DAV:  13    -0.136609982457E+04    0.18772E-05   -0.32682E-05  2056   0.993E-03    0.747E-03
DAV:  14    -0.136609982417E+04    0.40737E-06   -0.56588E-06  1424   0.574E-03
  12 F= -.13660998E+04 E0= -.13660998E+04  d E =-.523119E+00
 BRION: g(F)=  0.208E+00 g(S)=  0.000E+00 retain N=  4 mean eig= 4.65
 eig:   7.753  7.753  1.550  1.550
 bond charge predicted
       N       E                     dE             d eps       ncg     rms          rms(c)
DAV:   1    -0.136629199685E+04   -0.19217E+00   -0.56403E+01  1376   0.106E+01    0.123E+00
DAV:   2    -0.136658918967E+04   -0.29719E+00   -0.31353E+00  2288   0.424E+00    0.620E-01
DAV:   3    -0.136660723319E+04   -0.18044E-01   -0.25181E-01  2584   0.824E-01    0.522E-01
DAV:   4    -0.136660435695E+04    0.28762E-02   -0.22234E-02  2616   0.357E-01    0.398E-01
DAV:   5    -0.136659940635E+04    0.49506E-02   -0.11101E-02  2296   0.234E-01    0.187E-01
DAV:   6    -0.136659915168E+04    0.25467E-03   -0.13395E-02  2192   0.225E-01    0.122E-01
DAV:   7    -0.136659934550E+04   -0.19382E-03   -0.64673E-03  2376   0.145E-01    0.121E-01
DAV:   8    -0.136659928317E+04    0.62334E-04   -0.14464E-03  2528   0.793E-02    0.760E-02
DAV:   9    -0.136659919073E+04    0.92431E-04   -0.80101E-04  2584   0.519E-02    0.353E-02
DAV:  10    -0.136659921319E+04   -0.22456E-04   -0.30598E-04  2544   0.341E-02    0.285E-02
DAV:  11    -0.136659920870E+04    0.44940E-05   -0.10733E-04  2392   0.204E-02    0.197E-02
DAV:  12    -0.136659920766E+04    0.10324E-05   -0.69227E-05  2320   0.177E-02    0.185E-02
DAV:  13    -0.136659920504E+04    0.26203E-05   -0.39315E-05  2168   0.118E-02    0.114E-02
DAV:  14    -0.136659920405E+04    0.99320E-06   -0.13861E-05  1784   0.700E-03    0.370E-03
DAV:  15    -0.136659920403E+04    0.23050E-07   -0.14714E-06   944   0.418E-03
  13 F= -.13665992E+04 E0= -.13665992E+04  d E =-.499380E+00
 BRION: g(F)=  0.185E+00 g(S)=  0.000E+00 retain N=  3 mean eig= 4.59
 eig:   6.058  6.058  1.660
 bond charge predicted
       N       E                     dE             d eps       ncg     rms          rms(c)
DAV:   1    -0.136675075332E+04   -0.15155E+00   -0.56474E+01  1376   0.107E+01    0.124E+00
DAV:   2    -0.136705077774E+04   -0.30002E+00   -0.31646E+00  2296   0.426E+00    0.631E-01
DAV:   3    -0.136706896636E+04   -0.18189E-01   -0.25552E-01  2584   0.829E-01    0.526E-01
DAV:   4    -0.136706571765E+04    0.32487E-02   -0.22585E-02  2616   0.359E-01    0.396E-01
DAV:   5    -0.136706089923E+04    0.48184E-02   -0.11510E-02  2320   0.233E-01    0.178E-01
DAV:   6    -0.136706080176E+04    0.97468E-04   -0.12455E-02  2248   0.211E-01    0.122E-01
DAV:   7    -0.136706093734E+04   -0.13558E-03   -0.57214E-03  2368   0.136E-01    0.114E-01
DAV:   8    -0.136706087158E+04    0.65767E-04   -0.13906E-03  2560   0.773E-02    0.686E-02
DAV:   9    -0.136706080580E+04    0.65780E-04   -0.68959E-04  2600   0.479E-02    0.332E-02
DAV:  10    -0.136706082233E+04   -0.16537E-04   -0.21993E-04  2560   0.300E-02    0.268E-02
DAV:  11    -0.136706081952E+04    0.28126E-05   -0.97746E-05  2312   0.192E-02    0.188E-02
DAV:  12    -0.136706081775E+04    0.17692E-05   -0.57446E-05  2312   0.164E-02    0.170E-02
DAV:  13    -0.136706081556E+04    0.21884E-05   -0.34256E-05  2136   0.109E-02    0.999E-03
DAV:  14    -0.136706081479E+04    0.77831E-06   -0.11388E-05  1768   0.659E-03    0.323E-03
DAV:  15    -0.136706081478E+04    0.53260E-08   -0.13169E-06   920   0.398E-03
  14 F= -.13670608E+04 E0= -.13670608E+04  d E =-.461611E+00
 BRION: g(F)=  0.163E+00 g(S)=  0.000E+00 retain N=  3 mean eig= 5.17
 eig:   6.844  6.844  1.824
 bond charge predicted
       N       E                     dE             d eps       ncg     rms          rms(c)
DAV:   1    -0.136715974437E+04   -0.98930E-01   -0.62928E+01  1376   0.112E+01    0.130E+00
DAV:   2    -0.136748916143E+04   -0.32942E+00   -0.34692E+00  2288   0.444E+00    0.665E-01
DAV:   3    -0.136750902918E+04   -0.19868E-01   -0.27967E-01  2584   0.866E-01    0.553E-01
DAV:   4    -0.136750544379E+04    0.35854E-02   -0.24602E-02  2600   0.375E-01    0.413E-01
DAV:   5    -0.136750023734E+04    0.52064E-02   -0.12744E-02  2320   0.242E-01    0.184E-01
DAV:   6    -0.136750019337E+04    0.43965E-04   -0.13417E-02  2264   0.215E-01    0.129E-01
DAV:   7    -0.136750026942E+04   -0.76043E-04   -0.54704E-03  2384   0.136E-01    0.116E-01
DAV:   8    -0.136750020329E+04    0.66125E-04   -0.15512E-03  2536   0.781E-02    0.663E-02
DAV:   9    -0.136750014093E+04    0.62362E-04   -0.66140E-04  2536   0.472E-02    0.332E-02
DAV:  10    -0.136750015744E+04   -0.16506E-04   -0.21564E-04  2512   0.293E-02    0.269E-02
DAV:  11    -0.136750015369E+04    0.37462E-05   -0.85401E-05  2360   0.182E-02    0.180E-02
DAV:  12    -0.136750015206E+04    0.16288E-05   -0.49134E-05  2296   0.149E-02    0.156E-02
DAV:  13    -0.136750015016E+04    0.18993E-05   -0.30996E-05  2080   0.999E-03    0.817E-03
DAV:  14    -0.136750014978E+04    0.38369E-06   -0.78383E-06  1656   0.597E-03
  15 F= -.13675001E+04 E0= -.13675001E+04  d E =-.439335E+00
 BRION: g(F)=  0.141E+00 g(S)=  0.000E+00 retain N=  3 mean eig= 5.86
 eig:   7.833  7.833  1.921
 bond charge predicted
       N       E                     dE             d eps       ncg     rms          rms(c)
DAV:   1    -0.136758306664E+04   -0.82916E-01   -0.51830E+01  1376   0.101E+01    0.115E+00
DAV:   2    -0.136784914350E+04   -0.26608E+00   -0.27933E+00  2296   0.394E+00    0.594E-01
DAV:   3    -0.136786505598E+04   -0.15912E-01   -0.22569E-01  2592   0.769E-01    0.491E-01
DAV:   4    -0.136786216236E+04    0.28936E-02   -0.18968E-02  2600   0.329E-01    0.371E-01
DAV:   5    -0.136785779883E+04    0.43635E-02   -0.97278E-03  2304   0.213E-01    0.173E-01
DAV:   6    -0.136785753941E+04    0.25942E-03   -0.11136E-02  2232   0.199E-01    0.110E-01
DAV:   7    -0.136785769863E+04   -0.15922E-03   -0.51918E-03  2392   0.130E-01    0.107E-01
DAV:   8    -0.136785763646E+04    0.62172E-04   -0.11848E-03  2544   0.728E-02    0.652E-02
DAV:   9    -0.136785757301E+04    0.63444E-04   -0.63349E-04  2592   0.458E-02    0.307E-02
DAV:  10    -0.136785758959E+04   -0.16575E-04   -0.21400E-04  2560   0.288E-02    0.248E-02
DAV:  11    -0.136785758625E+04    0.33403E-05   -0.91274E-05  2368   0.187E-02    0.164E-02
DAV:  12    -0.136785758529E+04    0.96140E-06   -0.42896E-05  2304   0.147E-02    0.154E-02
DAV:  13    -0.136785758350E+04    0.17909E-05   -0.28602E-05  2112   0.953E-03    0.888E-03
DAV:  14    -0.136785758284E+04    0.65383E-06   -0.89232E-06  1752   0.611E-03
  16 F= -.13678576E+04 E0= -.13678576E+04  d E =-.357433E+00
 BRION: g(F)=  0.121E+00 g(S)=  0.000E+00 retain N=  2 mean eig= 3.99
 eig:   3.995  3.995
 bond charge predicted
       N       E                     dE             d eps       ncg     rms          rms(c)
DAV:   1    -0.136793976804E+04   -0.82185E-01   -0.32296E+01  1376   0.802E+00    0.908E-01
DAV:   2    -0.136810216511E+04   -0.16240E+00   -0.16999E+00  2296   0.311E+00    0.466E-01
DAV:   3    -0.136811158695E+04   -0.94218E-02   -0.13445E-01  2600   0.592E-01    0.382E-01
DAV:   4    -0.136810965972E+04    0.19272E-02   -0.11307E-02  2608   0.252E-01    0.284E-01
DAV:   5    -0.136810695358E+04    0.27061E-02   -0.64724E-03  2240   0.169E-01    0.119E-01
DAV:   6    -0.136810701656E+04   -0.62983E-04   -0.64199E-03  2264   0.143E-01    0.918E-02
DAV:   7    -0.136810703161E+04   -0.15052E-04   -0.23253E-03  2352   0.882E-02    0.754E-02
DAV:   8    -0.136810700808E+04    0.23537E-04   -0.74656E-04  2568   0.518E-02    0.422E-02
DAV:   9    -0.136810697721E+04    0.30864E-04   -0.26230E-04  2336   0.317E-02    0.231E-02
DAV:  10    -0.136810698344E+04   -0.62309E-05   -0.10157E-04  2352   0.185E-02    0.173E-02
DAV:  11    -0.136810698115E+04    0.22898E-05   -0.34054E-05  2256   0.120E-02    0.947E-03
DAV:  12    -0.136810698115E+04    0.36234E-08   -0.14743E-05  1944   0.848E-03    0.833E-03
DAV:  13    -0.136810698065E+04    0.49749E-06   -0.10327E-05  1744   0.623E-03    0.419E-03
DAV:  14    -0.136810698045E+04    0.20512E-06   -0.17658E-06   960   0.432E-03
  17 F= -.13681070E+04 E0= -.13681070E+04  d E =-.249398E+00
 BRION: g(F)=  0.106E+00 g(S)=  0.000E+00 retain N=  3 mean eig= 5.40
 eig:   7.282  7.282  1.646
 bond charge predicted
       N       E                     dE             d eps       ncg     rms          rms(c)
DAV:   1    -0.136812319393E+04   -0.16213E-01   -0.53026E+01  1376   0.102E+01    0.115E+00
DAV:   2    -0.136838792867E+04   -0.26473E+00   -0.27735E+00  2296   0.393E+00    0.601E-01
DAV:   3    -0.136840318162E+04   -0.15253E-01   -0.21923E-01  2584   0.760E-01    0.495E-01
DAV:   4    -0.136840025349E+04    0.29281E-02   -0.18865E-02  2608   0.319E-01    0.370E-01
DAV:   5    -0.136839583959E+04    0.44139E-02   -0.98940E-03  2216   0.214E-01    0.166E-01
DAV:   6    -0.136839578123E+04    0.58358E-04   -0.11038E-02  2224   0.188E-01    0.116E-01
DAV:   7    -0.136839586263E+04   -0.81403E-04   -0.42160E-03  2352   0.118E-01    0.105E-01
DAV:   8    -0.136839580049E+04    0.62144E-04   -0.12121E-03  2536   0.687E-02    0.603E-02
DAV:   9    -0.136839573870E+04    0.61791E-04   -0.55589E-04  2384   0.443E-02    0.293E-02
DAV:  10    -0.136839575486E+04   -0.16167E-04   -0.20732E-04  2360   0.269E-02    0.236E-02
DAV:  11    -0.136839574869E+04    0.61778E-05   -0.60303E-05  2384   0.164E-02    0.118E-02
DAV:  12    -0.136839574957E+04   -0.88560E-06   -0.33667E-05  2224   0.115E-02    0.114E-02
DAV:  13    -0.136839574834E+04    0.12286E-05   -0.16247E-05  1864   0.785E-03    0.558E-03
DAV:  14    -0.136839574816E+04    0.18686E-06   -0.29667E-06  1096   0.522E-03
  18 F= -.13683957E+04 E0= -.13683957E+04  d E =-.288768E+00
 BRION: g(F)=  0.891E-01 g(S)=  0.000E+00 retain N=  2 mean eig= 3.65
 eig:   3.646  3.646
 bond charge predicted
       N       E                     dE             d eps       ncg     rms          rms(c)
DAV:   1    -0.136843575917E+04   -0.40011E-01   -0.31372E+01  1368   0.784E+00    0.889E-01
DAV:   2    -0.136858825533E+04   -0.15250E+00   -0.15931E+00  2296   0.299E+00    0.460E-01
DAV:   3    -0.136859668523E+04   -0.84299E-02   -0.12322E-01  2592   0.566E-01    0.376E-01
DAV:   4    -0.136859482230E+04    0.18629E-02   -0.10673E-02  2600   0.238E-01    0.277E-01
DAV:   5    -0.136859224946E+04    0.25728E-02   -0.62104E-03  2184   0.168E-01    0.113E-01
DAV:   6    -0.136859237075E+04   -0.12129E-03   -0.61703E-03  2264   0.139E-01    0.942E-02
DAV:   7    -0.136859238875E+04   -0.18006E-04   -0.20724E-03  2264   0.817E-02    0.779E-02
DAV:   8    -0.136859235494E+04    0.33816E-04   -0.72005E-04  2600   0.489E-02    0.428E-02
DAV:   9    -0.136859232072E+04    0.34212E-04   -0.25661E-04  2272   0.316E-02    0.226E-02
DAV:  10    -0.136859232780E+04   -0.70710E-05   -0.10399E-04  2304   0.186E-02    0.168E-02
DAV:  11    -0.136859232469E+04    0.31036E-05   -0.26054E-05  2168   0.111E-02    0.785E-03
DAV:  12    -0.136859232523E+04   -0.53422E-06   -0.15606E-05  1960   0.780E-03    0.720E-03
DAV:  13    -0.136859232452E+04    0.70212E-06   -0.26752E-06  1056   0.532E-03
  19 F= -.13685923E+04 E0= -.13685923E+04  d E =-.196576E+00
 BRION: g(F)=  0.775E-01 g(S)=  0.000E+00 retain N=  3 mean eig= 4.48
 eig:   5.892  5.892  1.646
 bond charge predicted
       N       E                     dE             d eps       ncg     rms          rms(c)
DAV:   1    -0.136852541355E+04    0.66912E-01   -0.57905E+01  1368   0.107E+01    0.120E+00
DAV:   2    -0.136881120914E+04   -0.28580E+00   -0.29875E+00  2288   0.409E+00    0.632E-01
DAV:   3    -0.136882655259E+04   -0.15343E-01   -0.22883E-01  2576   0.787E-01    0.516E-01
DAV:   4    -0.136882317240E+04    0.33802E-02   -0.21013E-02  2592   0.327E-01    0.376E-01
DAV:   5    -0.136881857701E+04    0.45954E-02   -0.99585E-03  2216   0.216E-01    0.168E-01
DAV:   6    -0.136881849035E+04    0.86659E-04   -0.10971E-02  2216   0.184E-01    0.109E-01
DAV:   7    -0.136881859299E+04   -0.10264E-03   -0.38829E-03  2328   0.114E-01    0.101E-01
DAV:   8    -0.136881854943E+04    0.43560E-04   -0.12291E-03  2472   0.643E-02    0.632E-02
DAV:   9    -0.136881848168E+04    0.67745E-04   -0.54564E-04  2360   0.432E-02    0.317E-02
DAV:  10    -0.136881849576E+04   -0.14081E-04   -0.23832E-04  2440   0.279E-02    0.234E-02
DAV:  11    -0.136881849058E+04    0.51827E-05   -0.52407E-05  2360   0.162E-02    0.112E-02
DAV:  12    -0.136881849225E+04   -0.16682E-05   -0.36254E-05  2240   0.112E-02    0.111E-02
DAV:  13    -0.136881849086E+04    0.13878E-05   -0.16406E-05  1904   0.802E-03    0.494E-03
DAV:  14    -0.136881849091E+04   -0.49215E-07   -0.51792E-06  1456   0.538E-03
  20 F= -.13688185E+04 E0= -.13688185E+04  d E =-.226166E+00
 BRION: g(F)=  0.626E-01 g(S)=  0.000E+00 retain N=  2 mean eig= 4.08
 eig:   4.081  4.081
