 running on  160 total cores
 distrk:  each k-point on  160 cores,    1 groups
 distr:  one band on   20 cores,    8 groups
 using from now: INCAR     
 vasp.5.4.4.18Apr17-6-g9f103f2a35 (build May 01 2020 14:22:42) gamma-only       
  
 POSCAR found type information on POSCAR  O  La Zr Li Al
 POSCAR found :  5 types and     190 ions
 scaLAPACK will be used
 LDA part: xc-table for Pade appr. of Perdew
 POSCAR, INCAR and KPOINTS ok, starting setup
 FFT: planning ...
 WAVECAR not read
 WARNING: random wavefunctions but no delay for mixing, default for NELMDL
 entering main loop
       N       E                     dE             d eps       ncg     rms          rms(c)
DAV:   1     0.253854102373E+05    0.25385E+05   -0.41942E+05  1568   0.253E+03
DAV:   2     0.947583216111E+04   -0.15910E+05   -0.14722E+05  1440   0.713E+02
DAV:   3     0.269531976754E+04   -0.67805E+04   -0.61802E+04  1528   0.357E+02
DAV:   4    -0.367178944024E+03   -0.30625E+04   -0.28656E+04  2048   0.224E+02
DAV:   5    -0.141312032319E+04   -0.10459E+04   -0.10035E+04  2536   0.139E+02    0.116E+02
DAV:   6    -0.130322348079E+04    0.10990E+03   -0.14613E+03  2440   0.660E+01    0.503E+01
DAV:   7    -0.132563162688E+04   -0.22408E+02   -0.39369E+02  2552   0.339E+01    0.255E+01
DAV:   8    -0.133481280084E+04   -0.91812E+01   -0.28654E+02  2496   0.282E+01    0.272E+01
DAV:   9    -0.132690574157E+04    0.79071E+01   -0.56938E+01  2512   0.152E+01    0.838E+00
DAV:  10    -0.132771563167E+04   -0.80989E+00   -0.17103E+01  2624   0.814E+00    0.759E+00
DAV:  11    -0.132802464256E+04   -0.30901E+00   -0.66583E+00  2624   0.439E+00    0.445E+00
DAV:  12    -0.132787439677E+04    0.15025E+00   -0.25620E+00  2536   0.370E+00    0.321E+00
DAV:  13    -0.132794135713E+04   -0.66960E-01   -0.92123E-01  2560   0.172E+00    0.215E+00
DAV:  14    -0.132792570787E+04    0.15649E-01   -0.25052E-01  2600   0.105E+00    0.139E+00
DAV:  15    -0.132793116552E+04   -0.54576E-02   -0.98116E-02  2592   0.579E-01    0.983E-01
DAV:  16    -0.132793048619E+04    0.67933E-03   -0.32044E-02  2608   0.352E-01    0.574E-01
DAV:  17    -0.132792974423E+04    0.74196E-03   -0.24399E-02  2448   0.294E-01    0.319E-01
DAV:  18    -0.132793002657E+04   -0.28235E-03   -0.48601E-03  2544   0.152E-01    0.122E-01
DAV:  19    -0.132793006242E+04   -0.35842E-04   -0.21087E-03  2592   0.871E-02    0.109E-01
DAV:  20    -0.132793011847E+04   -0.56051E-04   -0.53374E-04  2576   0.434E-02    0.316E-02
DAV:  21    -0.132793013463E+04   -0.16167E-04   -0.19380E-04  2624   0.242E-02    0.421E-02
DAV:  22    -0.132793015357E+04   -0.18939E-04   -0.73349E-05  2432   0.162E-02    0.141E-02
DAV:  23    -0.132793014973E+04    0.38412E-05   -0.36663E-05  2072   0.107E-02    0.133E-02
DAV:  24    -0.132793015475E+04   -0.50135E-05   -0.14836E-05  1608   0.909E-03    0.372E-03
DAV:  25    -0.132793015413E+04    0.61712E-06   -0.53972E-06  1080   0.540E-03
   1 F= -.13279302E+04 E0= -.13279302E+04  d E =-.132793E+04
 BRION: g(F)=  0.618E+02 g(S)=  0.000E+00
 bond charge predicted
       N       E                     dE             d eps       ncg     rms          rms(c)
DAV:   1    -0.130093590955E+04    0.26994E+02   -0.68098E+03  1672   0.123E+02    0.255E+01
DAV:   2    -0.135141194317E+04   -0.50476E+02   -0.58433E+02  2584   0.557E+01    0.134E+01
DAV:   3    -0.135004017547E+04    0.13718E+01   -0.33314E+01  2608   0.148E+01    0.889E+00
DAV:   4    -0.134822616237E+04    0.18140E+01   -0.10565E+01  2496   0.679E+00    0.437E+00
DAV:   5    -0.134795563817E+04    0.27052E+00   -0.30060E+00  2560   0.403E+00    0.283E+00
DAV:   6    -0.134786802829E+04    0.87610E-01   -0.22348E+00  2592   0.276E+00    0.148E+00
DAV:   7    -0.134786400420E+04    0.40241E-02   -0.48746E-01  2544   0.159E+00    0.108E+00
DAV:   8    -0.134786098640E+04    0.30178E-02   -0.30560E-01  2608   0.931E-01    0.626E-01
DAV:   9    -0.134786032865E+04    0.65775E-03   -0.43414E-02  2600   0.514E-01    0.486E-01
DAV:  10    -0.134785772693E+04    0.26017E-02   -0.34904E-02  2512   0.341E-01    0.176E-01
DAV:  11    -0.134785885266E+04   -0.11257E-02   -0.14236E-02  2528   0.225E-01    0.169E-01
DAV:  12    -0.134785865776E+04    0.19490E-03   -0.23946E-03  2616   0.106E-01    0.900E-02
DAV:  13    -0.134785863891E+04    0.18848E-04   -0.18584E-03  2504   0.729E-02    0.316E-02
DAV:  14    -0.134785865270E+04   -0.13790E-04   -0.29236E-04  2560   0.391E-02    0.166E-02
DAV:  15    -0.134785865784E+04   -0.51389E-05   -0.69208E-05  2624   0.177E-02    0.868E-03
DAV:  16    -0.134785865894E+04   -0.10991E-05   -0.19726E-05  2336   0.931E-03    0.562E-03
DAV:  17    -0.134785865986E+04   -0.91596E-06   -0.42757E-06  1320   0.596E-03
   2 F= -.13478587E+04 E0= -.13478587E+04  d E =-.199285E+02
 BRION: g(F)=  0.383E+02 g(S)=  0.000E+00 retain N=  1 mean eig= 0.58
 eig:   0.583
 bond charge predicted
       N       E                     dE             d eps       ncg     rms          rms(c)
DAV:   1    -0.133537639568E+04    0.12482E+02   -0.26273E+03  1416   0.704E+01    0.161E+01
DAV:   2    -0.135757977942E+04   -0.22203E+02   -0.27326E+02  2528   0.332E+01    0.143E+01
DAV:   3    -0.135684474950E+04    0.73503E+00   -0.19825E+01  2600   0.109E+01    0.112E+01
DAV:   4    -0.135564414256E+04    0.12006E+01   -0.11718E+01  2264   0.477E+00    0.571E+00
DAV:   5    -0.135574877900E+04   -0.10464E+00   -0.34774E+00  2400   0.356E+00    0.523E+00
DAV:   6    -0.135528862554E+04    0.46015E+00   -0.35023E+00  2488   0.351E+00    0.173E+00
DAV:   7    -0.135534379897E+04   -0.55173E-01   -0.12205E+00  2448   0.197E+00    0.144E+00
DAV:   8    -0.135532185986E+04    0.21939E-01   -0.28677E-01  2584   0.969E-01    0.580E-01
DAV:   9    -0.135532174007E+04    0.11979E-03   -0.89318E-02  2496   0.524E-01    0.327E-01
DAV:  10    -0.135532211106E+04   -0.37099E-03   -0.15452E-02  2368   0.258E-01    0.172E-01
DAV:  11    -0.135532205051E+04    0.60547E-04   -0.62824E-03  2496   0.155E-01    0.822E-02
DAV:  12    -0.135532214985E+04   -0.99346E-04   -0.18289E-03  2560   0.839E-02    0.557E-02
DAV:  13    -0.135532216422E+04   -0.14362E-04   -0.65256E-04  2616   0.494E-02    0.323E-02
DAV:  14    -0.135532217170E+04   -0.74876E-05   -0.19968E-04  2624   0.283E-02    0.160E-02
DAV:  15    -0.135532217432E+04   -0.26159E-05   -0.61106E-05  2488   0.173E-02    0.979E-03
DAV:  16    -0.135532217661E+04   -0.22936E-05   -0.33316E-05  2392   0.100E-02    0.731E-03
DAV:  17    -0.135532217628E+04    0.33429E-06   -0.44915E-06  1272   0.634E-03
   3 F= -.13553222E+04 E0= -.13553222E+04  d E =-.746352E+01
 BRION: g(F)=  0.601E+01 g(S)=  0.000E+00 retain N=  2 mean eig= 1.01
 eig:   0.401  1.629
 bond charge predicted
       N       E                     dE             d eps       ncg     rms          rms(c)
DAV:   1    -0.135625565732E+04   -0.93348E+00   -0.40838E+02  1384   0.284E+01    0.590E+00
DAV:   2    -0.135840070916E+04   -0.21451E+01   -0.23539E+01  2312   0.106E+01    0.273E+00
DAV:   3    -0.135842659290E+04   -0.25884E-01   -0.17567E+00  2616   0.262E+00    0.222E+00
DAV:   4    -0.135835847171E+04    0.68121E-01   -0.61921E-01  2504   0.154E+00    0.107E+00
DAV:   5    -0.135835523622E+04    0.32355E-02   -0.14499E-01  2456   0.838E-01    0.810E-01
DAV:   6    -0.135835046653E+04    0.47697E-02   -0.13546E-01  2528   0.635E-01    0.325E-01
DAV:   7    -0.135835071314E+04   -0.24662E-03   -0.25961E-02  2296   0.332E-01    0.294E-01
DAV:   8    -0.135835049491E+04    0.21823E-03   -0.11577E-02  2360   0.177E-01    0.168E-01
DAV:   9    -0.135835024263E+04    0.25228E-03   -0.44929E-03  2616   0.123E-01    0.803E-02
DAV:  10    -0.135835035990E+04   -0.11727E-03   -0.19908E-03  2504   0.825E-02    0.869E-02
DAV:  11    -0.135835028930E+04    0.70606E-04   -0.57668E-04  2544   0.509E-02    0.407E-02
DAV:  12    -0.135835029409E+04   -0.47901E-05   -0.38257E-04  2496   0.316E-02    0.231E-02
DAV:  13    -0.135835029667E+04   -0.25821E-05   -0.51067E-05  2576   0.165E-02    0.167E-02
DAV:  14    -0.135835029440E+04    0.22693E-05   -0.23703E-05  2352   0.871E-03    0.750E-03
DAV:  15    -0.135835029444E+04   -0.39930E-07   -0.64117E-06  1520   0.598E-03
   4 F= -.13583503E+04 E0= -.13583503E+04  d E =-.302812E+01
 BRION: g(F)=  0.194E+01 g(S)=  0.000E+00 retain N=  3 mean eig= 0.87
 eig:   1.992  0.592  0.017
 bond charge predicted
       N       E                     dE             d eps       ncg     rms          rms(c)
DAV:   1    -0.135899145279E+04   -0.64116E+00   -0.17769E+02  1368   0.189E+01    0.287E+00
DAV:   2    -0.135987086807E+04   -0.87942E+00   -0.94852E+00  2264   0.702E+00    0.141E+00
DAV:   3    -0.135990859216E+04   -0.37724E-01   -0.74303E-01  2608   0.154E+00    0.118E+00
DAV:   4    -0.135988904194E+04    0.19550E-01   -0.11326E-01  2584   0.735E-01    0.702E-01
DAV:   5    -0.135988200964E+04    0.70323E-02   -0.58996E-02  2336   0.455E-01    0.332E-01
DAV:   6    -0.135988274463E+04   -0.73499E-03   -0.23791E-02  2592   0.305E-01    0.264E-01
DAV:   7    -0.135988235213E+04    0.39250E-03   -0.13633E-02  2512   0.210E-01    0.152E-01
DAV:   8    -0.135988234621E+04    0.59174E-05   -0.34271E-03  2584   0.117E-01    0.866E-02
DAV:   9    -0.135988231899E+04    0.27218E-04   -0.74757E-04  2616   0.560E-02    0.566E-02
DAV:  10    -0.135988235588E+04   -0.36884E-04   -0.53283E-04  2312   0.386E-02    0.435E-02
DAV:  11    -0.135988233028E+04    0.25597E-04   -0.19360E-04  2536   0.294E-02    0.164E-02
DAV:  12    -0.135988233752E+04   -0.72373E-05   -0.12396E-04  2512   0.197E-02    0.159E-02
DAV:  13    -0.135988233414E+04    0.33762E-05   -0.27626E-05  2264   0.113E-02    0.649E-03
DAV:  14    -0.135988233461E+04   -0.47407E-06   -0.11053E-05  1808   0.658E-03    0.271E-03
DAV:  15    -0.135988233471E+04   -0.99215E-07   -0.99946E-07  1016   0.361E-03
   5 F= -.13598823E+04 E0= -.13598823E+04  d E =-.153204E+01
 BRION: g(F)=  0.110E+01 g(S)=  0.000E+00 retain N=  4 mean eig= 1.08
 eig:   1.404  1.404  0.753  0.753
 bond charge predicted
       N       E                     dE             d eps       ncg     rms          rms(c)
DAV:   1    -0.136035199145E+04   -0.46966E+00   -0.18237E+02  1360   0.193E+01    0.268E+00
DAV:   2    -0.136123739756E+04   -0.88541E+00   -0.93453E+00  2304   0.717E+00    0.132E+00
DAV:   3    -0.136127574902E+04   -0.38351E-01   -0.69583E-01  2592   0.143E+00    0.107E+00
DAV:   4    -0.136125599797E+04    0.19751E-01   -0.10992E-01  2536   0.724E-01    0.590E-01
DAV:   5    -0.136125081188E+04    0.51861E-02   -0.44926E-02  2456   0.438E-01    0.290E-01
DAV:   6    -0.136125163906E+04   -0.82718E-03   -0.20410E-02  2592   0.278E-01    0.202E-01
DAV:   7    -0.136125132116E+04    0.31790E-03   -0.70936E-03  2296   0.170E-01    0.132E-01
DAV:   8    -0.136125144219E+04   -0.12103E-03   -0.42572E-03  2352   0.108E-01    0.871E-02
DAV:   9    -0.136125137766E+04    0.64527E-04   -0.66533E-04  2520   0.573E-02    0.647E-02
DAV:  10    -0.136125135899E+04    0.18669E-04   -0.87690E-04  2448   0.499E-02    0.406E-02
DAV:  11    -0.136125135227E+04    0.67203E-05   -0.27142E-04  2496   0.338E-02    0.151E-02
DAV:  12    -0.136125135695E+04   -0.46779E-05   -0.73780E-05  2400   0.184E-02    0.136E-02
DAV:  13    -0.136125135664E+04    0.31381E-06   -0.38876E-05  2320   0.116E-02    0.845E-03
DAV:  14    -0.136125135667E+04   -0.27765E-07   -0.12316E-05  1784   0.721E-03    0.591E-03
DAV:  15    -0.136125135644E+04    0.22387E-06   -0.18681E-06  1008   0.485E-03
   6 F= -.13612514E+04 E0= -.13612514E+04  d E =-.136902E+01
 BRION: g(F)=  0.746E+00 g(S)=  0.000E+00 retain N=  5 mean eig= 1.13
 eig:   1.076  1.076  1.378  1.378  0.729
 bond charge predicted
       N       E                     dE             d eps       ncg     rms          rms(c)
DAV:   1    -0.136164327250E+04   -0.39192E+00   -0.53411E+01  1392   0.104E+01    0.137E+00
DAV:   2    -0.136192359146E+04   -0.28032E+00   -0.29751E+00  2288   0.411E+00    0.737E-01
DAV:   3    -0.136193642617E+04   -0.12835E-01   -0.22940E-01  2608   0.811E-01    0.586E-01
DAV:   4    -0.136193027812E+04    0.61481E-02   -0.33438E-02  2576   0.412E-01    0.333E-01
DAV:   5    -0.136192839406E+04    0.18841E-02   -0.13247E-02  2448   0.237E-01    0.151E-01
DAV:   6    -0.136192867248E+04   -0.27843E-03   -0.67676E-03  2520   0.157E-01    0.100E-01
DAV:   7    -0.136192865454E+04    0.17939E-04   -0.24128E-03  2264   0.985E-02    0.746E-02
DAV:   8    -0.136192867542E+04   -0.20883E-04   -0.97514E-04  2408   0.531E-02    0.448E-02
DAV:   9    -0.136192866247E+04    0.12957E-04   -0.20490E-04  2592   0.311E-02    0.318E-02
DAV:  10    -0.136192866137E+04    0.10937E-05   -0.19179E-04  2496   0.249E-02    0.221E-02
DAV:  11    -0.136192865925E+04    0.21190E-05   -0.75527E-05  2368   0.175E-02    0.836E-03
DAV:  12    -0.136192866012E+04   -0.87064E-06   -0.16506E-05  1976   0.986E-03    0.731E-03
DAV:  13    -0.136192865979E+04    0.33993E-06   -0.93604E-06  1584   0.633E-03
   7 F= -.13619287E+04 E0= -.13619287E+04  d E =-.677303E+00
 BRION: g(F)=  0.564E+00 g(S)=  0.000E+00 retain N=  6 mean eig= 1.52
 eig:   2.646  2.646  1.215  1.215  0.691  0.691
 bond charge predicted
       N       E                     dE             d eps       ncg     rms          rms(c)
DAV:   1    -0.136230215551E+04   -0.37350E+00   -0.66066E+01  1392   0.117E+01    0.142E+00
DAV:   2    -0.136265223697E+04   -0.35008E+00   -0.37209E+00  2280   0.469E+00    0.745E-01
DAV:   3    -0.136267311430E+04   -0.20877E-01   -0.30089E-01  2592   0.925E-01    0.623E-01
DAV:   4    -0.136266865107E+04    0.44632E-02   -0.31912E-02  2600   0.424E-01    0.429E-01
DAV:   5    -0.136266489603E+04    0.37550E-02   -0.17302E-02  2360   0.258E-01    0.174E-01
DAV:   6    -0.136266533187E+04   -0.43584E-03   -0.98316E-03  2440   0.190E-01    0.150E-01
DAV:   7    -0.136266522848E+04    0.10338E-03   -0.50166E-03  2424   0.132E-01    0.103E-01
DAV:   8    -0.136266521994E+04    0.85466E-05   -0.21836E-03  2584   0.876E-02    0.610E-02
DAV:   9    -0.136266519814E+04    0.21792E-04   -0.35890E-04  2536   0.421E-02    0.436E-02
DAV:  10    -0.136266519847E+04   -0.32542E-06   -0.20322E-04  2576   0.246E-02    0.225E-02
DAV:  11    -0.136266520286E+04   -0.43893E-05   -0.76091E-05  2432   0.184E-02    0.160E-02
DAV:  12    -0.136266519973E+04    0.31291E-05   -0.29238E-05  2296   0.132E-02    0.121E-02
DAV:  13    -0.136266519928E+04    0.44989E-06   -0.29725E-05  2144   0.909E-03    0.627E-03
DAV:  14    -0.136266519892E+04    0.35655E-06   -0.30227E-06  1152   0.511E-03
   8 F= -.13626652E+04 E0= -.13626652E+04  d E =-.736539E+00
 BRION: g(F)=  0.384E+00 g(S)=  0.000E+00 retain N=  7 mean eig= 2.26
 eig:   5.594  5.594  1.015  1.015  0.918  0.918  0.799
 bond charge predicted
       N       E                     dE             d eps       ncg     rms          rms(c)
DAV:   1    -0.136293103091E+04   -0.26583E+00   -0.12111E+02  1400   0.157E+01    0.187E+00
DAV:   2    -0.136357448633E+04   -0.64346E+00   -0.67859E+00  2296   0.637E+00    0.956E-01
DAV:   3    -0.136361047457E+04   -0.35988E-01   -0.52360E-01  2608   0.117E+00    0.774E-01
DAV:   4    -0.136360163626E+04    0.88383E-02   -0.52823E-02  2608   0.550E-01    0.523E-01
DAV:   5    -0.136359502175E+04    0.66145E-02   -0.24922E-02  2376   0.325E-01    0.206E-01
DAV:   6    -0.136359573893E+04   -0.71717E-03   -0.16319E-02  2424   0.236E-01    0.158E-01
DAV:   7    -0.136359574155E+04   -0.26256E-05   -0.66137E-03  2424   0.155E-01    0.121E-01
DAV:   8    -0.136359571305E+04    0.28503E-04   -0.25390E-03  2592   0.940E-02    0.671E-02
DAV:   9    -0.136359567797E+04    0.35084E-04   -0.58756E-04  2456   0.504E-02    0.459E-02
DAV:  10    -0.136359568758E+04   -0.96174E-05   -0.29028E-04  2496   0.317E-02    0.299E-02
DAV:  11    -0.136359568554E+04    0.20438E-05   -0.11677E-04  2472   0.230E-02    0.160E-02
DAV:  12    -0.136359568593E+04   -0.39155E-06   -0.49235E-05  2336   0.154E-02    0.143E-02
DAV:  13    -0.136359568444E+04    0.14954E-05   -0.33156E-05  2160   0.102E-02    0.723E-03
DAV:  14    -0.136359568456E+04   -0.12353E-06   -0.10592E-05  1776   0.633E-03    0.360E-03
DAV:  15    -0.136359568467E+04   -0.10517E-06   -0.11164E-06   992   0.388E-03
   9 F= -.13635957E+04 E0= -.13635957E+04  d E =-.930486E+00
 BRION: g(F)=  0.295E+00 g(S)=  0.000E+00 retain N=  6 mean eig= 3.39
 eig:   7.144  7.144  1.945  1.945  1.087  1.087
 bond charge predicted
       N       E                     dE             d eps       ncg     rms          rms(c)
DAV:   1    -0.136387891024E+04   -0.28323E+00   -0.65906E+01  1400   0.115E+01    0.141E+00
DAV:   2    -0.136423059408E+04   -0.35168E+00   -0.37443E+00  2288   0.470E+00    0.710E-01
DAV:   3    -0.136425043243E+04   -0.19838E-01   -0.29762E-01  2584   0.899E-01    0.586E-01
DAV:   4    -0.136424512413E+04    0.53083E-02   -0.31338E-02  2576   0.417E-01    0.389E-01
DAV:   5    -0.136424125238E+04    0.38717E-02   -0.15386E-02  2344   0.252E-01    0.152E-01
DAV:   6    -0.136424165879E+04   -0.40641E-03   -0.95360E-03  2432   0.184E-01    0.129E-01
DAV:   7    -0.136424162369E+04    0.35104E-04   -0.39979E-03  2408   0.120E-01    0.925E-02
DAV:   8    -0.136424161961E+04    0.40737E-05   -0.16238E-03  2608   0.735E-02    0.510E-02
DAV:   9    -0.136424160134E+04    0.18272E-04   -0.31450E-04  2472   0.388E-02    0.382E-02
DAV:  10    -0.136424160376E+04   -0.24216E-05   -0.19408E-04  2480   0.248E-02    0.237E-02
DAV:  11    -0.136424160251E+04    0.12557E-05   -0.73903E-05  2384   0.188E-02    0.134E-02
DAV:  12    -0.136424160281E+04   -0.30079E-06   -0.33057E-05  2336   0.127E-02    0.120E-02
DAV:  13    -0.136424160157E+04    0.12369E-05   -0.21159E-05  1928   0.842E-03    0.537E-03
DAV:  14    -0.136424160158E+04   -0.50932E-08   -0.50136E-06  1328   0.589E-03
  10 F= -.13642416E+04 E0= -.13642416E+04  d E =-.645917E+00
 BRION: g(F)=  0.251E+00 g(S)=  0.000E+00 retain N=  6 mean eig= 3.73
 eig:   7.259  7.259  2.824  2.824  1.121  1.121
 bond charge predicted
       N       E                     dE             d eps       ncg     rms          rms(c)
DAV:   1    -0.136445603232E+04   -0.21443E+00   -0.70020E+01  1392   0.119E+01    0.141E+00
DAV:   2    -0.136483211193E+04   -0.37608E+00   -0.39924E+00  2288   0.488E+00    0.715E-01
DAV:   3    -0.136485374439E+04   -0.21632E-01   -0.31515E-01  2600   0.918E-01    0.583E-01
DAV:   4    -0.136484871571E+04    0.50287E-02   -0.29364E-02  2600   0.415E-01    0.411E-01
DAV:   5    -0.136484392331E+04    0.47924E-02   -0.15369E-02  2336   0.258E-01    0.163E-01
DAV:   6    -0.136484422871E+04   -0.30540E-03   -0.11400E-02  2360   0.199E-01    0.131E-01
DAV:   7    -0.136484425089E+04   -0.22179E-04   -0.47221E-03  2448   0.127E-01    0.102E-01
DAV:   8    -0.136484422009E+04    0.30796E-04   -0.16427E-03  2584   0.770E-02    0.544E-02
DAV:   9    -0.136484418946E+04    0.30630E-04   -0.41940E-04  2384   0.418E-02    0.356E-02
DAV:  10    -0.136484419745E+04   -0.79901E-05   -0.18373E-04  2392   0.253E-02    0.238E-02
DAV:  11    -0.136484419510E+04    0.23513E-05   -0.70368E-05  2432   0.179E-02    0.133E-02
DAV:  12    -0.136484419542E+04   -0.32150E-06   -0.33017E-05  2336   0.124E-02    0.122E-02
DAV:  13    -0.136484419406E+04    0.13617E-05   -0.19154E-05  1840   0.808E-03    0.583E-03
DAV:  14    -0.136484419405E+04    0.11525E-07   -0.62605E-06  1536   0.578E-03
  11 F= -.13648442E+04 E0= -.13648442E+04  d E =-.602592E+00
 BRION: g(F)=  0.200E+00 g(S)=  0.000E+00 retain N=  3 mean eig= 5.66
 eig:   7.681  7.681  1.609
 bond charge predicted
       N       E                     dE             d eps       ncg     rms          rms(c)
DAV:   1    -0.136506499932E+04   -0.22081E+00   -0.49015E+01  1384   0.992E+00    0.116E+00
DAV:   2    -0.136532393153E+04   -0.25893E+00   -0.27384E+00  2296   0.397E+00    0.584E-01
DAV:   3    -0.136533794288E+04   -0.14011E-01   -0.20837E-01  2592   0.760E-01    0.474E-01
DAV:   4    -0.136533430110E+04    0.36418E-02   -0.20146E-02  2600   0.338E-01    0.327E-01
DAV:   5    -0.136533109167E+04    0.32094E-02   -0.10387E-02  2360   0.215E-01    0.127E-01
DAV:   6    -0.136533132957E+04   -0.23790E-03   -0.72565E-03  2424   0.158E-01    0.101E-01
DAV:   7    -0.136533134586E+04   -0.16283E-04   -0.25857E-03  2456   0.971E-02    0.777E-02
DAV:   8    -0.136533132708E+04    0.18774E-04   -0.97725E-04  2608   0.594E-02    0.412E-02
DAV:   9    -0.136533131264E+04    0.14444E-04   -0.23599E-04  2352   0.319E-02    0.277E-02
DAV:  10    -0.136533131718E+04   -0.45408E-05   -0.11006E-04  2416   0.201E-02    0.178E-02
DAV:  11    -0.136533131538E+04    0.17945E-05   -0.34366E-05  2352   0.134E-02    0.899E-03
DAV:  12    -0.136533131633E+04   -0.94534E-06   -0.21345E-05  2216   0.930E-03    0.843E-03
DAV:  13    -0.136533131546E+04    0.87112E-06   -0.67150E-06  1472   0.598E-03
  12 F= -.13653313E+04 E0= -.13653313E+04  d E =-.487121E+00
 BRION: g(F)=  0.179E+00 g(S)=  0.000E+00 retain N=  3 mean eig= 4.75
 eig:   6.255  6.255  1.752
 bond charge predicted
       N       E                     dE             d eps       ncg     rms          rms(c)
DAV:   1    -0.136552905965E+04   -0.19774E+00   -0.25267E+01  1384   0.716E+00    0.847E-01
DAV:   2    -0.136566140269E+04   -0.13234E+00   -0.14066E+00  2304   0.286E+00    0.428E-01
DAV:   3    -0.136566871163E+04   -0.73089E-02   -0.10865E-01  2584   0.558E-01    0.350E-01
DAV:   4    -0.136566687128E+04    0.18403E-02   -0.10516E-02  2592   0.245E-01    0.244E-01
DAV:   5    -0.136566514075E+04    0.17305E-02   -0.62999E-03  2328   0.166E-01    0.935E-02
DAV:   6    -0.136566533115E+04   -0.19040E-03   -0.41589E-03  2432   0.122E-01    0.894E-02
DAV:   7    -0.136566530479E+04    0.26361E-04   -0.15365E-03  2448   0.742E-02    0.633E-02
DAV:   8    -0.136566528742E+04    0.17372E-04   -0.63367E-04  2560   0.472E-02    0.312E-02
DAV:   9    -0.136566528050E+04    0.69199E-05   -0.12004E-04  2280   0.238E-02    0.218E-02
DAV:  10    -0.136566528215E+04   -0.16460E-05   -0.65044E-05  2352   0.153E-02    0.128E-02
DAV:  11    -0.136566528132E+04    0.82496E-06   -0.17669E-05  2152   0.102E-02    0.666E-03
DAV:  12    -0.136566528208E+04   -0.75475E-06   -0.13505E-05  1888   0.705E-03    0.708E-03
DAV:  13    -0.136566528123E+04    0.85009E-06   -0.18296E-06   992   0.506E-03
  13 F= -.13656653E+04 E0= -.13656653E+04  d E =-.333966E+00
 BRION: g(F)=  0.169E+00 g(S)=  0.000E+00 retain N=  3 mean eig= 3.80
 eig:   4.868  4.868  1.668
 bond charge predicted
       N       E                     dE             d eps       ncg     rms          rms(c)
DAV:   1    -0.136584689243E+04   -0.18161E+00   -0.41155E+01  1384   0.911E+00    0.106E+00
DAV:   2    -0.136606198490E+04   -0.21509E+00   -0.22709E+00  2288   0.360E+00    0.533E-01
DAV:   3    -0.136607434812E+04   -0.12363E-01   -0.17845E-01  2592   0.692E-01    0.432E-01
DAV:   4    -0.136607149978E+04    0.28483E-02   -0.16280E-02  2600   0.306E-01    0.306E-01
DAV:   5    -0.136606861393E+04    0.28858E-02   -0.89818E-03  2328   0.202E-01    0.118E-01
DAV:   6    -0.136606883092E+04   -0.21698E-03   -0.64628E-03  2424   0.149E-01    0.954E-02
DAV:   7    -0.136606884058E+04   -0.96597E-05   -0.21443E-03  2464   0.866E-02    0.719E-02
DAV:   8    -0.136606881804E+04    0.22533E-04   -0.79194E-04  2600   0.549E-02    0.370E-02
DAV:   9    -0.136606880606E+04    0.11987E-04   -0.19634E-04  2336   0.289E-02    0.243E-02
DAV:  10    -0.136606880941E+04   -0.33527E-05   -0.73406E-05  2384   0.170E-02    0.150E-02
DAV:  11    -0.136606880822E+04    0.11944E-05   -0.24431E-05  2312   0.110E-02    0.694E-03
DAV:  12    -0.136606880907E+04   -0.85855E-06   -0.14156E-05  1936   0.772E-03    0.653E-03
DAV:  13    -0.136606880845E+04    0.62778E-06   -0.18991E-06   992   0.499E-03
  14 F= -.13660688E+04 E0= -.13660688E+04  d E =-.403527E+00
 BRION: g(F)=  0.151E+00 g(S)=  0.000E+00 retain N=  3 mean eig= 5.47
 eig:   7.431  7.431  1.550
 bond charge predicted
       N       E                     dE             d eps       ncg     rms          rms(c)
DAV:   1    -0.136623318628E+04   -0.16438E+00   -0.34427E+01  1384   0.834E+00    0.958E-01
DAV:   2    -0.136641248468E+04   -0.17930E+00   -0.18905E+00  2288   0.329E+00    0.483E-01
DAV:   3    -0.136642285059E+04   -0.10366E-01   -0.14876E-01  2592   0.633E-01    0.391E-01
DAV:   4    -0.136642053128E+04    0.23193E-02   -0.13380E-02  2600   0.279E-01    0.280E-01
DAV:   5    -0.136641800820E+04    0.25231E-02   -0.72328E-03  2312   0.183E-01    0.111E-01
DAV:   6    -0.136641814682E+04   -0.13861E-03   -0.57174E-03  2400   0.140E-01    0.855E-02
DAV:   7    -0.136641817481E+04   -0.27994E-04   -0.19474E-03  2448   0.824E-02    0.670E-02
DAV:   8    -0.136641815863E+04    0.16175E-04   -0.64771E-04  2616   0.500E-02    0.354E-02
DAV:   9    -0.136641814420E+04    0.14435E-04   -0.18964E-04  2368   0.280E-02    0.219E-02
DAV:  10    -0.136641814833E+04   -0.41294E-05   -0.68329E-05  2440   0.164E-02    0.148E-02
DAV:  11    -0.136641814675E+04    0.15740E-05   -0.22733E-05  2304   0.107E-02    0.708E-03
DAV:  12    -0.136641814741E+04   -0.65834E-06   -0.12004E-05  1784   0.736E-03    0.644E-03
DAV:  13    -0.136641814681E+04    0.60421E-06   -0.20943E-06  1008   0.500E-03
  15 F= -.13664181E+04 E0= -.13664181E+04  d E =-.349338E+00
 BRION: g(F)=  0.137E+00 g(S)=  0.000E+00 retain N=  3 mean eig= 4.27
 eig:   5.735  5.735  1.337
 bond charge predicted
       N       E                     dE             d eps       ncg     rms          rms(c)
DAV:   1    -0.136655574879E+04   -0.13760E+00   -0.41879E+01  1384   0.922E+00    0.106E+00
DAV:   2    -0.136677383038E+04   -0.21808E+00   -0.23056E+00  2296   0.364E+00    0.532E-01
DAV:   3    -0.136678685210E+04   -0.13022E-01   -0.18397E-01  2584   0.711E-01    0.433E-01
DAV:   4    -0.136678424219E+04    0.26099E-02   -0.16600E-02  2600   0.309E-01    0.314E-01
DAV:   5    -0.136678118636E+04    0.30558E-02   -0.94526E-03  2312   0.206E-01    0.126E-01
DAV:   6    -0.136678137890E+04   -0.19254E-03   -0.70918E-03  2384   0.158E-01    0.103E-01
DAV:   7    -0.136678138180E+04   -0.28961E-05   -0.26500E-03  2432   0.957E-02    0.766E-02
DAV:   8    -0.136678135809E+04    0.23712E-04   -0.91191E-04  2592   0.594E-02    0.397E-02
DAV:   9    -0.136678134482E+04    0.13262E-04   -0.22804E-04  2392   0.309E-02    0.255E-02
DAV:  10    -0.136678134876E+04   -0.39379E-05   -0.85682E-05  2424   0.181E-02    0.158E-02
DAV:  11    -0.136678134800E+04    0.76230E-06   -0.29595E-05  2392   0.121E-02    0.823E-03
DAV:  12    -0.136678134859E+04   -0.58820E-06   -0.15481E-05  1968   0.849E-03    0.798E-03
DAV:  13    -0.136678134795E+04    0.64170E-06   -0.67104E-06  1504   0.591E-03
  16 F= -.13667813E+04 E0= -.13667813E+04  d E =-.363201E+00
 BRION: g(F)=  0.121E+00 g(S)=  0.000E+00 retain N=  3 mean eig= 5.77
 eig:   7.869  7.869  1.578
 bond charge predicted
       N       E                     dE             d eps       ncg     rms          rms(c)
DAV:   1    -0.136687338413E+04   -0.92036E-01   -0.52091E+01  1384   0.103E+01    0.117E+00
DAV:   2    -0.136714580767E+04   -0.27242E+00   -0.28719E+00  2296   0.407E+00    0.590E-01
DAV:   3    -0.136716196613E+04   -0.16158E-01   -0.22748E-01  2568   0.787E-01    0.478E-01
DAV:   4    -0.136715876469E+04    0.32014E-02   -0.20782E-02  2592   0.344E-01    0.349E-01
DAV:   5    -0.136715490278E+04    0.38619E-02   -0.11407E-02  2328   0.223E-01    0.137E-01
DAV:   6    -0.136715511925E+04   -0.21647E-03   -0.84957E-03  2384   0.168E-01    0.105E-01
DAV:   7    -0.136715515389E+04   -0.34633E-04   -0.30189E-03  2480   0.100E-01    0.798E-02
DAV:   8    -0.136715512731E+04    0.26574E-04   -0.95189E-04  2616   0.627E-02    0.420E-02
DAV:   9    -0.136715511237E+04    0.14938E-04   -0.27132E-04  2392   0.330E-02    0.267E-02
DAV:  10    -0.136715511829E+04   -0.59168E-05   -0.85274E-05  2440   0.187E-02    0.179E-02
DAV:  11    -0.136715511630E+04    0.19894E-05   -0.36179E-05  2424   0.127E-02    0.833E-03
DAV:  12    -0.136715511710E+04   -0.79774E-06   -0.16421E-05  2000   0.894E-03    0.772E-03
DAV:  13    -0.136715511650E+04    0.59832E-06   -0.50345E-06  1344   0.555E-03
  17 F= -.13671551E+04 E0= -.13671551E+04  d E =-.373769E+00
 BRION: g(F)=  0.107E+00 g(S)=  0.000E+00 retain N=  2 mean eig= 4.81
 eig:   4.810  4.810
 bond charge predicted
       N       E                     dE             d eps       ncg     rms          rms(c)
DAV:   1    -0.136726675293E+04   -0.11164E+00   -0.21075E+01  1384   0.657E+00    0.755E-01
DAV:   2    -0.136737620155E+04   -0.10945E+00   -0.11568E+00  2296   0.258E+00    0.381E-01
DAV:   3    -0.136738282714E+04   -0.66256E-02   -0.92888E-02  2576   0.503E-01    0.313E-01
DAV:   4    -0.136738151777E+04    0.13094E-02   -0.84445E-03  2592   0.221E-01    0.228E-01
DAV:   5    -0.136737991334E+04    0.16044E-02   -0.51961E-03  2296   0.150E-01    0.858E-02
DAV:   6    -0.136738006613E+04   -0.15278E-03   -0.37092E-03  2400   0.113E-01    0.785E-02
DAV:   7    -0.136738005351E+04    0.12614E-04   -0.12913E-03  2424   0.664E-02    0.552E-02
DAV:   8    -0.136738003945E+04    0.14065E-04   -0.44842E-04  2568   0.413E-02    0.274E-02
DAV:   9    -0.136738003301E+04    0.64349E-05   -0.10201E-04  2272   0.213E-02    0.185E-02
DAV:  10    -0.136738003428E+04   -0.12681E-05   -0.33831E-05  2368   0.118E-02    0.111E-02
DAV:  11    -0.136738003365E+04    0.63149E-06   -0.12078E-05  1880   0.796E-03    0.554E-03
DAV:  12    -0.136738003406E+04   -0.41460E-06   -0.87664E-06  1696   0.621E-03
  18 F= -.13673800E+04 E0= -.13673800E+04  d E =-.224918E+00
 BRION: g(F)=  0.103E+00 g(S)=  0.000E+00 retain N=  3 mean eig= 4.48
 eig:   5.919  5.919  1.607
 bond charge predicted
       N       E                     dE             d eps       ncg     rms          rms(c)
DAV:   1    -0.136743920946E+04   -0.59176E-01   -0.46473E+01  1384   0.975E+00    0.112E+00
DAV:   2    -0.136768387742E+04   -0.24467E+00   -0.25832E+00  2288   0.386E+00    0.563E-01
DAV:   3    -0.136769863001E+04   -0.14753E-01   -0.20714E-01  2592   0.755E-01    0.458E-01
DAV:   4    -0.136769569395E+04    0.29361E-02   -0.18688E-02  2608   0.329E-01    0.332E-01
DAV:   5    -0.136769230542E+04    0.33885E-02   -0.10177E-02  2336   0.207E-01    0.130E-01
DAV:   6    -0.136769249656E+04   -0.19114E-03   -0.73001E-03  2392   0.154E-01    0.982E-02
DAV:   7    -0.136769251881E+04   -0.22250E-04   -0.26478E-03  2496   0.940E-02    0.730E-02
DAV:   8    -0.136769249689E+04    0.21918E-04   -0.83364E-04  2616   0.585E-02    0.393E-02
DAV:   9    -0.136769248666E+04    0.10232E-04   -0.22543E-04  2408   0.302E-02    0.253E-02
DAV:  10    -0.136769249102E+04   -0.43541E-05   -0.75029E-05  2448   0.174E-02    0.157E-02
DAV:  11    -0.136769249012E+04    0.89855E-06   -0.29690E-05  2424   0.117E-02    0.756E-03
DAV:  12    -0.136769249067E+04   -0.55436E-06   -0.14607E-05  1912   0.846E-03    0.696E-03
DAV:  13    -0.136769249006E+04    0.61274E-06   -0.27124E-06  1056   0.530E-03
  19 F= -.13676925E+04 E0= -.13676925E+04  d E =-.312456E+00
 BRION: g(F)=  0.907E-01 g(S)=  0.000E+00 retain N=  2 mean eig= 3.17
 eig:   3.172  3.172
 bond charge predicted
       N       E                     dE             d eps       ncg     rms          rms(c)
DAV:   1    -0.136778004939E+04   -0.87559E-01   -0.17060E+01  1384   0.590E+00    0.663E-01
DAV:   2    -0.136786905645E+04   -0.89007E-01   -0.93778E-01  2296   0.233E+00    0.337E-01
DAV:   3    -0.136787455124E+04   -0.54948E-02   -0.75333E-02  2576   0.452E-01    0.274E-01
DAV:   4    -0.136787361390E+04    0.93735E-03   -0.66536E-03  2592   0.195E-01    0.204E-01
DAV:   5    -0.136787236001E+04    0.12539E-02   -0.36572E-03  2312   0.122E-01    0.813E-02
DAV:   6    -0.136787241769E+04   -0.57672E-04   -0.27995E-03  2328   0.949E-02    0.617E-02
DAV:   7    -0.136787242734E+04   -0.96572E-05   -0.10977E-03  2448   0.597E-02    0.473E-02
DAV:   8    -0.136787241683E+04    0.10517E-04   -0.33841E-04  2552   0.368E-02    0.258E-02
DAV:   9    -0.136787241113E+04    0.56953E-05   -0.96855E-05  2376   0.196E-02    0.164E-02
DAV:  10    -0.136787241290E+04   -0.17711E-05   -0.30707E-05  2352   0.110E-02    0.108E-02
DAV:  11    -0.136787241204E+04    0.85852E-06   -0.10284E-05  1696   0.771E-03    0.575E-03
DAV:  12    -0.136787241228E+04   -0.24014E-06   -0.89512E-06  1568   0.674E-03
  20 F= -.13678724E+04 E0= -.13678724E+04  d E =-.179922E+00
 BRION: g(F)=  0.841E-01 g(S)=  0.000E+00 retain N=  3 mean eig= 3.89
 eig:   5.245  5.245  1.177
