 running on  160 total cores
 distrk:  each k-point on  160 cores,    1 groups
 distr:  one band on   20 cores,    8 groups
 using from now: INCAR     
 vasp.5.4.4.18Apr17-6-g9f103f2a35 (build May 01 2020 14:22:42) gamma-only       
  
 POSCAR found type information on POSCAR  O  La Zr Li Al
 POSCAR found :  5 types and     190 ions
 scaLAPACK will be used
 LDA part: xc-table for Pade appr. of Perdew
 POSCAR, INCAR and KPOINTS ok, starting setup
 FFT: planning ...
 WAVECAR not read
 WARNING: random wavefunctions but no delay for mixing, default for NELMDL
 entering main loop
       N       E                     dE             d eps       ncg     rms          rms(c)
DAV:   1     0.252890327687E+05    0.25289E+05   -0.42139E+05  1568   0.253E+03
DAV:   2     0.942947890466E+04   -0.15860E+05   -0.14575E+05  1424   0.708E+02
DAV:   3     0.269615646703E+04   -0.67333E+04   -0.61288E+04  1496   0.357E+02
DAV:   4    -0.384276492379E+03   -0.30804E+04   -0.28705E+04  2056   0.220E+02
DAV:   5    -0.143353272007E+04   -0.10493E+04   -0.10148E+04  2528   0.141E+02    0.117E+02
DAV:   6    -0.131166171160E+04    0.12187E+03   -0.14006E+03  2408   0.650E+01    0.503E+01
DAV:   7    -0.133480510085E+04   -0.23143E+02   -0.37789E+02  2568   0.328E+01    0.243E+01
DAV:   8    -0.134623475388E+04   -0.11430E+02   -0.27540E+02  2528   0.265E+01    0.278E+01
DAV:   9    -0.133644910491E+04    0.97856E+01   -0.69135E+01  2432   0.157E+01    0.737E+00
DAV:  10    -0.133801199702E+04   -0.15629E+01   -0.15274E+01  2592   0.875E+00    0.897E+00
DAV:  11    -0.133787425530E+04    0.13774E+00   -0.87864E+00  2624   0.492E+00    0.421E+00
DAV:  12    -0.133773424813E+04    0.14001E+00   -0.29451E+00  2600   0.387E+00    0.263E+00
DAV:  13    -0.133781891966E+04   -0.84672E-01   -0.10140E+00  2552   0.195E+00    0.214E+00
DAV:  14    -0.133778945663E+04    0.29463E-01   -0.36315E-01  2616   0.124E+00    0.115E+00
DAV:  15    -0.133779924263E+04   -0.97860E-02   -0.12629E-01  2560   0.709E-01    0.102E+00
DAV:  16    -0.133780117578E+04   -0.19332E-02   -0.35398E-02  2624   0.376E-01    0.745E-01
DAV:  17    -0.133779661258E+04    0.45632E-02   -0.24379E-02  2424   0.330E-01    0.308E-01
DAV:  18    -0.133779699474E+04   -0.38216E-03   -0.64591E-03  2488   0.169E-01    0.179E-01
DAV:  19    -0.133779679588E+04    0.19886E-03   -0.36872E-03  2552   0.114E-01    0.116E-01
DAV:  20    -0.133779685043E+04   -0.54546E-04   -0.68257E-04  2608   0.608E-02    0.383E-02
DAV:  21    -0.133779686312E+04   -0.12685E-04   -0.17429E-04  2624   0.269E-02    0.443E-02
DAV:  22    -0.133779687656E+04   -0.13440E-04   -0.58069E-05  2496   0.174E-02    0.165E-02
DAV:  23    -0.133779687273E+04    0.38223E-05   -0.43384E-05  2352   0.120E-02    0.110E-02
DAV:  24    -0.133779687634E+04   -0.36061E-05   -0.11363E-05  1736   0.899E-03    0.370E-03
DAV:  25    -0.133779687702E+04   -0.68090E-06   -0.23125E-06  1040   0.475E-03
   1 F= -.13377969E+04 E0= -.13377969E+04  d E =-.133780E+04
 BRION: g(F)=  0.418E+02 g(S)=  0.000E+00
 bond charge predicted
       N       E                     dE             d eps       ncg     rms          rms(c)
DAV:   1    -0.132493704953E+04    0.12860E+02   -0.41974E+03  1680   0.967E+01    0.180E+01
DAV:   2    -0.135396773085E+04   -0.29031E+02   -0.33445E+02  2568   0.442E+01    0.102E+01
DAV:   3    -0.135337463247E+04    0.59310E+00   -0.20226E+01  2608   0.114E+01    0.734E+00
DAV:   4    -0.135240664046E+04    0.96799E+00   -0.64025E+00  2576   0.499E+00    0.378E+00
DAV:   5    -0.135217842661E+04    0.22821E+00   -0.14822E+00  2520   0.295E+00    0.228E+00
DAV:   6    -0.135210689580E+04    0.71531E-01   -0.12967E+00  2432   0.237E+00    0.858E-01
DAV:   7    -0.135214104823E+04   -0.34152E-01   -0.50336E-01  2360   0.139E+00    0.101E+00
DAV:   8    -0.135213731481E+04    0.37334E-02   -0.87953E-02  2624   0.538E-01    0.692E-01
DAV:   9    -0.135213352032E+04    0.37945E-02   -0.70282E-02  2592   0.467E-01    0.296E-01
DAV:  10    -0.135213336310E+04    0.15722E-03   -0.14757E-02  2352   0.283E-01    0.211E-01
DAV:  11    -0.135213317372E+04    0.18937E-03   -0.10668E-02  2488   0.191E-01    0.118E-01
DAV:  12    -0.135213336372E+04   -0.18999E-03   -0.31974E-03  2472   0.103E-01    0.938E-02
DAV:  13    -0.135213330459E+04    0.59132E-04   -0.96156E-04  2560   0.577E-02    0.437E-02
DAV:  14    -0.135213330642E+04   -0.18324E-05   -0.44398E-04  2608   0.375E-02    0.239E-02
DAV:  15    -0.135213330508E+04    0.13362E-05   -0.10629E-04  2592   0.221E-02    0.148E-02
DAV:  16    -0.135213330656E+04   -0.14785E-05   -0.49207E-05  2560   0.129E-02    0.779E-03
DAV:  17    -0.135213330597E+04    0.59183E-06   -0.49511E-06  1384   0.646E-03
   2 F= -.13521333E+04 E0= -.13521333E+04  d E =-.143364E+02
 BRION: g(F)=  0.714E+02 g(S)=  0.000E+00 retain N=  1 mean eig= 0.40
 eig:   0.399
 bond charge predicted
       N       E                     dE             d eps       ncg     rms          rms(c)
DAV:   1    -0.134480008558E+04    0.73332E+01   -0.13440E+03  1368   0.403E+01    0.158E+01
DAV:   2    -0.136045934395E+04   -0.15659E+02   -0.20950E+02  2536   0.212E+01    0.141E+01
DAV:   3    -0.135833761582E+04    0.21217E+01   -0.20279E+01  2400   0.852E+00    0.912E+00
DAV:   4    -0.135712733799E+04    0.12103E+01   -0.16278E+01  2136   0.452E+00    0.336E+00
DAV:   5    -0.135731488479E+04   -0.18755E+00   -0.26160E+00  2424   0.283E+00    0.388E+00
DAV:   6    -0.135703913258E+04    0.27575E+00   -0.20699E+00  2472   0.211E+00    0.896E-01
DAV:   7    -0.135707068318E+04   -0.31551E-01   -0.50718E-01  2456   0.128E+00    0.928E-01
DAV:   8    -0.135706030475E+04    0.10378E-01   -0.12949E-01  2576   0.702E-01    0.519E-01
DAV:   9    -0.135705894352E+04    0.13612E-02   -0.38964E-02  2520   0.351E-01    0.217E-01
DAV:  10    -0.135705950624E+04   -0.56272E-03   -0.94207E-03  2600   0.185E-01    0.139E-01
DAV:  11    -0.135705946901E+04    0.37226E-04   -0.22191E-03  2624   0.956E-02    0.110E-01
DAV:  12    -0.135705938365E+04    0.85365E-04   -0.17426E-03  2512   0.666E-02    0.309E-02
DAV:  13    -0.135705941302E+04   -0.29374E-04   -0.40672E-04  2528   0.416E-02    0.306E-02
DAV:  14    -0.135705941127E+04    0.17542E-05   -0.67518E-05  2616   0.178E-02    0.249E-02
DAV:  15    -0.135705940496E+04    0.63063E-05   -0.53086E-05  2256   0.129E-02    0.853E-03
DAV:  16    -0.135705940587E+04   -0.90469E-06   -0.15186E-05  2040   0.794E-03    0.308E-03
DAV:  17    -0.135705940598E+04   -0.10912E-06   -0.29203E-06  1232   0.437E-03
   3 F= -.13570594E+04 E0= -.13570594E+04  d E =-.492610E+01
 BRION: g(F)=  0.817E+01 g(S)=  0.000E+00 retain N=  2 mean eig= 1.72
 eig:   0.211  3.237
 bond charge predicted
       N       E                     dE             d eps       ncg     rms          rms(c)
DAV:   1    -0.135824671055E+04   -0.11873E+01   -0.44984E+02  1384   0.306E+01    0.618E+00
DAV:   2    -0.136056409170E+04   -0.23174E+01   -0.26910E+01  2312   0.121E+01    0.275E+00
DAV:   3    -0.136064130142E+04   -0.77210E-01   -0.25641E+00  2624   0.320E+00    0.245E+00
DAV:   4    -0.136056713772E+04    0.74164E-01   -0.41719E-01  2592   0.147E+00    0.148E+00
DAV:   5    -0.136053661484E+04    0.30523E-01   -0.30125E-01  2192   0.105E+00    0.747E-01
DAV:   6    -0.136053829928E+04   -0.16844E-02   -0.14202E-01  2504   0.747E-01    0.665E-01
DAV:   7    -0.136053575878E+04    0.25405E-02   -0.89261E-02  2488   0.505E-01    0.377E-01
DAV:   8    -0.136053507810E+04    0.68068E-03   -0.14261E-02  2536   0.250E-01    0.238E-01
DAV:   9    -0.136053483431E+04    0.24378E-03   -0.47236E-03  2616   0.135E-01    0.123E-01
DAV:  10    -0.136053509057E+04   -0.25626E-03   -0.37319E-03  2272   0.983E-02    0.119E-01
DAV:  11    -0.136053484174E+04    0.24883E-03   -0.11169E-03  2528   0.738E-02    0.493E-02
DAV:  12    -0.136053487592E+04   -0.34184E-04   -0.10384E-03  2528   0.538E-02    0.350E-02
DAV:  13    -0.136053486342E+04    0.12502E-04   -0.13847E-04  2520   0.258E-02    0.165E-02
DAV:  14    -0.136053486553E+04   -0.21111E-05   -0.67030E-05  2312   0.136E-02    0.613E-03
DAV:  15    -0.136053486623E+04   -0.69395E-06   -0.81472E-06  1768   0.681E-03
   4 F= -.13605349E+04 E0= -.13605349E+04  d E =-.347546E+01
 BRION: g(F)=  0.346E+01 g(S)=  0.000E+00 retain N=  3 mean eig= 2.09
 eig:   5.413  0.265  0.592
 bond charge predicted
       N       E                     dE             d eps       ncg     rms          rms(c)
DAV:   1    -0.136152148782E+04   -0.98662E+00   -0.22000E+02  1384   0.212E+01    0.303E+00
DAV:   2    -0.136258561472E+04   -0.10641E+01   -0.11588E+01  2288   0.808E+00    0.154E+00
DAV:   3    -0.136261778167E+04   -0.32167E-01   -0.86956E-01  2600   0.170E+00    0.129E+00
DAV:   4    -0.136258792010E+04    0.29862E-01   -0.14978E-01  2584   0.850E-01    0.749E-01
DAV:   5    -0.136257531615E+04    0.12604E-01   -0.75653E-02  2296   0.561E-01    0.390E-01
DAV:   6    -0.136257625499E+04   -0.93884E-03   -0.46620E-02  2416   0.438E-01    0.346E-01
DAV:   7    -0.136257560244E+04    0.65255E-03   -0.28061E-02  2304   0.292E-01    0.226E-01
DAV:   8    -0.136257562218E+04   -0.19737E-04   -0.77731E-03  2424   0.163E-01    0.125E-01
DAV:   9    -0.136257547898E+04    0.14320E-03   -0.16195E-03  2576   0.829E-02    0.871E-02
DAV:  10    -0.136257556203E+04   -0.83056E-04   -0.17387E-03  2384   0.672E-02    0.826E-02
DAV:  11    -0.136257544990E+04    0.11213E-03   -0.66044E-04  2480   0.547E-02    0.307E-02
DAV:  12    -0.136257547163E+04   -0.21727E-04   -0.37391E-04  2512   0.358E-02    0.279E-02
DAV:  13    -0.136257546383E+04    0.77986E-05   -0.95261E-05  2384   0.196E-02    0.113E-02
DAV:  14    -0.136257546490E+04   -0.10691E-05   -0.28644E-05  2200   0.104E-02    0.706E-03
DAV:  15    -0.136257546529E+04   -0.38728E-06   -0.33122E-06  1120   0.558E-03
   5 F= -.13625755E+04 E0= -.13625755E+04  d E =-.204060E+01
 BRION: g(F)=  0.207E+01 g(S)=  0.000E+00 retain N=  4 mean eig= 1.80
 eig:   5.503  0.303  0.695  0.695
 bond charge predicted
       N       E                     dE             d eps       ncg     rms          rms(c)
DAV:   1    -0.136330906761E+04   -0.73360E+00   -0.20722E+02  1352   0.201E+01    0.256E+00
DAV:   2    -0.136431862413E+04   -0.10096E+01   -0.10665E+01  2296   0.744E+00    0.140E+00
DAV:   3    -0.136435577566E+04   -0.37152E-01   -0.75523E-01  2608   0.153E+00    0.122E+00
DAV:   4    -0.136433637308E+04    0.19403E-01   -0.10143E-01  2576   0.664E-01    0.785E-01
DAV:   5    -0.136432131164E+04    0.15061E-01   -0.63282E-02  2192   0.476E-01    0.314E-01
DAV:   6    -0.136432385045E+04   -0.25388E-02   -0.40538E-02  2432   0.365E-01    0.385E-01
DAV:   7    -0.136432221840E+04    0.16321E-02   -0.17877E-02  2432   0.243E-01    0.237E-01
DAV:   8    -0.136432189824E+04    0.32015E-03   -0.78386E-03  2520   0.152E-01    0.974E-02
DAV:   9    -0.136432189189E+04    0.63554E-05   -0.10662E-03  2448   0.691E-02    0.702E-02
DAV:  10    -0.136432190958E+04   -0.17692E-04   -0.46998E-04  2328   0.371E-02    0.427E-02
DAV:  11    -0.136432188613E+04    0.23455E-04   -0.16827E-04  2480   0.307E-02    0.215E-02
DAV:  12    -0.136432189601E+04   -0.98857E-05   -0.19315E-04  2424   0.236E-02    0.265E-02
DAV:  13    -0.136432188679E+04    0.92233E-05   -0.55438E-05  2272   0.143E-02    0.123E-02
DAV:  14    -0.136432188707E+04   -0.28110E-06   -0.11820E-05  1760   0.742E-03    0.762E-03
DAV:  15    -0.136432188667E+04    0.39506E-06   -0.64690E-06  1576   0.527E-03
   6 F= -.13643219E+04 E0= -.13643219E+04  d E =-.174642E+01
 BRION: g(F)=  0.106E+01 g(S)=  0.000E+00 retain N=  5 mean eig= 1.95
 eig:   5.852  1.520  1.520  0.001  0.849
 bond charge predicted
       N       E                     dE             d eps       ncg     rms          rms(c)
DAV:   1    -0.136457586351E+04   -0.25398E+00   -0.17309E+02  1368   0.180E+01    0.242E+00
DAV:   2    -0.136542641540E+04   -0.85055E+00   -0.89174E+00  2312   0.674E+00    0.130E+00
DAV:   3    -0.136544994506E+04   -0.23530E-01   -0.58887E-01  2624   0.139E+00    0.101E+00
DAV:   4    -0.136542665048E+04    0.23295E-01   -0.12225E-01  2488   0.699E-01    0.474E-01
DAV:   5    -0.136542496704E+04    0.16834E-02   -0.38011E-02  2504   0.388E-01    0.278E-01
DAV:   6    -0.136542511301E+04   -0.14597E-03   -0.18442E-02  2544   0.232E-01    0.131E-01
DAV:   7    -0.136542515074E+04   -0.37728E-04   -0.37931E-03  2376   0.133E-01    0.974E-02
DAV:   8    -0.136542517598E+04   -0.25242E-04   -0.15800E-03  2456   0.672E-02    0.467E-02
DAV:   9    -0.136542518504E+04   -0.90623E-05   -0.41524E-04  2616   0.425E-02    0.337E-02
DAV:  10    -0.136542518359E+04    0.14544E-05   -0.16654E-04  2536   0.248E-02    0.184E-02
DAV:  11    -0.136542518590E+04   -0.23097E-05   -0.93154E-05  2480   0.176E-02    0.119E-02
DAV:  12    -0.136542518522E+04    0.67620E-06   -0.17070E-05  2016   0.886E-03    0.769E-03
DAV:  13    -0.136542518508E+04    0.13912E-06   -0.10824E-05  1640   0.662E-03    0.392E-03
DAV:  14    -0.136542518503E+04    0.57320E-07   -0.19534E-06  1032   0.528E-03
   7 F= -.13654252E+04 E0= -.13654252E+04  d E =-.110330E+01
 BRION: g(F)=  0.471E+00 g(S)=  0.000E+00 retain N=  5 mean eig= 1.64
 eig:   3.157  3.157  0.391  0.750  0.750
 bond charge predicted
       N       E                     dE             d eps       ncg     rms          rms(c)
DAV:   1    -0.136570322238E+04   -0.27804E+00   -0.51193E+01  1360   0.101E+01    0.136E+00
DAV:   2    -0.136595290784E+04   -0.24969E+00   -0.26497E+00  2312   0.385E+00    0.684E-01
DAV:   3    -0.136596470920E+04   -0.11801E-01   -0.19825E-01  2608   0.771E-01    0.545E-01
DAV:   4    -0.136596004755E+04    0.46616E-02   -0.29042E-02  2536   0.371E-01    0.302E-01
DAV:   5    -0.136595900215E+04    0.10454E-02   -0.11753E-02  2424   0.218E-01    0.148E-01
DAV:   6    -0.136595921135E+04   -0.20919E-03   -0.47356E-03  2576   0.132E-01    0.986E-02
DAV:   7    -0.136595915866E+04    0.52687E-04   -0.17320E-03  2376   0.829E-02    0.630E-02
DAV:   8    -0.136595918687E+04   -0.28208E-04   -0.84979E-04  2432   0.506E-02    0.436E-02
DAV:   9    -0.136595916918E+04    0.17692E-04   -0.14919E-04  2520   0.275E-02    0.300E-02
DAV:  10    -0.136595917002E+04   -0.84456E-06   -0.18795E-04  2432   0.228E-02    0.191E-02
DAV:  11    -0.136595916761E+04    0.24136E-05   -0.59294E-05  2296   0.160E-02    0.646E-03
DAV:  12    -0.136595916833E+04   -0.72243E-06   -0.12051E-05  1776   0.871E-03    0.531E-03
DAV:  13    -0.136595916824E+04    0.92870E-07   -0.49152E-06  1376   0.546E-03
   8 F= -.13659592E+04 E0= -.13659592E+04  d E =-.533983E+00
 BRION: g(F)=  0.360E+00 g(S)=  0.000E+00 retain N=  6 mean eig= 2.16
 eig:   4.811  4.811  1.060  1.060  0.379  0.819
 bond charge predicted
       N       E                     dE             d eps       ncg     rms          rms(c)
DAV:   1    -0.136617615115E+04   -0.21698E+00   -0.74482E+01  1368   0.122E+01    0.145E+00
DAV:   2    -0.136653392567E+04   -0.35777E+00   -0.37739E+00  2272   0.461E+00    0.734E-01
DAV:   3    -0.136655457779E+04   -0.20652E-01   -0.29935E-01  2608   0.913E-01    0.594E-01
DAV:   4    -0.136654969077E+04    0.48870E-02   -0.31939E-02  2608   0.401E-01    0.385E-01
DAV:   5    -0.136654626906E+04    0.34217E-02   -0.13950E-02  2376   0.248E-01    0.151E-01
DAV:   6    -0.136654673445E+04   -0.46539E-03   -0.84722E-03  2472   0.177E-01    0.127E-01
DAV:   7    -0.136654666126E+04    0.73194E-04   -0.31477E-03  2424   0.109E-01    0.909E-02
DAV:   8    -0.136654665352E+04    0.77337E-05   -0.15815E-03  2584   0.707E-02    0.489E-02
DAV:   9    -0.136654664271E+04    0.10816E-04   -0.27920E-04  2504   0.364E-02    0.376E-02
DAV:  10    -0.136654664074E+04    0.19664E-05   -0.14940E-04  2512   0.226E-02    0.234E-02
DAV:  11    -0.136654663918E+04    0.15555E-05   -0.62624E-05  2416   0.164E-02    0.123E-02
DAV:  12    -0.136654663898E+04    0.20771E-06   -0.24281E-05  2192   0.110E-02    0.103E-02
DAV:  13    -0.136654663840E+04    0.57835E-06   -0.16722E-05  1816   0.762E-03    0.504E-03
DAV:  14    -0.136654663823E+04    0.16895E-06   -0.22555E-06  1056   0.502E-03
   9 F= -.13665466E+04 E0= -.13665466E+04  d E =-.587470E+00
 BRION: g(F)=  0.270E+00 g(S)=  0.000E+00 retain N=  7 mean eig= 2.79
 eig:   6.460  6.460  2.096  2.096  0.374  1.007  1.007
 bond charge predicted
       N       E                     dE             d eps       ncg     rms          rms(c)
DAV:   1    -0.136663161519E+04   -0.84977E-01   -0.10265E+02  1368   0.143E+01    0.167E+00
DAV:   2    -0.136713856283E+04   -0.50695E+00   -0.53704E+00  2288   0.548E+00    0.857E-01
DAV:   3    -0.136716806008E+04   -0.29497E-01   -0.43225E-01  2592   0.107E+00    0.686E-01
DAV:   4    -0.136716089199E+04    0.71681E-02   -0.44964E-02  2560   0.487E-01    0.447E-01
DAV:   5    -0.136715617164E+04    0.47204E-02   -0.19599E-02  2392   0.276E-01    0.179E-01
DAV:   6    -0.136715652603E+04   -0.35439E-03   -0.10372E-02  2416   0.192E-01    0.128E-01
DAV:   7    -0.136715656109E+04   -0.35055E-04   -0.45892E-03  2440   0.132E-01    0.939E-02
DAV:   8    -0.136715657855E+04   -0.17463E-04   -0.18057E-03  2600   0.795E-02    0.609E-02
DAV:   9    -0.136715655859E+04    0.19957E-04   -0.39953E-04  2560   0.425E-02    0.450E-02
DAV:  10    -0.136715655934E+04   -0.74622E-06   -0.23321E-04  2576   0.272E-02    0.279E-02
DAV:  11    -0.136715655763E+04    0.17118E-05   -0.98070E-05  2456   0.200E-02    0.154E-02
DAV:  12    -0.136715655569E+04    0.19360E-05   -0.35512E-05  2288   0.135E-02    0.109E-02
DAV:  13    -0.136715655572E+04   -0.25466E-07   -0.25481E-05  2144   0.884E-03    0.574E-03
DAV:  14    -0.136715655543E+04    0.28935E-06   -0.29216E-06  1104   0.518E-03
  10 F= -.13671566E+04 E0= -.13671566E+04  d E =-.609917E+00
 BRION: g(F)=  0.174E+00 g(S)=  0.000E+00 retain N=  7 mean eig= 2.55
 eig:   3.467  3.467  3.768  3.768  1.206  1.206  0.991
 bond charge predicted
       N       E                     dE             d eps       ncg     rms          rms(c)
DAV:   1    -0.136729414379E+04   -0.13759E+00   -0.47968E+01  1368   0.980E+00    0.113E+00
DAV:   2    -0.136752755029E+04   -0.23341E+00   -0.24727E+00  2304   0.375E+00    0.590E-01
DAV:   3    -0.136754047326E+04   -0.12923E-01   -0.19403E-01  2592   0.725E-01    0.470E-01
DAV:   4    -0.136753699698E+04    0.34763E-02   -0.20608E-02  2560   0.322E-01    0.305E-01
DAV:   5    -0.136753455147E+04    0.24455E-02   -0.92766E-03  2376   0.201E-01    0.118E-01
DAV:   6    -0.136753481965E+04   -0.26818E-03   -0.53670E-03  2464   0.138E-01    0.965E-02
DAV:   7    -0.136753478567E+04    0.33975E-04   -0.18541E-03  2400   0.843E-02    0.676E-02
DAV:   8    -0.136753479096E+04   -0.52854E-05   -0.95331E-04  2496   0.546E-02    0.388E-02
DAV:   9    -0.136753478554E+04    0.54164E-05   -0.17006E-04  2440   0.285E-02    0.308E-02
DAV:  10    -0.136753478233E+04    0.32114E-05   -0.97879E-05  2552   0.184E-02    0.185E-02
DAV:  11    -0.136753478187E+04    0.46293E-06   -0.41289E-05  2328   0.132E-02    0.961E-03
DAV:  12    -0.136753478148E+04    0.38739E-06   -0.13532E-05  1856   0.884E-03    0.744E-03
DAV:  13    -0.136753478147E+04    0.72323E-08   -0.12302E-05  1752   0.643E-03    0.420E-03
DAV:  14    -0.136753478133E+04    0.14642E-06   -0.14231E-06   984   0.444E-03
  11 F= -.13675348E+04 E0= -.13675348E+04  d E =-.378226E+00
 BRION: g(F)=  0.141E+00 g(S)=  0.000E+00 retain N=  3 mean eig= 5.84
 eig:   7.768  7.768  1.995
 bond charge predicted
       N       E                     dE             d eps       ncg     rms          rms(c)
DAV:   1    -0.136759354704E+04   -0.58766E-01   -0.67120E+01  1384   0.116E+01    0.132E+00
DAV:   2    -0.136793058560E+04   -0.33704E+00   -0.35673E+00  2288   0.456E+00    0.690E-01
DAV:   3    -0.136794927436E+04   -0.18689E-01   -0.28230E-01  2592   0.866E-01    0.553E-01
DAV:   4    -0.136794422443E+04    0.50499E-02   -0.27739E-02  2560   0.384E-01    0.375E-01
DAV:   5    -0.136794012195E+04    0.41025E-02   -0.12989E-02  2336   0.229E-01    0.147E-01
DAV:   6    -0.136794031706E+04   -0.19511E-03   -0.83710E-03  2352   0.169E-01    0.106E-01
DAV:   7    -0.136794035376E+04   -0.36705E-04   -0.33754E-03  2376   0.108E-01    0.805E-02
DAV:   8    -0.136794034977E+04    0.39913E-05   -0.12115E-03  2592   0.653E-02    0.481E-02
DAV:   9    -0.136794033803E+04    0.11736E-04   -0.29549E-04  2520   0.357E-02    0.343E-02
DAV:  10    -0.136794034111E+04   -0.30730E-05   -0.14125E-04  2544   0.219E-02    0.226E-02
DAV:  11    -0.136794033981E+04    0.12951E-05   -0.61142E-05  2408   0.162E-02    0.127E-02
DAV:  12    -0.136794033914E+04    0.67537E-06   -0.30014E-05  2248   0.117E-02    0.101E-02
DAV:  13    -0.136794033858E+04    0.55702E-06   -0.15994E-05  1872   0.764E-03    0.532E-03
DAV:  14    -0.136794033863E+04   -0.49549E-07   -0.71009E-06  1648   0.564E-03
  12 F= -.13679403E+04 E0= -.13679403E+04  d E =-.405557E+00
 BRION: g(F)=  0.113E+00 g(S)=  0.000E+00 retain N=  3 mean eig= 5.43
 eig:   2.396  6.945  6.945
 bond charge predicted
       N       E                     dE             d eps       ncg     rms          rms(c)
DAV:   1    -0.136799870900E+04   -0.58370E-01   -0.45737E+01  1376   0.961E+00    0.111E+00
DAV:   2    -0.136822774317E+04   -0.22903E+00   -0.24383E+00  2304   0.374E+00    0.584E-01
DAV:   3    -0.136824085795E+04   -0.13115E-01   -0.19730E-01  2592   0.732E-01    0.475E-01
DAV:   4    -0.136823757207E+04    0.32859E-02   -0.19871E-02  2584   0.323E-01    0.320E-01
DAV:   5    -0.136823486498E+04    0.27071E-02   -0.99852E-03  2288   0.197E-01    0.125E-01
DAV:   6    -0.136823509083E+04   -0.22586E-03   -0.57212E-03  2408   0.140E-01    0.105E-01
DAV:   7    -0.136823504864E+04    0.42194E-04   -0.23474E-03  2440   0.922E-02    0.711E-02
DAV:   8    -0.136823504885E+04   -0.20739E-06   -0.10550E-03  2568   0.604E-02    0.440E-02
DAV:   9    -0.136823504002E+04    0.88240E-05   -0.18964E-04  2488   0.302E-02    0.330E-02
DAV:  10    -0.136823503875E+04    0.12693E-05   -0.96344E-05  2544   0.175E-02    0.177E-02
DAV:  11    -0.136823504013E+04   -0.13770E-05   -0.36139E-05  2392   0.128E-02    0.116E-02
DAV:  12    -0.136823503868E+04    0.14459E-05   -0.17434E-05  2152   0.959E-03    0.818E-03
DAV:  13    -0.136823503862E+04    0.58179E-07   -0.13086E-05  1768   0.686E-03    0.443E-03
DAV:  14    -0.136823503850E+04    0.12951E-06   -0.14325E-06   968   0.427E-03
  13 F= -.13682350E+04 E0= -.13682350E+04  d E =-.294700E+00
 BRION: g(F)=  0.966E-01 g(S)=  0.000E+00 retain N=  3 mean eig= 5.72
 eig:   7.311  7.311  2.529
 bond charge predicted
       N       E                     dE             d eps       ncg     rms          rms(c)
DAV:   1    -0.136829169272E+04   -0.56654E-01   -0.29955E+01  1368   0.775E+00    0.898E-01
DAV:   2    -0.136843996981E+04   -0.14828E+00   -0.15657E+00  2304   0.303E+00    0.466E-01
DAV:   3    -0.136844788411E+04   -0.79143E-02   -0.12253E-01  2592   0.574E-01    0.369E-01
DAV:   4    -0.136844537436E+04    0.25098E-02   -0.12616E-02  2568   0.255E-01    0.241E-01
DAV:   5    -0.136844373544E+04    0.16389E-02   -0.58707E-03  2344   0.160E-01    0.918E-02
DAV:   6    -0.136844388395E+04   -0.14851E-03   -0.35623E-03  2432   0.112E-01    0.709E-02
DAV:   7    -0.136844388360E+04    0.34916E-06   -0.11858E-03  2392   0.674E-02    0.530E-02
DAV:   8    -0.136844388221E+04    0.13891E-05   -0.52957E-04  2448   0.410E-02    0.288E-02
DAV:   9    -0.136844387905E+04    0.31609E-05   -0.11014E-04  2424   0.225E-02    0.220E-02
DAV:  10    -0.136844387777E+04    0.12783E-05   -0.60995E-05  2536   0.151E-02    0.138E-02
DAV:  11    -0.136844387726E+04    0.51392E-06   -0.25688E-05  2224   0.106E-02    0.618E-03
DAV:  12    -0.136844387739E+04   -0.13372E-06   -0.76567E-06  1696   0.702E-03
  14 F= -.13684439E+04 E0= -.13684439E+04  d E =-.208839E+00
 BRION: g(F)=  0.806E-01 g(S)=  0.000E+00 retain N=  2 mean eig= 3.25
 eig:   3.254  3.254
 bond charge predicted
       N       E                     dE             d eps       ncg     rms          rms(c)
DAV:   1    -0.136850172610E+04   -0.57849E-01   -0.71420E+00  1368   0.383E+00    0.442E-01
DAV:   2    -0.136853633929E+04   -0.34613E-01   -0.36691E-01  2304   0.147E+00    0.228E-01
DAV:   3    -0.136853821769E+04   -0.18784E-02   -0.28578E-02  2600   0.286E-01    0.183E-01
DAV:   4    -0.136853767735E+04    0.54035E-03   -0.28770E-03  2592   0.126E-01    0.122E-01
DAV:   5    -0.136853728593E+04    0.39142E-03   -0.16966E-03  2200   0.861E-02    0.463E-02
DAV:   6    -0.136853735095E+04   -0.65018E-04   -0.10526E-03  2480   0.606E-02    0.479E-02
DAV:   7    -0.136853734266E+04    0.82889E-05   -0.38945E-04  2424   0.365E-02    0.321E-02
DAV:   8    -0.136853733650E+04    0.61586E-05   -0.12872E-04  2536   0.218E-02    0.157E-02
DAV:   9    -0.136853733527E+04    0.12313E-05   -0.23131E-05  2280   0.108E-02    0.107E-02
DAV:  10    -0.136853733596E+04   -0.69600E-06   -0.15337E-05  1824   0.741E-03    0.678E-03
DAV:  11    -0.136853733514E+04    0.81884E-06   -0.15819E-06  1000   0.598E-03
  15 F= -.13685373E+04 E0= -.13685373E+04  d E =-.934578E-01
 BRION: g(F)=  0.740E-01 g(S)=  0.000E+00 retain N=  3 mean eig= 3.19
 eig:   4.285  4.285  0.998
 bond charge predicted
       N       E                     dE             d eps       ncg     rms          rms(c)
DAV:   1    -0.136859165605E+04   -0.54320E-01   -0.22386E+01  1360   0.671E+00    0.757E-01
DAV:   2    -0.136870151137E+04   -0.10986E+00   -0.11579E+00  2312   0.259E+00    0.390E-01
DAV:   3    -0.136870773784E+04   -0.62265E-02   -0.90208E-02  2592   0.498E-01    0.313E-01
DAV:   4    -0.136870633694E+04    0.14009E-02   -0.85853E-03  2600   0.212E-01    0.215E-01
DAV:   5    -0.136870511216E+04    0.12248E-02   -0.44371E-03  2256   0.135E-01    0.826E-02
DAV:   6    -0.136870524290E+04   -0.13073E-03   -0.26832E-03  2416   0.948E-02    0.700E-02
DAV:   7    -0.136870522630E+04    0.16594E-04   -0.95978E-04  2456   0.592E-02    0.481E-02
DAV:   8    -0.136870522024E+04    0.60586E-05   -0.43183E-04  2520   0.388E-02    0.270E-02
DAV:   9    -0.136870521752E+04    0.27271E-05   -0.80183E-05  2408   0.194E-02    0.201E-02
DAV:  10    -0.136870521725E+04    0.26255E-06   -0.40832E-05  2424   0.118E-02    0.105E-02
DAV:  11    -0.136870521714E+04    0.10978E-06   -0.84815E-06  1584   0.806E-03
  16 F= -.13687052E+04 E0= -.13687052E+04  d E =-.167882E+00
 BRION: g(F)=  0.654E-01 g(S)=  0.000E+00 retain N=  3 mean eig= 4.42
 eig:   6.044  6.044  1.178
 bond charge predicted
       N       E                     dE             d eps       ncg     rms          rms(c)
DAV:   1    -0.136870124742E+04    0.39698E-02   -0.42698E+01  1352   0.925E+00    0.102E+00
DAV:   2    -0.136890852027E+04   -0.20727E+00   -0.21733E+00  2320   0.355E+00    0.525E-01
DAV:   3    -0.136891978661E+04   -0.11266E-01   -0.16162E-01  2592   0.678E-01    0.414E-01
DAV:   4    -0.136891723089E+04    0.25557E-02   -0.15253E-02  2584   0.281E-01    0.284E-01
DAV:   5    -0.136891507500E+04    0.21559E-02   -0.81368E-03  2320   0.186E-01    0.106E-01
DAV:   6    -0.136891537055E+04   -0.29555E-03   -0.48486E-03  2440   0.127E-01    0.920E-02
DAV:   7    -0.136891534412E+04    0.26423E-04   -0.14806E-03  2464   0.748E-02    0.639E-02
DAV:   8    -0.136891532982E+04    0.14301E-04   -0.69662E-04  2584   0.487E-02    0.335E-02
DAV:   9    -0.136891532538E+04    0.44409E-05   -0.12834E-04  2400   0.247E-02    0.243E-02
DAV:  10    -0.136891532572E+04   -0.34239E-06   -0.58278E-05  2456   0.149E-02    0.127E-02
DAV:  11    -0.136891532572E+04    0.55879E-08   -0.18136E-05  2208   0.956E-03    0.597E-03
DAV:  12    -0.136891532604E+04   -0.32455E-06   -0.83892E-06  1728   0.639E-03
  17 F= -.13689153E+04 E0= -.13689153E+04  d E =-.210109E+00
 BRION: g(F)=  0.563E-01 g(S)=  0.000E+00 retain N=  2 mean eig= 5.04
 eig:   5.037  5.037
 bond charge predicted
       N       E                     dE             d eps       ncg     rms          rms(c)
DAV:   1    -0.136896213189E+04   -0.46806E-01   -0.11644E+01  1360   0.485E+00    0.530E-01
DAV:   2    -0.136901875635E+04   -0.56624E-01   -0.59561E-01  2312   0.187E+00    0.271E-01
DAV:   3    -0.136902202036E+04   -0.32640E-02   -0.45202E-02  2584   0.360E-01    0.217E-01
DAV:   4    -0.136902142772E+04    0.59264E-03   -0.40504E-03  2584   0.149E-01    0.155E-01
DAV:   5    -0.136902080379E+04    0.62393E-03   -0.24814E-03  2200   0.995E-02    0.574E-02
DAV:   6    -0.136902090174E+04   -0.97946E-04   -0.15135E-03  2448   0.692E-02    0.583E-02
DAV:   7    -0.136902088679E+04    0.14945E-04   -0.54163E-04  2488   0.436E-02    0.379E-02
DAV:   8    -0.136902087621E+04    0.10577E-04   -0.19581E-04  2536   0.271E-02    0.186E-02
DAV:   9    -0.136902087551E+04    0.70003E-06   -0.35384E-05  2312   0.130E-02    0.128E-02
DAV:  10    -0.136902087591E+04   -0.39546E-06   -0.13122E-05  1904   0.759E-03    0.557E-03
DAV:  11    -0.136902087582E+04    0.91197E-07   -0.14710E-06   992   0.538E-03
  18 F= -.13690209E+04 E0= -.13690209E+04  d E =-.105550E+00
 BRION: g(F)=  0.523E-01 g(S)=  0.000E+00 retain N=  3 mean eig= 4.67
 eig:   6.042  6.042  1.921
 bond charge predicted
       N       E                     dE             d eps       ncg     rms          rms(c)
DAV:   1    -0.136902593225E+04   -0.50563E-02   -0.31431E+01  1360   0.791E+00    0.880E-01
DAV:   2    -0.136917832451E+04   -0.15239E+00   -0.15967E+00  2312   0.304E+00    0.446E-01
DAV:   3    -0.136918689753E+04   -0.85730E-02   -0.11929E-01  2584   0.582E-01    0.351E-01
DAV:   4    -0.136918520359E+04    0.16939E-02   -0.10997E-02  2584   0.239E-01    0.245E-01
DAV:   5    -0.136918367273E+04    0.15309E-02   -0.61081E-03  2264   0.160E-01    0.885E-02
DAV:   6    -0.136918393132E+04   -0.25859E-03   -0.35900E-03  2456   0.107E-01    0.834E-02
DAV:   7    -0.136918390138E+04    0.29939E-04   -0.10447E-03  2496   0.625E-02    0.558E-02
DAV:   8    -0.136918388254E+04    0.18846E-04   -0.47808E-04  2576   0.411E-02    0.280E-02
DAV:   9    -0.136918388126E+04    0.12752E-05   -0.84205E-05  2416   0.201E-02    0.201E-02
DAV:  10    -0.136918388168E+04   -0.42449E-06   -0.33790E-05  2480   0.117E-02    0.934E-03
DAV:  11    -0.136918388172E+04   -0.39407E-07   -0.69679E-06  1544   0.710E-03
  19 F= -.13691839E+04 E0= -.13691839E+04  d E =-.163006E+00
 BRION: g(F)=  0.464E-01 g(S)=  0.000E+00 retain N=  2 mean eig= 3.87
 eig:   3.870  3.870
 bond charge predicted
       N       E                     dE             d eps       ncg     rms          rms(c)
DAV:   1    -0.136916554996E+04    0.18332E-01   -0.36190E+01  1360   0.849E+00    0.934E-01
DAV:   2    -0.136934061979E+04   -0.17507E+00   -0.18346E+00  2312   0.326E+00    0.475E-01
DAV:   3    -0.136935088695E+04   -0.10267E-01   -0.13960E-01  2584   0.615E-01    0.375E-01
DAV:   4    -0.136934907422E+04    0.18127E-02   -0.11925E-02  2592   0.254E-01    0.269E-01
DAV:   5    -0.136934711626E+04    0.19580E-02   -0.69211E-03  2224   0.172E-01    0.969E-02
DAV:   6    -0.136934742791E+04   -0.31165E-03   -0.47428E-03  2440   0.121E-01    0.943E-02
DAV:   7    -0.136934740026E+04    0.27651E-04   -0.13780E-03  2496   0.704E-02    0.661E-02
DAV:   8    -0.136934736673E+04    0.33527E-04   -0.54898E-04  2584   0.443E-02    0.317E-02
DAV:   9    -0.136934736130E+04    0.54305E-05   -0.11071E-04  2248   0.225E-02    0.208E-02
DAV:  10    -0.136934736338E+04   -0.20815E-05   -0.35330E-05  2352   0.120E-02    0.109E-02
DAV:  11    -0.136934736314E+04    0.24590E-06   -0.12798E-05  1984   0.760E-03    0.422E-03
DAV:  12    -0.136934736331E+04   -0.17237E-06   -0.28887E-06  1136   0.514E-03
  20 F= -.13693474E+04 E0= -.13693474E+04  d E =-.163482E+00
 BRION: g(F)=  0.411E-01 g(S)=  0.000E+00 retain N=  2 mean eig= 4.52
 eig:   4.523  4.523
