 running on  160 total cores
 distrk:  each k-point on  160 cores,    1 groups
 distr:  one band on   20 cores,    8 groups
 using from now: INCAR     
 vasp.5.4.4.18Apr17-6-g9f103f2a35 (build May 01 2020 14:22:42) gamma-only       
  
 POSCAR found type information on POSCAR  O  La Zr Li Al
 POSCAR found :  5 types and     190 ions
 scaLAPACK will be used
 LDA part: xc-table for Pade appr. of Perdew
 POSCAR, INCAR and KPOINTS ok, starting setup
 FFT: planning ...
 WAVECAR not read
 WARNING: random wavefunctions but no delay for mixing, default for NELMDL
 entering main loop
       N       E                     dE             d eps       ncg     rms          rms(c)
DAV:   1     0.252755547460E+05    0.25276E+05   -0.42052E+05  1576   0.253E+03
DAV:   2     0.937035804085E+04   -0.15905E+05   -0.14727E+05  1432   0.705E+02
DAV:   3     0.265257543718E+04   -0.67178E+04   -0.61227E+04  1496   0.354E+02
DAV:   4    -0.396726086662E+03   -0.30493E+04   -0.28412E+04  2048   0.225E+02
DAV:   5    -0.142334964295E+04   -0.10266E+04   -0.99133E+03  2536   0.140E+02    0.117E+02
DAV:   6    -0.130249646509E+04    0.12085E+03   -0.14153E+03  2424   0.656E+01    0.500E+01
DAV:   7    -0.132611842173E+04   -0.23622E+02   -0.38398E+02  2576   0.339E+01    0.242E+01
DAV:   8    -0.133590976756E+04   -0.97913E+01   -0.24926E+02  2528   0.259E+01    0.258E+01
DAV:   9    -0.132856353406E+04    0.73462E+01   -0.57768E+01  2472   0.151E+01    0.756E+00
DAV:  10    -0.132967356966E+04   -0.11100E+01   -0.15679E+01  2608   0.817E+00    0.727E+00
DAV:  11    -0.132992156856E+04   -0.24800E+00   -0.61754E+00  2624   0.442E+00    0.401E+00
DAV:  12    -0.132977850370E+04    0.14306E+00   -0.28223E+00  2560   0.359E+00    0.293E+00
DAV:  13    -0.132984337333E+04   -0.64870E-01   -0.73892E-01  2560   0.178E+00    0.193E+00
DAV:  14    -0.132982876058E+04    0.14613E-01   -0.25984E-01  2616   0.101E+00    0.116E+00
DAV:  15    -0.132983509396E+04   -0.63334E-02   -0.86166E-02  2552   0.608E-01    0.966E-01
DAV:  16    -0.132983475820E+04    0.33576E-03   -0.28289E-02  2616   0.305E-01    0.534E-01
DAV:  17    -0.132983285749E+04    0.19007E-02   -0.21510E-02  2424   0.285E-01    0.281E-01
DAV:  18    -0.132983325201E+04   -0.39452E-03   -0.48506E-03  2488   0.143E-01    0.129E-01
DAV:  19    -0.132983329603E+04   -0.44024E-04   -0.13580E-03  2568   0.797E-02    0.923E-02
DAV:  20    -0.132983331429E+04   -0.18257E-04   -0.53613E-04  2616   0.423E-02    0.263E-02
DAV:  21    -0.132983332876E+04   -0.14473E-04   -0.14203E-04  2616   0.240E-02    0.229E-02
DAV:  22    -0.132983334151E+04   -0.12743E-04   -0.61671E-05  2440   0.141E-02    0.132E-02
DAV:  23    -0.132983334122E+04    0.28647E-06   -0.21560E-05  1888   0.933E-03    0.894E-03
DAV:  24    -0.132983334406E+04   -0.28362E-05   -0.56672E-06  1048   0.595E-03    0.336E-03
DAV:  25    -0.132983334354E+04    0.51473E-06   -0.30986E-06   984   0.447E-03
   1 F= -.13298333E+04 E0= -.13298333E+04  d E =-.132983E+04
 BRION: g(F)=  0.564E+02 g(S)=  0.000E+00
 bond charge predicted
       N       E                     dE             d eps       ncg     rms          rms(c)
DAV:   1    -0.129625099264E+04    0.33582E+02   -0.69997E+03  1728   0.126E+02    0.273E+01
DAV:   2    -0.135086439865E+04   -0.54613E+02   -0.62842E+02  2584   0.582E+01    0.141E+01
DAV:   3    -0.134909363219E+04    0.17708E+01   -0.36516E+01  2616   0.152E+01    0.952E+00
DAV:   4    -0.134698338212E+04    0.21103E+01   -0.13379E+01  2424   0.752E+00    0.453E+00
DAV:   5    -0.134682731461E+04    0.15607E+00   -0.40728E+00  2584   0.436E+00    0.325E+00
DAV:   6    -0.134674540324E+04    0.81911E-01   -0.27662E+00  2576   0.288E+00    0.176E+00
DAV:   7    -0.134671595329E+04    0.29450E-01   -0.38609E-01  2536   0.161E+00    0.112E+00
DAV:   8    -0.134671509618E+04    0.85710E-03   -0.42205E-01  2512   0.109E+00    0.693E-01
DAV:   9    -0.134671405645E+04    0.10397E-02   -0.61400E-02  2528   0.554E-01    0.524E-01
DAV:  10    -0.134671174309E+04    0.23134E-02   -0.39469E-02  2504   0.334E-01    0.210E-01
DAV:  11    -0.134671264739E+04   -0.90430E-03   -0.16273E-02  2608   0.223E-01    0.171E-01
DAV:  12    -0.134671246760E+04    0.17979E-03   -0.24927E-03  2520   0.113E-01    0.109E-01
DAV:  13    -0.134671240372E+04    0.63880E-04   -0.24354E-03  2512   0.817E-02    0.277E-02
DAV:  14    -0.134671242899E+04   -0.25266E-04   -0.32013E-04  2568   0.400E-02    0.157E-02
DAV:  15    -0.134671243567E+04   -0.66813E-05   -0.58663E-05  2616   0.175E-02    0.952E-03
DAV:  16    -0.134671243608E+04   -0.41528E-06   -0.21690E-05  2336   0.101E-02    0.738E-03
DAV:  17    -0.134671243701E+04   -0.92748E-06   -0.87087E-06  1680   0.704E-03
   2 F= -.13467124E+04 E0= -.13467124E+04  d E =-.168791E+02
 BRION: g(F)=  0.103E+03 g(S)=  0.000E+00 retain N=  1 mean eig= 0.39
 eig:   0.392
 bond charge predicted
       N       E                     dE             d eps       ncg     rms          rms(c)
DAV:   1    -0.133243901054E+04    0.14273E+02   -0.19794E+03  1344   0.552E+01    0.194E+01
DAV:   2    -0.135904047281E+04   -0.26601E+02   -0.35335E+02  2528   0.291E+01    0.172E+01
DAV:   3    -0.135631803297E+04    0.27224E+01   -0.38589E+01  2552   0.122E+01    0.131E+01
DAV:   4    -0.135348547815E+04    0.28326E+01   -0.26954E+01  2280   0.550E+00    0.508E+00
DAV:   5    -0.135410585022E+04   -0.62037E+00   -0.72169E+00  2432   0.373E+00    0.643E+00
DAV:   6    -0.135335572769E+04    0.75012E+00   -0.67689E+00  2488   0.290E+00    0.121E+00
DAV:   7    -0.135343145470E+04   -0.75727E-01   -0.96964E-01  2512   0.210E+00    0.142E+00
DAV:   8    -0.135339698071E+04    0.34474E-01   -0.27285E-01  2568   0.926E-01    0.640E-01
DAV:   9    -0.135339713551E+04   -0.15480E-03   -0.83267E-02  2536   0.541E-01    0.275E-01
DAV:  10    -0.135339798928E+04   -0.85377E-03   -0.18210E-02  2472   0.257E-01    0.218E-01
DAV:  11    -0.135339754595E+04    0.44333E-03   -0.48880E-03  2616   0.147E-01    0.141E-01
DAV:  12    -0.135339743990E+04    0.10606E-03   -0.51438E-03  2424   0.112E-01    0.577E-02
DAV:  13    -0.135339749745E+04   -0.57555E-04   -0.75254E-04  2544   0.628E-02    0.582E-02
DAV:  14    -0.135339746257E+04    0.34876E-04   -0.21699E-04  2608   0.292E-02    0.325E-02
DAV:  15    -0.135339745967E+04    0.29042E-05   -0.19573E-04  2488   0.230E-02    0.105E-02
DAV:  16    -0.135339746053E+04   -0.85657E-06   -0.34663E-05  2336   0.127E-02    0.515E-03
DAV:  17    -0.135339746116E+04   -0.63299E-06   -0.81535E-06  1864   0.641E-03
   3 F= -.13533975E+04 E0= -.13533975E+04  d E =-.668502E+01
 BRION: g(F)=  0.134E+02 g(S)=  0.000E+00 retain N=  2 mean eig= 1.50
 eig:   0.213  2.787
 bond charge predicted
       N       E                     dE             d eps       ncg     rms          rms(c)
DAV:   1    -0.135320296229E+04    0.19450E+00   -0.65428E+02  1440   0.327E+01    0.716E+00
DAV:   2    -0.135716869999E+04   -0.39657E+01   -0.46962E+01  2400   0.143E+01    0.379E+00
DAV:   3    -0.135711859279E+04    0.50107E-01   -0.33881E+00  2544   0.422E+00    0.323E+00
DAV:   4    -0.135695001933E+04    0.16857E+00   -0.11087E+00  2368   0.186E+00    0.159E+00
DAV:   5    -0.135693075591E+04    0.19263E-01   -0.48681E-01  2352   0.132E+00    0.142E+00
DAV:   6    -0.135690273452E+04    0.28021E-01   -0.29031E-01  2504   0.110E+00    0.733E-01
DAV:   7    -0.135690559143E+04   -0.28569E-02   -0.16486E-01  2496   0.675E-01    0.597E-01
DAV:   8    -0.135690254641E+04    0.30450E-02   -0.26797E-02  2544   0.328E-01    0.334E-01
DAV:   9    -0.135690132139E+04    0.12250E-02   -0.12365E-02  2400   0.197E-01    0.161E-01
DAV:  10    -0.135690188114E+04   -0.55976E-03   -0.96074E-03  2272   0.151E-01    0.147E-01
DAV:  11    -0.135690160021E+04    0.28093E-03   -0.10885E-03  2416   0.796E-02    0.950E-02
DAV:  12    -0.135690153508E+04    0.65126E-04   -0.18643E-03  2248   0.649E-02    0.350E-02
DAV:  13    -0.135690154249E+04   -0.74032E-05   -0.29595E-04  2504   0.380E-02    0.146E-02
DAV:  14    -0.135690154783E+04   -0.53418E-05   -0.44307E-05  2360   0.136E-02    0.946E-03
DAV:  15    -0.135690154889E+04   -0.10647E-05   -0.88804E-06  1608   0.654E-03    0.776E-03
DAV:  16    -0.135690154827E+04    0.62413E-06   -0.49849E-06  1360   0.524E-03
   4 F= -.13569015E+04 E0= -.13569015E+04  d E =-.350409E+01
 BRION: g(F)=  0.601E+01 g(S)=  0.000E+00 retain N=  3 mean eig= 2.18
 eig:   5.813  0.363  0.363
 bond charge predicted
       N       E                     dE             d eps       ncg     rms          rms(c)
DAV:   1    -0.135825198607E+04   -0.13504E+01   -0.22718E+02  1376   0.205E+01    0.348E+00
DAV:   2    -0.135941810966E+04   -0.11661E+01   -0.12574E+01  2288   0.752E+00    0.197E+00
DAV:   3    -0.135943175825E+04   -0.13649E-01   -0.86463E-01  2616   0.163E+00    0.158E+00
DAV:   4    -0.135938599619E+04    0.45762E-01   -0.27143E-01  2504   0.995E-01    0.708E-01
DAV:   5    -0.135938361308E+04    0.23831E-02   -0.84158E-02  2464   0.597E-01    0.537E-01
DAV:   6    -0.135938218419E+04    0.14289E-02   -0.60975E-02  2552   0.422E-01    0.255E-01
DAV:   7    -0.135938203001E+04    0.15417E-03   -0.14369E-02  2408   0.224E-01    0.195E-01
DAV:   8    -0.135938188155E+04    0.14846E-03   -0.48874E-03  2392   0.119E-01    0.910E-02
DAV:   9    -0.135938188114E+04    0.41150E-06   -0.17719E-03  2576   0.724E-02    0.589E-02
DAV:  10    -0.135938188935E+04   -0.82157E-05   -0.44263E-04  2352   0.426E-02    0.460E-02
DAV:  11    -0.135938187253E+04    0.16827E-04   -0.30419E-04  2416   0.309E-02    0.191E-02
DAV:  12    -0.135938187789E+04   -0.53596E-05   -0.12699E-04  2368   0.199E-02    0.166E-02
DAV:  13    -0.135938187635E+04    0.15375E-05   -0.24389E-05  2416   0.108E-02    0.108E-02
DAV:  14    -0.135938187584E+04    0.50633E-06   -0.20479E-05  1808   0.732E-03    0.380E-03
DAV:  15    -0.135938187591E+04   -0.64276E-07   -0.21174E-06  1048   0.513E-03
   5 F= -.13593819E+04 E0= -.13593819E+04  d E =-.248033E+01
 BRION: g(F)=  0.283E+01 g(S)=  0.000E+00 retain N=  4 mean eig= 1.78
 eig:   5.973  0.316  0.422  0.422
 bond charge predicted
       N       E                     dE             d eps       ncg     rms          rms(c)
DAV:   1    -0.136023185430E+04   -0.84998E+00   -0.16400E+02  1376   0.172E+01    0.259E+00
DAV:   2    -0.136100414131E+04   -0.77229E+00   -0.81894E+00  2264   0.629E+00    0.134E+00
DAV:   3    -0.136101856119E+04   -0.14420E-01   -0.53349E-01  2576   0.130E+00    0.109E+00
DAV:   4    -0.136099251758E+04    0.26044E-01   -0.13103E-01  2480   0.707E-01    0.518E-01
DAV:   5    -0.136099006366E+04    0.24539E-02   -0.47460E-02  2488   0.410E-01    0.342E-01
DAV:   6    -0.136098966223E+04    0.40143E-03   -0.27607E-02  2616   0.288E-01    0.151E-01
DAV:   7    -0.136098974262E+04   -0.80389E-04   -0.58305E-03  2320   0.150E-01    0.130E-01
DAV:   8    -0.136098969727E+04    0.45352E-04   -0.19996E-03  2336   0.746E-02    0.693E-02
DAV:   9    -0.136098968060E+04    0.16668E-04   -0.11423E-03  2520   0.570E-02    0.423E-02
DAV:  10    -0.136098968567E+04   -0.50681E-05   -0.32079E-04  2440   0.354E-02    0.375E-02
DAV:  11    -0.136098967402E+04    0.11647E-04   -0.19494E-04  2504   0.241E-02    0.142E-02
DAV:  12    -0.136098967610E+04   -0.20721E-05   -0.57981E-05  2304   0.136E-02    0.782E-03
DAV:  13    -0.136098967640E+04   -0.30363E-06   -0.10435E-05  1640   0.729E-03    0.500E-03
DAV:  14    -0.136098967686E+04   -0.46419E-06   -0.81360E-06  1592   0.557E-03
   6 F= -.13609897E+04 E0= -.13609897E+04  d E =-.160780E+01
 BRION: g(F)=  0.196E+01 g(S)=  0.000E+00 retain N=  5 mean eig= 1.85
 eig:   5.476  2.039  0.554  0.554  0.610
 bond charge predicted
       N       E                     dE             d eps       ncg     rms          rms(c)
DAV:   1    -0.136142921429E+04   -0.43954E+00   -0.26658E+02  1352   0.224E+01    0.300E+00
DAV:   2    -0.136276658587E+04   -0.13374E+01   -0.13950E+01  2288   0.834E+00    0.161E+00
DAV:   3    -0.136281197709E+04   -0.45391E-01   -0.95083E-01  2600   0.165E+00    0.135E+00
DAV:   4    -0.136278328005E+04    0.28697E-01   -0.14698E-01  2576   0.783E-01    0.793E-01
DAV:   5    -0.136276916911E+04    0.14111E-01   -0.69052E-02  2432   0.500E-01    0.335E-01
DAV:   6    -0.136277103421E+04   -0.18651E-02   -0.34384E-02  2536   0.344E-01    0.306E-01
DAV:   7    -0.136277004487E+04    0.98933E-03   -0.12210E-02  2464   0.212E-01    0.182E-01
DAV:   8    -0.136277006346E+04   -0.18589E-04   -0.64569E-03  2536   0.132E-01    0.854E-02
DAV:   9    -0.136277001896E+04    0.44501E-04   -0.89568E-04  2400   0.622E-02    0.647E-02
DAV:  10    -0.136277000801E+04    0.10949E-04   -0.48065E-04  2360   0.387E-02    0.355E-02
DAV:  11    -0.136277000606E+04    0.19518E-05   -0.17498E-04  2488   0.268E-02    0.158E-02
DAV:  12    -0.136277000942E+04   -0.33601E-05   -0.72309E-05  2392   0.168E-02    0.142E-02
DAV:  13    -0.136277000899E+04    0.43618E-06   -0.33393E-05  2144   0.108E-02    0.796E-03
DAV:  14    -0.136277000863E+04    0.35143E-06   -0.60488E-06  1400   0.610E-03
   7 F= -.13627700E+04 E0= -.13627700E+04  d E =-.178033E+01
 BRION: g(F)=  0.978E+00 g(S)=  0.000E+00 retain N=  6 mean eig= 1.78
 eig:   5.482  1.470  1.283  1.283  0.594  0.594
 bond charge predicted
       N       E                     dE             d eps       ncg     rms          rms(c)
DAV:   1    -0.136309371249E+04   -0.32370E+00   -0.11637E+02  1368   0.148E+01    0.203E+00
DAV:   2    -0.136366213634E+04   -0.56842E+00   -0.59825E+00  2288   0.555E+00    0.105E+00
DAV:   3    -0.136368594613E+04   -0.23810E-01   -0.44064E-01  2600   0.109E+00    0.823E-01
DAV:   4    -0.136367339649E+04    0.12550E-01   -0.65528E-02  2512   0.546E-01    0.430E-01
DAV:   5    -0.136367147291E+04    0.19236E-02   -0.25460E-02  2472   0.303E-01    0.204E-01
DAV:   6    -0.136367197093E+04   -0.49802E-03   -0.10332E-02  2608   0.182E-01    0.116E-01
DAV:   7    -0.136367192877E+04    0.42153E-04   -0.23218E-03  2296   0.103E-01    0.826E-02
DAV:   8    -0.136367195974E+04   -0.30971E-04   -0.10868E-03  2336   0.549E-02    0.435E-02
DAV:   9    -0.136367194877E+04    0.10978E-04   -0.21775E-04  2600   0.323E-02    0.284E-02
DAV:  10    -0.136367195434E+04   -0.55756E-05   -0.20203E-04  2584   0.244E-02    0.213E-02
DAV:  11    -0.136367195093E+04    0.34128E-05   -0.58858E-05  2352   0.155E-02    0.864E-03
DAV:  12    -0.136367195168E+04   -0.75468E-06   -0.17795E-05  2032   0.923E-03    0.541E-03
DAV:  13    -0.136367195149E+04    0.19035E-06   -0.21724E-06  1048   0.500E-03
   8 F= -.13636720E+04 E0= -.13636720E+04  d E =-.901943E+00
 BRION: g(F)=  0.498E+00 g(S)=  0.000E+00 retain N=  6 mean eig= 1.30
 eig:   2.978  2.978  0.551  0.551  0.378  0.378
 bond charge predicted
       N       E                     dE             d eps       ncg     rms          rms(c)
DAV:   1    -0.136392197231E+04   -0.25002E+00   -0.89946E+01  1384   0.134E+01    0.174E+00
DAV:   2    -0.136436540456E+04   -0.44343E+00   -0.46570E+00  2296   0.509E+00    0.848E-01
DAV:   3    -0.136438895922E+04   -0.23555E-01   -0.35719E-01  2600   0.977E-01    0.666E-01
DAV:   4    -0.136438120087E+04    0.77583E-02   -0.40454E-02  2536   0.467E-01    0.393E-01
DAV:   5    -0.136437856130E+04    0.26396E-02   -0.20669E-02  2384   0.291E-01    0.156E-01
DAV:   6    -0.136437925152E+04   -0.69022E-03   -0.84971E-03  2536   0.173E-01    0.133E-01
DAV:   7    -0.136437917797E+04    0.73557E-04   -0.24411E-03  2608   0.998E-02    0.873E-02
DAV:   8    -0.136437914035E+04    0.37622E-04   -0.10383E-03  2592   0.611E-02    0.447E-02
DAV:   9    -0.136437913624E+04    0.41034E-05   -0.19106E-04  2536   0.324E-02    0.296E-02
DAV:  10    -0.136437914180E+04   -0.55592E-05   -0.14930E-04  2560   0.226E-02    0.186E-02
DAV:  11    -0.136437913890E+04    0.28995E-05   -0.36951E-05  2392   0.136E-02    0.889E-03
DAV:  12    -0.136437914028E+04   -0.13763E-05   -0.19408E-05  2160   0.829E-03    0.735E-03
DAV:  13    -0.136437913948E+04    0.80292E-06   -0.18838E-06  1008   0.545E-03
   9 F= -.13643791E+04 E0= -.13643791E+04  d E =-.707188E+00
 BRION: g(F)=  0.455E+00 g(S)=  0.000E+00 retain N=  7 mean eig= 1.49
 eig:   3.119  3.119  1.310  1.310  0.475  0.475  0.613
 bond charge predicted
       N       E                     dE             d eps       ncg     rms          rms(c)
DAV:   1    -0.136461301173E+04   -0.23387E+00   -0.81962E+01  1384   0.129E+01    0.151E+00
DAV:   2    -0.136502348646E+04   -0.41047E+00   -0.43471E+00  2296   0.495E+00    0.765E-01
DAV:   3    -0.136504928660E+04   -0.25800E-01   -0.35173E-01  2592   0.981E-01    0.612E-01
DAV:   4    -0.136504485447E+04    0.44321E-02   -0.33172E-02  2584   0.434E-01    0.427E-01
DAV:   5    -0.136504109075E+04    0.37637E-02   -0.17850E-02  2368   0.264E-01    0.167E-01
DAV:   6    -0.136504156377E+04   -0.47302E-03   -0.95649E-03  2504   0.185E-01    0.139E-01
DAV:   7    -0.136504154295E+04    0.20822E-04   -0.42912E-03  2504   0.124E-01    0.925E-02
DAV:   8    -0.136504152266E+04    0.20293E-04   -0.14916E-03  2592   0.761E-02    0.513E-02
DAV:   9    -0.136504151151E+04    0.11148E-04   -0.28562E-04  2440   0.370E-02    0.374E-02
DAV:  10    -0.136504151442E+04   -0.29065E-05   -0.17392E-04  2464   0.239E-02    0.196E-02
DAV:  11    -0.136504151506E+04   -0.64120E-06   -0.57452E-05  2448   0.168E-02    0.100E-02
DAV:  12    -0.136504151615E+04   -0.10952E-05   -0.24717E-05  2376   0.108E-02    0.101E-02
DAV:  13    -0.136504151517E+04    0.98650E-06   -0.12002E-05  1736   0.673E-03    0.510E-03
DAV:  14    -0.136504151493E+04    0.23619E-06   -0.20268E-06  1008   0.508E-03
  10 F= -.13650415E+04 E0= -.13650415E+04  d E =-.662375E+00
 BRION: g(F)=  0.328E+00 g(S)=  0.000E+00 retain N=  8 mean eig= 2.15
 eig:   4.719  4.719  2.394  2.394  0.904  0.904  0.396  0.784
 bond charge predicted
       N       E                     dE             d eps       ncg     rms          rms(c)
DAV:   1    -0.136515618829E+04   -0.11467E+00   -0.11002E+02  1376   0.149E+01    0.182E+00
DAV:   2    -0.136571947144E+04   -0.56328E+00   -0.59621E+00  2296   0.580E+00    0.899E-01
DAV:   3    -0.136575406022E+04   -0.34589E-01   -0.48321E-01  2592   0.115E+00    0.723E-01
DAV:   4    -0.136574735225E+04    0.67080E-02   -0.48050E-02  2616   0.520E-01    0.494E-01
DAV:   5    -0.136574202504E+04    0.53272E-02   -0.23925E-02  2400   0.312E-01    0.195E-01
DAV:   6    -0.136574267487E+04   -0.64983E-03   -0.13031E-02  2480   0.217E-01    0.157E-01
DAV:   7    -0.136574264343E+04    0.31439E-04   -0.55820E-03  2504   0.143E-01    0.107E-01
DAV:   8    -0.136574263097E+04    0.12463E-04   -0.20152E-03  2584   0.881E-02    0.640E-02
DAV:   9    -0.136574260991E+04    0.21059E-04   -0.43153E-04  2528   0.436E-02    0.441E-02
DAV:  10    -0.136574261421E+04   -0.42994E-05   -0.21014E-04  2600   0.273E-02    0.240E-02
DAV:  11    -0.136574261580E+04   -0.15949E-05   -0.76992E-05  2488   0.190E-02    0.131E-02
DAV:  12    -0.136574261553E+04    0.27280E-06   -0.30736E-05  2368   0.128E-02    0.105E-02
DAV:  13    -0.136574261541E+04    0.12036E-06   -0.22172E-05  2048   0.820E-03    0.585E-03
DAV:  14    -0.136574261505E+04    0.35862E-06   -0.24441E-06  1072   0.516E-03
  11 F= -.13657426E+04 E0= -.13657426E+04  d E =-.701100E+00
 BRION: g(F)=  0.223E+00 g(S)=  0.000E+00 retain N=  9 mean eig= 2.39
 eig:   6.003  6.003  2.636  2.636  0.804  0.804  0.369  1.349  0.938
 bond charge predicted
       N       E                     dE             d eps       ncg     rms          rms(c)
DAV:   1    -0.136591320612E+04   -0.17059E+00   -0.50911E+01  1384   0.102E+01    0.117E+00
DAV:   2    -0.136617361065E+04   -0.26040E+00   -0.27517E+00  2288   0.395E+00    0.577E-01
DAV:   3    -0.136619047757E+04   -0.16867E-01   -0.22581E-01  2600   0.787E-01    0.470E-01
DAV:   4    -0.136618803510E+04    0.24425E-02   -0.19728E-02  2616   0.340E-01    0.350E-01
DAV:   5    -0.136618470600E+04    0.33291E-02   -0.10332E-02  2336   0.212E-01    0.144E-01
DAV:   6    -0.136618484762E+04   -0.14162E-03   -0.82143E-03  2328   0.172E-01    0.111E-01
DAV:   7    -0.136618489287E+04   -0.45249E-04   -0.35823E-03  2424   0.111E-01    0.851E-02
DAV:   8    -0.136618486621E+04    0.26665E-04   -0.10837E-03  2584   0.655E-02    0.462E-02
DAV:   9    -0.136618484773E+04    0.18480E-04   -0.31705E-04  2408   0.353E-02    0.284E-02
DAV:  10    -0.136618485458E+04   -0.68560E-05   -0.10487E-04  2408   0.199E-02    0.195E-02
DAV:  11    -0.136618485366E+04    0.92556E-06   -0.42634E-05  2464   0.140E-02    0.115E-02
DAV:  12    -0.136618485378E+04   -0.12021E-06   -0.21857E-05  2184   0.100E-02    0.104E-02
DAV:  13    -0.136618485284E+04    0.93703E-06   -0.13094E-05  1760   0.694E-03    0.520E-03
DAV:  14    -0.136618485260E+04    0.23482E-06   -0.29830E-06  1096   0.487E-03
  12 F= -.13661849E+04 E0= -.13661849E+04  d E =-.442238E+00
 BRION: g(F)=  0.191E+00 g(S)=  0.000E+00 retain N=  9 mean eig= 2.56
 eig:   6.508  6.508  1.800  1.800  1.339  1.339  1.407  1.407  0.924
 bond charge predicted
       N       E                     dE             d eps       ncg     rms          rms(c)
DAV:   1    -0.136632200980E+04   -0.13716E+00   -0.60076E+01  1376   0.111E+01    0.128E+00
DAV:   2    -0.136663200300E+04   -0.30999E+00   -0.32753E+00  2296   0.430E+00    0.630E-01
DAV:   3    -0.136665239256E+04   -0.20390E-01   -0.26644E-01  2576   0.864E-01    0.521E-01
DAV:   4    -0.136665009220E+04    0.23004E-02   -0.23865E-02  2600   0.372E-01    0.398E-01
DAV:   5    -0.136664617883E+04    0.39134E-02   -0.12189E-02  2336   0.231E-01    0.172E-01
DAV:   6    -0.136664634093E+04   -0.16210E-03   -0.10376E-02  2304   0.190E-01    0.126E-01
DAV:   7    -0.136664634529E+04   -0.43582E-05   -0.43202E-03  2480   0.123E-01    0.976E-02
DAV:   8    -0.136664630760E+04    0.37693E-04   -0.14658E-03  2544   0.764E-02    0.566E-02
DAV:   9    -0.136664628339E+04    0.24210E-04   -0.39984E-04  2440   0.390E-02    0.332E-02
DAV:  10    -0.136664629206E+04   -0.86792E-05   -0.13416E-04  2464   0.221E-02    0.210E-02
DAV:  11    -0.136664629373E+04   -0.16681E-05   -0.39288E-05  2440   0.138E-02    0.159E-02
DAV:  12    -0.136664629199E+04    0.17477E-05   -0.30371E-05  2232   0.114E-02    0.126E-02
DAV:  13    -0.136664629071E+04    0.12733E-05   -0.20179E-05  1968   0.836E-03    0.574E-03
DAV:  14    -0.136664629049E+04    0.22100E-06   -0.33269E-06  1144   0.513E-03
  13 F= -.13666463E+04 E0= -.13666463E+04  d E =-.461438E+00
 BRION: g(F)=  0.177E+00 g(S)=  0.000E+00 retain N= 10 mean eig= 2.94
 eig:   7.824  7.824  3.430  1.892  1.892  1.286  1.286  1.902  1.138  0.960
 bond charge predicted
       N       E                     dE             d eps       ncg     rms          rms(c)
DAV:   1    -0.136673550765E+04   -0.89217E-01   -0.69215E+01  1376   0.119E+01    0.134E+00
DAV:   2    -0.136709464159E+04   -0.35913E+00   -0.37759E+00  2288   0.463E+00    0.667E-01
DAV:   3    -0.136711789521E+04   -0.23254E-01   -0.30541E-01  2584   0.915E-01    0.547E-01
DAV:   4    -0.136711530785E+04    0.25874E-02   -0.26217E-02  2616   0.394E-01    0.426E-01
DAV:   5    -0.136711075901E+04    0.45488E-02   -0.11907E-02  2344   0.230E-01    0.209E-01
DAV:   6    -0.136711029032E+04    0.46869E-03   -0.12268E-02  2216   0.214E-01    0.120E-01
DAV:   7    -0.136711055508E+04   -0.26476E-03   -0.70697E-03  2440   0.149E-01    0.117E-01
DAV:   8    -0.136711050046E+04    0.54620E-04   -0.14791E-03  2576   0.840E-02    0.855E-02
DAV:   9    -0.136711040737E+04    0.93090E-04   -0.73241E-04  2448   0.494E-02    0.405E-02
DAV:  10    -0.136711042748E+04   -0.20116E-04   -0.34072E-04  2440   0.334E-02    0.251E-02
DAV:  11    -0.136711043441E+04   -0.69250E-05   -0.94207E-05  2208   0.197E-02    0.222E-02
DAV:  12    -0.136711042939E+04    0.50145E-05   -0.87986E-05  2232   0.194E-02    0.205E-02
DAV:  13    -0.136711042591E+04    0.34870E-05   -0.52856E-05  2296   0.140E-02    0.136E-02
DAV:  14    -0.136711042455E+04    0.13514E-05   -0.16725E-05  1920   0.795E-03    0.512E-03
DAV:  15    -0.136711042439E+04    0.16770E-06   -0.17741E-06   976   0.454E-03
  14 F= -.13671104E+04 E0= -.13671104E+04  d E =-.464134E+00
 BRION: g(F)=  0.151E+00 g(S)=  0.000E+00 retain N=  3 mean eig= 3.69
 eig:   4.500  4.500  2.061
 bond charge predicted
       N       E                     dE             d eps       ncg     rms          rms(c)
DAV:   1    -0.136716919341E+04   -0.58769E-01   -0.75324E+01  1368   0.124E+01    0.139E+00
DAV:   2    -0.136756087036E+04   -0.39168E+00   -0.41140E+00  2296   0.482E+00    0.699E-01
DAV:   3    -0.136758587890E+04   -0.25009E-01   -0.32885E-01  2576   0.947E-01    0.571E-01
DAV:   4    -0.136758304369E+04    0.28352E-02   -0.28767E-02  2600   0.408E-01    0.440E-01
DAV:   5    -0.136757819747E+04    0.48462E-02   -0.12887E-02  2360   0.240E-01    0.213E-01
DAV:   6    -0.136757782624E+04    0.37123E-03   -0.13165E-02  2216   0.219E-01    0.123E-01
DAV:   7    -0.136757806068E+04   -0.23444E-03   -0.70312E-03  2424   0.151E-01    0.119E-01
DAV:   8    -0.136757800386E+04    0.56820E-04   -0.16251E-03  2584   0.852E-02    0.865E-02
DAV:   9    -0.136757791174E+04    0.92125E-04   -0.75080E-04  2472   0.506E-02    0.416E-02
DAV:  10    -0.136757793082E+04   -0.19086E-04   -0.33702E-04  2472   0.331E-02    0.259E-02
DAV:  11    -0.136757793699E+04   -0.61631E-05   -0.84578E-05  2264   0.194E-02    0.222E-02
DAV:  12    -0.136757793238E+04    0.46105E-05   -0.83220E-05  2272   0.183E-02    0.203E-02
DAV:  13    -0.136757792861E+04    0.37704E-05   -0.50141E-05  2304   0.135E-02    0.124E-02
DAV:  14    -0.136757792771E+04    0.89593E-06   -0.13631E-05  1776   0.742E-03    0.528E-03
DAV:  15    -0.136757792738E+04    0.32574E-06   -0.21505E-06   976   0.469E-03
  15 F= -.13675779E+04 E0= -.13675779E+04  d E =-.467503E+00
 BRION: g(F)=  0.135E+00 g(S)=  0.000E+00 retain N=  4 mean eig= 5.20
 eig:   7.986  7.986  2.423  2.423
 bond charge predicted
       N       E                     dE             d eps       ncg     rms          rms(c)
DAV:   1    -0.136770053567E+04   -0.12261E+00   -0.17560E+01  1376   0.595E+00    0.661E-01
DAV:   2    -0.136778939155E+04   -0.88856E-01   -0.93144E-01  2288   0.229E+00    0.337E-01
DAV:   3    -0.136779505027E+04   -0.56587E-02   -0.75083E-02  2584   0.443E-01    0.274E-01
DAV:   4    -0.136779423872E+04    0.81155E-03   -0.64024E-03  2592   0.194E-01    0.203E-01
DAV:   5    -0.136779321810E+04    0.10206E-02   -0.32943E-03  2320   0.118E-01    0.866E-02
DAV:   6    -0.136779325016E+04   -0.32061E-04   -0.25436E-03  2288   0.960E-02    0.642E-02
DAV:   7    -0.136779326466E+04   -0.14504E-04   -0.12967E-03  2472   0.659E-02    0.511E-02
DAV:   8    -0.136779325128E+04    0.13379E-04   -0.38772E-04  2528   0.399E-02    0.301E-02
DAV:   9    -0.136779324381E+04    0.74736E-05   -0.11416E-04  2416   0.209E-02    0.184E-02
DAV:  10    -0.136779324544E+04   -0.16305E-05   -0.40450E-05  2432   0.119E-02    0.114E-02
DAV:  11    -0.136779324595E+04   -0.51245E-06   -0.14289E-05  1928   0.869E-03    0.838E-03
DAV:  12    -0.136779324517E+04    0.78864E-06   -0.82924E-06  1592   0.709E-03
  16 F= -.13677932E+04 E0= -.13677932E+04  d E =-.215318E+00
 BRION: g(F)=  0.130E+00 g(S)=  0.000E+00 retain N=  3 mean eig= 4.26
 eig:   5.800  5.800  1.176
 bond charge predicted
       N       E                     dE             d eps       ncg     rms          rms(c)
DAV:   1    -0.136780280943E+04   -0.95635E-02   -0.80385E+01  1376   0.128E+01    0.142E+00
DAV:   2    -0.136821949957E+04   -0.41669E+00   -0.43768E+00  2296   0.496E+00    0.724E-01
DAV:   3    -0.136824593949E+04   -0.26440E-01   -0.35104E-01  2576   0.976E-01    0.590E-01
DAV:   4    -0.136824270508E+04    0.32344E-02   -0.30967E-02  2600   0.424E-01    0.450E-01
DAV:   5    -0.136823771756E+04    0.49875E-02   -0.13535E-02  2376   0.244E-01    0.218E-01
DAV:   6    -0.136823725823E+04    0.45933E-03   -0.13296E-02  2224   0.220E-01    0.125E-01
DAV:   7    -0.136823751153E+04   -0.25330E-03   -0.73155E-03  2432   0.155E-01    0.122E-01
DAV:   8    -0.136823744870E+04    0.62837E-04   -0.17202E-03  2560   0.878E-02    0.893E-02
DAV:   9    -0.136823735357E+04    0.95128E-04   -0.80060E-04  2464   0.519E-02    0.425E-02
DAV:  10    -0.136823737234E+04   -0.18768E-04   -0.33674E-04  2456   0.332E-02    0.263E-02
DAV:  11    -0.136823737936E+04   -0.70263E-05   -0.82535E-05  2224   0.193E-02    0.227E-02
DAV:  12    -0.136823737362E+04    0.57403E-05   -0.83921E-05  2248   0.186E-02    0.198E-02
DAV:  13    -0.136823737059E+04    0.30351E-05   -0.49008E-05  2288   0.134E-02    0.127E-02
DAV:  14    -0.136823736952E+04    0.10633E-05   -0.14688E-05  1808   0.756E-03    0.510E-03
DAV:  15    -0.136823736927E+04    0.25750E-06   -0.17302E-06   944   0.463E-03
  17 F= -.13682374E+04 E0= -.13682374E+04  d E =-.444124E+00
 BRION: g(F)=  0.110E+00 g(S)=  0.000E+00 retain N=  2 mean eig= 2.80
 eig:   1.783  3.807
 bond charge predicted
       N       E                     dE             d eps       ncg     rms          rms(c)
DAV:   1    -0.136834887234E+04   -0.11150E+00   -0.15529E+01  1360   0.559E+00    0.626E-01
DAV:   2    -0.136842512730E+04   -0.76255E-01   -0.79671E-01  2296   0.209E+00    0.317E-01
DAV:   3    -0.136842960845E+04   -0.44811E-02   -0.62166E-02  2600   0.410E-01    0.249E-01
DAV:   4    -0.136842866072E+04    0.94773E-03   -0.54615E-03  2592   0.177E-01    0.174E-01
DAV:   5    -0.136842778766E+04    0.87306E-03   -0.28293E-03  2328   0.115E-01    0.659E-02
DAV:   6    -0.136842787263E+04   -0.84969E-04   -0.20366E-03  2384   0.839E-02    0.537E-02
DAV:   7    -0.136842787961E+04   -0.69819E-05   -0.62909E-04  2440   0.486E-02    0.412E-02
DAV:   8    -0.136842787122E+04    0.83854E-05   -0.23775E-04  2536   0.291E-02    0.215E-02
DAV:   9    -0.136842786669E+04    0.45360E-05   -0.60324E-05  2280   0.165E-02    0.136E-02
DAV:  10    -0.136842786733E+04   -0.64301E-06   -0.21933E-05  2208   0.986E-03    0.848E-03
DAV:  11    -0.136842786660E+04    0.72598E-06   -0.35822E-06  1152   0.630E-03
  18 F= -.13684279E+04 E0= -.13684279E+04  d E =-.190497E+00
 BRION: g(F)=  0.104E+00 g(S)=  0.000E+00 retain N=  3 mean eig= 2.93
 eig:   1.100  3.846  3.846
 bond charge predicted
       N       E                     dE             d eps       ncg     rms          rms(c)
DAV:   1    -0.136849979848E+04   -0.71931E-01   -0.43086E+01  1368   0.930E+00    0.101E+00
DAV:   2    -0.136871770105E+04   -0.21790E+00   -0.22832E+00  2288   0.355E+00    0.521E-01
DAV:   3    -0.136873143460E+04   -0.13734E-01   -0.18255E-01  2576   0.694E-01    0.420E-01
DAV:   4    -0.136872960850E+04    0.18261E-02   -0.15474E-02  2584   0.298E-01    0.316E-01
DAV:   5    -0.136872704059E+04    0.25679E-02   -0.71727E-03  2352   0.176E-01    0.145E-01
DAV:   6    -0.136872689352E+04    0.14707E-03   -0.61969E-03  2248   0.148E-01    0.875E-02
DAV:   7    -0.136872700568E+04   -0.11216E-03   -0.33548E-03  2440   0.104E-01    0.817E-02
DAV:   8    -0.136872696793E+04    0.37744E-04   -0.84714E-04  2552   0.613E-02    0.556E-02
DAV:   9    -0.136872693644E+04    0.31496E-04   -0.36678E-04  2488   0.349E-02    0.276E-02
DAV:  10    -0.136872694405E+04   -0.76153E-05   -0.11941E-04  2520   0.208E-02    0.181E-02
DAV:  11    -0.136872694552E+04   -0.14717E-05   -0.28881E-05  2216   0.118E-02    0.145E-02
DAV:  12    -0.136872694332E+04    0.22048E-05   -0.33827E-05  2160   0.118E-02    0.115E-02
DAV:  13    -0.136872694272E+04    0.59856E-06   -0.15664E-05  1912   0.783E-03    0.774E-03
DAV:  14    -0.136872694203E+04    0.68636E-06   -0.35876E-06  1184   0.504E-03
  19 F= -.13687269E+04 E0= -.13687269E+04  d E =-.299075E+00
 BRION: g(F)=  0.917E-01 g(S)=  0.000E+00 retain N=  2 mean eig= 3.52
 eig:   2.880  4.153
 bond charge predicted
       N       E                     dE             d eps       ncg     rms          rms(c)
DAV:   1    -0.136876616725E+04   -0.39225E-01   -0.53759E+01  1360   0.104E+01    0.112E+00
DAV:   2    -0.136903200688E+04   -0.26584E+00   -0.27779E+00  2288   0.390E+00    0.573E-01
DAV:   3    -0.136904795770E+04   -0.15951E-01   -0.21677E-01  2576   0.761E-01    0.455E-01
DAV:   4    -0.136904544823E+04    0.25095E-02   -0.18556E-02  2600   0.321E-01    0.337E-01
DAV:   5    -0.136904219685E+04    0.32514E-02   -0.84082E-03  2360   0.197E-01    0.152E-01
DAV:   6    -0.136904206136E+04    0.13550E-03   -0.75030E-03  2280   0.164E-01    0.915E-02
DAV:   7    -0.136904219651E+04   -0.13515E-03   -0.36442E-03  2440   0.110E-01    0.845E-02
DAV:   8    -0.136904215525E+04    0.41262E-04   -0.89369E-04  2552   0.629E-02    0.522E-02
DAV:   9    -0.136904212636E+04    0.28887E-04   -0.38012E-04  2472   0.364E-02    0.268E-02
DAV:  10    -0.136904213601E+04   -0.96537E-05   -0.13952E-04  2488   0.224E-02    0.191E-02
DAV:  11    -0.136904213426E+04    0.17574E-05   -0.38249E-05  2360   0.138E-02    0.113E-02
DAV:  12    -0.136904213416E+04    0.10154E-06   -0.28273E-05  2176   0.107E-02    0.103E-02
DAV:  13    -0.136904213329E+04    0.86191E-06   -0.12830E-05  1768   0.733E-03    0.604E-03
DAV:  14    -0.136904213297E+04    0.32234E-06   -0.39538E-06  1256   0.506E-03
  20 F= -.13690421E+04 E0= -.13690421E+04  d E =-.315191E+00
 BRION: g(F)=  0.805E-01 g(S)=  0.000E+00 retain N=  2 mean eig= 6.69
 eig:   6.688  6.688
