 running on  160 total cores
 distrk:  each k-point on  160 cores,    1 groups
 distr:  one band on   20 cores,    8 groups
 using from now: INCAR     
 vasp.5.4.4.18Apr17-6-g9f103f2a35 (build May 01 2020 14:22:42) gamma-only       
  
 POSCAR found type information on POSCAR  O  La Zr Li Al
 POSCAR found :  5 types and     190 ions
 scaLAPACK will be used
 LDA part: xc-table for Pade appr. of Perdew
 POSCAR, INCAR and KPOINTS ok, starting setup
 FFT: planning ...
 WAVECAR not read
 WARNING: random wavefunctions but no delay for mixing, default for NELMDL
 entering main loop
       N       E                     dE             d eps       ncg     rms          rms(c)
DAV:   1     0.252919173935E+05    0.25292E+05   -0.42118E+05  1568   0.253E+03
DAV:   2     0.942586054888E+04   -0.15866E+05   -0.14692E+05  1440   0.704E+02
DAV:   3     0.266119172868E+04   -0.67647E+04   -0.61605E+04  1504   0.356E+02
DAV:   4    -0.388374533100E+03   -0.30496E+04   -0.28482E+04  2072   0.226E+02
DAV:   5    -0.143067627501E+04   -0.10423E+04   -0.10073E+04  2528   0.139E+02    0.117E+02
DAV:   6    -0.130837827560E+04    0.12230E+03   -0.14065E+03  2424   0.651E+01    0.502E+01
DAV:   7    -0.133037691562E+04   -0.21999E+02   -0.36863E+02  2568   0.330E+01    0.243E+01
DAV:   8    -0.134112024235E+04   -0.10743E+02   -0.26572E+02  2536   0.264E+01    0.272E+01
DAV:   9    -0.133230978864E+04    0.88105E+01   -0.64337E+01  2456   0.154E+01    0.739E+00
DAV:  10    -0.133349351927E+04   -0.11837E+01   -0.14789E+01  2624   0.833E+00    0.758E+00
DAV:  11    -0.133368635453E+04   -0.19284E+00   -0.69958E+00  2624   0.454E+00    0.382E+00
DAV:  12    -0.133354920899E+04    0.13715E+00   -0.25493E+00  2576   0.351E+00    0.272E+00
DAV:  13    -0.133361410980E+04   -0.64901E-01   -0.80575E-01  2552   0.175E+00    0.180E+00
DAV:  14    -0.133360504752E+04    0.90623E-02   -0.26385E-01  2624   0.107E+00    0.129E+00
DAV:  15    -0.133361038260E+04   -0.53351E-02   -0.10387E-01  2544   0.639E-01    0.970E-01
DAV:  16    -0.133360978094E+04    0.60167E-03   -0.24682E-02  2624   0.314E-01    0.562E-01
DAV:  17    -0.133360637701E+04    0.34039E-02   -0.26364E-02  2368   0.295E-01    0.307E-01
DAV:  18    -0.133360674731E+04   -0.37030E-03   -0.63486E-03  2536   0.168E-01    0.127E-01
DAV:  19    -0.133360679624E+04   -0.48936E-04   -0.14151E-03  2584   0.770E-02    0.100E-01
DAV:  20    -0.133360682069E+04   -0.24448E-04   -0.45150E-04  2600   0.455E-02    0.313E-02
DAV:  21    -0.133360683546E+04   -0.14770E-04   -0.13344E-04  2624   0.222E-02    0.148E-02
DAV:  22    -0.133360684403E+04   -0.85705E-05   -0.45448E-05  2192   0.126E-02    0.134E-02
DAV:  23    -0.133360684894E+04   -0.49063E-05   -0.13725E-05  1112   0.748E-03    0.413E-03
DAV:  24    -0.133360684842E+04    0.52262E-06   -0.88048E-06  1248   0.690E-03
   1 F= -.13336068E+04 E0= -.13336068E+04  d E =-.133361E+04
 BRION: g(F)=  0.539E+02 g(S)=  0.000E+00
 bond charge predicted
       N       E                     dE             d eps       ncg     rms          rms(c)
DAV:   1    -0.130450965358E+04    0.29097E+02   -0.61244E+03  1688   0.113E+02    0.276E+01
DAV:   2    -0.135270254754E+04   -0.48193E+02   -0.55347E+02  2576   0.537E+01    0.136E+01
DAV:   3    -0.135073631161E+04    0.19662E+01   -0.32112E+01  2616   0.138E+01    0.895E+00
DAV:   4    -0.134885482976E+04    0.18815E+01   -0.11445E+01  2448   0.712E+00    0.433E+00
DAV:   5    -0.134870659295E+04    0.14824E+00   -0.36172E+00  2528   0.399E+00    0.294E+00
DAV:   6    -0.134863644586E+04    0.70147E-01   -0.22214E+00  2576   0.262E+00    0.176E+00
DAV:   7    -0.134860334962E+04    0.33096E-01   -0.39249E-01  2528   0.159E+00    0.109E+00
DAV:   8    -0.134860643259E+04   -0.30830E-02   -0.45344E-01  2504   0.107E+00    0.757E-01
DAV:   9    -0.134860236140E+04    0.40712E-02   -0.66584E-02  2536   0.580E-01    0.461E-01
DAV:  10    -0.134860128998E+04    0.10714E-02   -0.34969E-02  2608   0.314E-01    0.174E-01
DAV:  11    -0.134860195016E+04   -0.66018E-03   -0.87008E-03  2616   0.183E-01    0.129E-01
DAV:  12    -0.134860192642E+04    0.23741E-04   -0.17200E-03  2616   0.909E-02    0.843E-02
DAV:  13    -0.134860188313E+04    0.43290E-04   -0.12309E-03  2584   0.594E-02    0.199E-02
DAV:  14    -0.134860190440E+04   -0.21272E-04   -0.20770E-04  2616   0.299E-02    0.125E-02
DAV:  15    -0.134860190904E+04   -0.46406E-05   -0.52568E-05  2520   0.146E-02    0.677E-03
DAV:  16    -0.134860191043E+04   -0.13893E-05   -0.16454E-05  1864   0.848E-03    0.544E-03
DAV:  17    -0.134860191142E+04   -0.98908E-06   -0.12071E-05  1896   0.698E-03    0.602E-03
DAV:  18    -0.134860191094E+04    0.47663E-06   -0.16931E-06  1056   0.468E-03
   2 F= -.13486019E+04 E0= -.13486019E+04  d E =-.149951E+02
 BRION: g(F)=  0.540E+02 g(S)=  0.000E+00 retain N=  1 mean eig= 0.50
 eig:   0.500
 bond charge predicted
       N       E                     dE             d eps       ncg     rms          rms(c)
DAV:   1    -0.133620373934E+04    0.12398E+02   -0.24575E+03  1376   0.649E+01    0.171E+01
DAV:   2    -0.136039337200E+04   -0.24190E+02   -0.30348E+02  2504   0.306E+01    0.153E+01
DAV:   3    -0.135873251706E+04    0.16609E+01   -0.22370E+01  2552   0.109E+01    0.118E+01
DAV:   4    -0.135718602779E+04    0.15465E+01   -0.19925E+01  2184   0.536E+00    0.586E+00
DAV:   5    -0.135749052388E+04   -0.30450E+00   -0.46417E+00  2472   0.381E+00    0.653E+00
DAV:   6    -0.135671952495E+04    0.77100E+00   -0.45577E+00  2464   0.356E+00    0.172E+00
DAV:   7    -0.135678342508E+04   -0.63900E-01   -0.13940E+00  2456   0.208E+00    0.113E+00
DAV:   8    -0.135677924146E+04    0.41836E-02   -0.20881E-01  2624   0.860E-01    0.728E-01
DAV:   9    -0.135677421283E+04    0.50286E-02   -0.78432E-02  2488   0.479E-01    0.334E-01
DAV:  10    -0.135677524078E+04   -0.10279E-02   -0.20226E-02  2408   0.262E-01    0.180E-01
DAV:  11    -0.135677478823E+04    0.45255E-03   -0.44169E-03  2624   0.154E-01    0.115E-01
DAV:  12    -0.135677490902E+04   -0.12079E-03   -0.45874E-03  2400   0.107E-01    0.837E-02
DAV:  13    -0.135677485185E+04    0.57173E-04   -0.99141E-04  2608   0.627E-02    0.435E-02
DAV:  14    -0.135677484997E+04    0.18773E-05   -0.37549E-04  2552   0.353E-02    0.202E-02
DAV:  15    -0.135677485194E+04   -0.19652E-05   -0.84845E-05  2584   0.186E-02    0.990E-03
DAV:  16    -0.135677485367E+04   -0.17359E-05   -0.28003E-05  2472   0.101E-02    0.489E-03
DAV:  17    -0.135677485421E+04   -0.53461E-06   -0.29248E-06  1128   0.547E-03
   3 F= -.13567749E+04 E0= -.13567749E+04  d E =-.817294E+01
 BRION: g(F)=  0.588E+01 g(S)=  0.000E+00 retain N=  2 mean eig= 1.83
 eig:   0.356  3.308
 bond charge predicted
       N       E                     dE             d eps       ncg     rms          rms(c)
DAV:   1    -0.135783928968E+04   -0.10644E+01   -0.36053E+02  1376   0.268E+01    0.486E+00
DAV:   2    -0.135969336901E+04   -0.18541E+01   -0.20495E+01  2272   0.104E+01    0.238E+00
DAV:   3    -0.135975377675E+04   -0.60408E-01   -0.15652E+00  2608   0.238E+00    0.200E+00
DAV:   4    -0.135970368135E+04    0.50095E-01   -0.31863E-01  2568   0.124E+00    0.110E+00
DAV:   5    -0.135969579282E+04    0.78885E-02   -0.15732E-01  2336   0.774E-01    0.638E-01
DAV:   6    -0.135969502248E+04    0.77034E-03   -0.73312E-02  2520   0.530E-01    0.443E-01
DAV:   7    -0.135969435886E+04    0.66362E-03   -0.31599E-02  2520   0.328E-01    0.260E-01
DAV:   8    -0.135969402451E+04    0.33434E-03   -0.66847E-03  2624   0.167E-01    0.145E-01
DAV:   9    -0.135969401180E+04    0.12716E-04   -0.22147E-03  2624   0.945E-02    0.833E-02
DAV:  10    -0.135969406682E+04   -0.55023E-04   -0.93042E-04  2296   0.589E-02    0.686E-02
DAV:  11    -0.135969402005E+04    0.46766E-04   -0.44940E-04  2608   0.401E-02    0.299E-02
DAV:  12    -0.135969402552E+04   -0.54728E-05   -0.20624E-04  2536   0.258E-02    0.220E-02
DAV:  13    -0.135969402232E+04    0.32038E-05   -0.50989E-05  2496   0.154E-02    0.118E-02
DAV:  14    -0.135969402319E+04   -0.86884E-06   -0.31915E-05  2416   0.937E-03    0.640E-03
DAV:  15    -0.135969402291E+04    0.28459E-06   -0.19723E-06  1096   0.541E-03
   4 F= -.13596940E+04 E0= -.13596940E+04  d E =-.291917E+01
 BRION: g(F)=  0.256E+01 g(S)=  0.000E+00 retain N=  3 mean eig= 1.60
 eig:   3.969  0.265  0.563
 bond charge predicted
       N       E                     dE             d eps       ncg     rms          rms(c)
DAV:   1    -0.136045885402E+04   -0.76483E+00   -0.15420E+02  1384   0.170E+01    0.256E+00
DAV:   2    -0.136118534658E+04   -0.72649E+00   -0.78171E+00  2296   0.631E+00    0.131E+00
DAV:   3    -0.136120415575E+04   -0.18809E-01   -0.55945E-01  2608   0.131E+00    0.108E+00
DAV:   4    -0.136118193077E+04    0.22225E-01   -0.10778E-01  2584   0.689E-01    0.562E-01
DAV:   5    -0.136117679546E+04    0.51353E-02   -0.44128E-02  2400   0.411E-01    0.311E-01
DAV:   6    -0.136117696830E+04   -0.17284E-03   -0.25824E-02  2520   0.306E-01    0.189E-01
DAV:   7    -0.136117692751E+04    0.40788E-04   -0.93295E-03  2256   0.175E-01    0.142E-01
DAV:   8    -0.136117694099E+04   -0.13477E-04   -0.27888E-03  2360   0.915E-02    0.810E-02
DAV:   9    -0.136117687179E+04    0.69194E-04   -0.88335E-04  2624   0.566E-02    0.482E-02
DAV:  10    -0.136117690175E+04   -0.29955E-04   -0.59847E-04  2544   0.439E-02    0.502E-02
DAV:  11    -0.136117687219E+04    0.29555E-04   -0.24590E-04  2496   0.304E-02    0.178E-02
DAV:  12    -0.136117687712E+04   -0.49284E-05   -0.93340E-05  2384   0.182E-02    0.112E-02
DAV:  13    -0.136117687730E+04   -0.17502E-06   -0.17106E-05  1984   0.902E-03    0.671E-03
DAV:  14    -0.136117687745E+04   -0.15266E-06   -0.90636E-06  1624   0.639E-03
   5 F= -.13611769E+04 E0= -.13611769E+04  d E =-.148285E+01
 BRION: g(F)=  0.145E+01 g(S)=  0.000E+00 retain N=  4 mean eig= 1.32
 eig:   2.513  1.564  0.594  0.594
 bond charge predicted
       N       E                     dE             d eps       ncg     rms          rms(c)
DAV:   1    -0.136141084526E+04   -0.23397E+00   -0.28950E+02  1352   0.235E+01    0.313E+00
DAV:   2    -0.136277582085E+04   -0.13650E+01   -0.14234E+01  2304   0.863E+00    0.160E+00
DAV:   3    -0.136282339417E+04   -0.47573E-01   -0.95426E-01  2616   0.168E+00    0.125E+00
DAV:   4    -0.136279241189E+04    0.30982E-01   -0.14846E-01  2528   0.829E-01    0.670E-01
DAV:   5    -0.136278607494E+04    0.63370E-02   -0.59525E-02  2504   0.477E-01    0.322E-01
DAV:   6    -0.136278694753E+04   -0.87259E-03   -0.23454E-02  2608   0.281E-01    0.176E-01
DAV:   7    -0.136278684891E+04    0.98623E-04   -0.56340E-03  2376   0.160E-01    0.117E-01
DAV:   8    -0.136278696485E+04   -0.11594E-03   -0.27906E-03  2416   0.875E-02    0.705E-02
DAV:   9    -0.136278691665E+04    0.48200E-04   -0.52213E-04  2608   0.517E-02    0.436E-02
DAV:  10    -0.136278693033E+04   -0.13681E-04   -0.50706E-04  2584   0.387E-02    0.295E-02
DAV:  11    -0.136278692436E+04    0.59757E-05   -0.12284E-04  2528   0.243E-02    0.125E-02
DAV:  12    -0.136278692752E+04   -0.31696E-05   -0.50218E-05  2408   0.134E-02    0.848E-03
DAV:  13    -0.136278692744E+04    0.86948E-07   -0.85318E-06  1696   0.716E-03
   6 F= -.13627869E+04 E0= -.13627869E+04  d E =-.161005E+01
 BRION: g(F)=  0.710E+00 g(S)=  0.000E+00 retain N=  5 mean eig= 1.60
 eig:   3.300  1.920  1.920  0.163  0.705
 bond charge predicted
       N       E                     dE             d eps       ncg     rms          rms(c)
DAV:   1    -0.136313870401E+04   -0.35178E+00   -0.92633E+01  1360   0.137E+01    0.184E+00
DAV:   2    -0.136357703260E+04   -0.43833E+00   -0.46408E+00  2312   0.519E+00    0.895E-01
DAV:   3    -0.136359919615E+04   -0.22164E-01   -0.34967E-01  2616   0.101E+00    0.710E-01
DAV:   4    -0.136359161940E+04    0.75767E-02   -0.41947E-02  2592   0.477E-01    0.421E-01
DAV:   5    -0.136358943609E+04    0.21833E-02   -0.23160E-02  2368   0.298E-01    0.187E-01
DAV:   6    -0.136358994204E+04   -0.50594E-03   -0.92726E-03  2600   0.190E-01    0.152E-01
DAV:   7    -0.136358985193E+04    0.90106E-04   -0.38892E-03  2560   0.117E-01    0.947E-02
DAV:   8    -0.136358981348E+04    0.38446E-04   -0.10789E-03  2592   0.668E-02    0.531E-02
DAV:   9    -0.136358980253E+04    0.10954E-04   -0.24946E-04  2584   0.341E-02    0.333E-02
DAV:  10    -0.136358981503E+04   -0.12502E-04   -0.20303E-04  2384   0.246E-02    0.244E-02
DAV:  11    -0.136358980845E+04    0.65811E-05   -0.43054E-05  2456   0.158E-02    0.119E-02
DAV:  12    -0.136358981014E+04   -0.16906E-05   -0.42153E-05  2216   0.106E-02    0.970E-03
DAV:  13    -0.136358980873E+04    0.14103E-05   -0.38188E-06  1200   0.662E-03    0.605E-03
DAV:  14    -0.136358980964E+04   -0.90747E-06   -0.19653E-05  1656   0.768E-03    0.468E-03
DAV:  15    -0.136358980935E+04    0.28688E-06   -0.14655E-06  1000   0.502E-03
   7 F= -.13635898E+04 E0= -.13635898E+04  d E =-.802882E+00
 BRION: g(F)=  0.483E+00 g(S)=  0.000E+00 retain N=  6 mean eig= 1.85
 eig:   3.378  2.954  2.954  0.055  0.867  0.867
 bond charge predicted
       N       E                     dE             d eps       ncg     rms          rms(c)
DAV:   1    -0.136386824316E+04   -0.27843E+00   -0.93662E+01  1360   0.138E+01    0.163E+00
DAV:   2    -0.136431885297E+04   -0.45061E+00   -0.47310E+00  2288   0.528E+00    0.845E-01
DAV:   3    -0.136434273778E+04   -0.23885E-01   -0.35556E-01  2608   0.101E+00    0.680E-01
DAV:   4    -0.136433629361E+04    0.64442E-02   -0.36726E-02  2592   0.443E-01    0.450E-01
DAV:   5    -0.136433207894E+04    0.42147E-02   -0.21210E-02  2256   0.291E-01    0.171E-01
DAV:   6    -0.136433287030E+04   -0.79136E-03   -0.11049E-02  2536   0.196E-01    0.166E-01
DAV:   7    -0.136433270206E+04    0.16824E-03   -0.40936E-03  2520   0.122E-01    0.103E-01
DAV:   8    -0.136433265504E+04    0.47026E-04   -0.16740E-03  2568   0.774E-02    0.511E-02
DAV:   9    -0.136433264870E+04    0.63420E-05   -0.25873E-04  2520   0.364E-02    0.383E-02
DAV:  10    -0.136433265454E+04   -0.58439E-05   -0.19652E-04  2336   0.252E-02    0.211E-02
DAV:  11    -0.136433265202E+04    0.25170E-05   -0.49904E-05  2464   0.172E-02    0.102E-02
DAV:  12    -0.136433265518E+04   -0.31598E-05   -0.43578E-05  2320   0.111E-02    0.116E-02
DAV:  13    -0.136433265318E+04    0.20052E-05   -0.99866E-06  1688   0.713E-03    0.508E-03
DAV:  14    -0.136433265309E+04    0.88126E-07   -0.28763E-06  1080   0.542E-03
   8 F= -.13643327E+04 E0= -.13643327E+04  d E =-.742844E+00
 BRION: g(F)=  0.371E+00 g(S)=  0.000E+00 retain N=  7 mean eig= 2.41
 eig:   5.021  5.021  3.417  1.157  1.157  0.150  0.948
 bond charge predicted
       N       E                     dE             d eps       ncg     rms          rms(c)
DAV:   1    -0.136451435802E+04   -0.18170E+00   -0.10377E+02  1376   0.144E+01    0.171E+00
DAV:   2    -0.136502330162E+04   -0.50894E+00   -0.53426E+00  2304   0.566E+00    0.888E-01
DAV:   3    -0.136504921279E+04   -0.25911E-01   -0.39711E-01  2616   0.105E+00    0.699E-01
DAV:   4    -0.136504094895E+04    0.82638E-02   -0.42977E-02  2576   0.482E-01    0.437E-01
DAV:   5    -0.136503690028E+04    0.40487E-02   -0.21014E-02  2344   0.298E-01    0.170E-01
DAV:   6    -0.136503757920E+04   -0.67892E-03   -0.10280E-02  2536   0.191E-01    0.138E-01
DAV:   7    -0.136503752534E+04    0.53855E-04   -0.33701E-03  2544   0.116E-01    0.928E-02
DAV:   8    -0.136503752461E+04    0.73531E-06   -0.15486E-03  2576   0.729E-02    0.524E-02
DAV:   9    -0.136503750630E+04    0.18304E-04   -0.28059E-04  2536   0.373E-02    0.380E-02
DAV:  10    -0.136503750903E+04   -0.27292E-05   -0.22818E-04  2520   0.278E-02    0.212E-02
DAV:  11    -0.136503750738E+04    0.16504E-05   -0.68013E-05  2432   0.187E-02    0.914E-03
DAV:  12    -0.136503750986E+04   -0.24771E-05   -0.30099E-05  2328   0.111E-02    0.104E-02
DAV:  13    -0.136503750844E+04    0.14223E-05   -0.97904E-06  1648   0.697E-03    0.447E-03
DAV:  14    -0.136503750849E+04   -0.51296E-07   -0.47252E-06  1304   0.586E-03
   9 F= -.13650375E+04 E0= -.13650375E+04  d E =-.704855E+00
 BRION: g(F)=  0.289E+00 g(S)=  0.000E+00 retain N=  8 mean eig= 3.09
 eig:   7.405  7.405  4.475  1.777  1.777  0.041  0.909  0.909
 bond charge predicted
       N       E                     dE             d eps       ncg     rms          rms(c)
DAV:   1    -0.136523952582E+04   -0.20202E+00   -0.65915E+01  1384   0.115E+01    0.135E+00
DAV:   2    -0.136556808246E+04   -0.32856E+00   -0.34725E+00  2312   0.463E+00    0.709E-01
DAV:   3    -0.136558511715E+04   -0.17035E-01   -0.26179E-01  2608   0.845E-01    0.565E-01
DAV:   4    -0.136558002763E+04    0.50895E-02   -0.27898E-02  2592   0.387E-01    0.362E-01
DAV:   5    -0.136557710503E+04    0.29226E-02   -0.13947E-02  2288   0.236E-01    0.140E-01
DAV:   6    -0.136557755684E+04   -0.45181E-03   -0.70093E-03  2488   0.156E-01    0.119E-01
DAV:   7    -0.136557748717E+04    0.69674E-04   -0.26495E-03  2480   0.995E-02    0.790E-02
DAV:   8    -0.136557748595E+04    0.12239E-05   -0.12295E-03  2576   0.648E-02    0.459E-02
DAV:   9    -0.136557747372E+04    0.12222E-04   -0.21072E-04  2456   0.320E-02    0.346E-02
DAV:  10    -0.136557747355E+04    0.17125E-06   -0.15596E-04  2496   0.223E-02    0.180E-02
DAV:  11    -0.136557747331E+04    0.24003E-06   -0.49029E-05  2352   0.158E-02    0.866E-03
DAV:  12    -0.136557747432E+04   -0.10058E-05   -0.19361E-05  2240   0.973E-03    0.866E-03
DAV:  13    -0.136557747356E+04    0.76230E-06   -0.85311E-06  1600   0.623E-03
  10 F= -.13655775E+04 E0= -.13655775E+04  d E =-.539965E+00
 BRION: g(F)=  0.197E+00 g(S)=  0.000E+00 retain N=  7 mean eig= 3.28
 eig:   6.739  6.739  3.002  3.002  1.219  1.219  1.053
 bond charge predicted
       N       E                     dE             d eps       ncg     rms          rms(c)
DAV:   1    -0.136573395743E+04   -0.15648E+00   -0.57154E+01  1376   0.107E+01    0.129E+00
DAV:   2    -0.136602942297E+04   -0.29547E+00   -0.31260E+00  2304   0.435E+00    0.659E-01
DAV:   3    -0.136604538974E+04   -0.15967E-01   -0.24087E-01  2600   0.803E-01    0.526E-01
DAV:   4    -0.136604092660E+04    0.44631E-02   -0.25843E-02  2584   0.375E-01    0.341E-01
DAV:   5    -0.136603827508E+04    0.26515E-02   -0.11938E-02  2352   0.222E-01    0.136E-01
DAV:   6    -0.136603863706E+04   -0.36199E-03   -0.66447E-03  2456   0.154E-01    0.108E-01
DAV:   7    -0.136603859392E+04    0.43144E-04   -0.27954E-03  2440   0.101E-01    0.779E-02
DAV:   8    -0.136603860157E+04   -0.76537E-05   -0.12831E-03  2584   0.644E-02    0.474E-02
DAV:   9    -0.136603858623E+04    0.15347E-04   -0.23923E-04  2472   0.332E-02    0.353E-02
DAV:  10    -0.136603858447E+04    0.17526E-05   -0.16773E-04  2536   0.229E-02    0.205E-02
DAV:  11    -0.136603858428E+04    0.19246E-06   -0.61145E-05  2368   0.165E-02    0.111E-02
DAV:  12    -0.136603858417E+04    0.11038E-06   -0.22443E-05  2248   0.111E-02    0.941E-03
DAV:  13    -0.136603858365E+04    0.52367E-06   -0.15408E-05  1816   0.732E-03    0.473E-03
DAV:  14    -0.136603858347E+04    0.17890E-06   -0.25290E-06  1040   0.522E-03
  11 F= -.13660386E+04 E0= -.13660386E+04  d E =-.461110E+00
 BRION: g(F)=  0.158E+00 g(S)=  0.000E+00 retain N=  7 mean eig= 3.62
 eig:   7.602  7.602  3.195  3.195  1.045  1.362  1.362
 bond charge predicted
       N       E                     dE             d eps       ncg     rms          rms(c)
DAV:   1    -0.136616937039E+04   -0.13079E+00   -0.34440E+01  1376   0.843E+00    0.981E-01
DAV:   2    -0.136634909437E+04   -0.17972E+00   -0.19084E+00  2304   0.343E+00    0.507E-01
DAV:   3    -0.136635958591E+04   -0.10492E-01   -0.15171E-01  2600   0.651E-01    0.416E-01
DAV:   4    -0.136635742482E+04    0.21611E-02   -0.14605E-02  2600   0.289E-01    0.296E-01
DAV:   5    -0.136635526181E+04    0.21630E-02   -0.76841E-03  2264   0.171E-01    0.121E-01
DAV:   6    -0.136635541258E+04   -0.15077E-03   -0.52363E-03  2352   0.135E-01    0.969E-02
DAV:   7    -0.136635539931E+04    0.13269E-04   -0.25676E-03  2384   0.905E-02    0.716E-02
DAV:   8    -0.136635538548E+04    0.13831E-04   -0.94827E-04  2576   0.591E-02    0.431E-02
DAV:   9    -0.136635537491E+04    0.10568E-04   -0.21482E-04  2512   0.304E-02    0.296E-02
DAV:  10    -0.136635537598E+04   -0.10721E-05   -0.88476E-05  2544   0.171E-02    0.175E-02
DAV:  11    -0.136635537703E+04   -0.10500E-05   -0.36062E-05  2376   0.128E-02    0.120E-02
DAV:  12    -0.136635537595E+04    0.10871E-05   -0.19249E-05  2192   0.995E-03    0.977E-03
DAV:  13    -0.136635537527E+04    0.67946E-06   -0.13304E-05  1792   0.700E-03    0.514E-03
DAV:  14    -0.136635537505E+04    0.21790E-06   -0.31542E-06  1176   0.481E-03
  12 F= -.13663554E+04 E0= -.13663554E+04  d E =-.316792E+00
 BRION: g(F)=  0.133E+00 g(S)=  0.000E+00 retain N=  4 mean eig= 4.73
 eig:   7.824  7.824  1.637  1.637
 bond charge predicted
       N       E                     dE             d eps       ncg     rms          rms(c)
DAV:   1    -0.136644068091E+04   -0.85306E-01   -0.48659E+01  1376   0.997E+00    0.115E+00
DAV:   2    -0.136669277150E+04   -0.25209E+00   -0.26624E+00  2304   0.399E+00    0.583E-01
DAV:   3    -0.136670753079E+04   -0.14759E-01   -0.20784E-01  2584   0.756E-01    0.473E-01
DAV:   4    -0.136670475670E+04    0.27741E-02   -0.19934E-02  2584   0.336E-01    0.338E-01
DAV:   5    -0.136670188131E+04    0.28754E-02   -0.96228E-03  2296   0.196E-01    0.137E-01
DAV:   6    -0.136670206773E+04   -0.18642E-03   -0.68267E-03  2368   0.154E-01    0.993E-02
DAV:   7    -0.136670209674E+04   -0.29010E-04   -0.31117E-03  2416   0.100E-01    0.775E-02
DAV:   8    -0.136670208060E+04    0.16140E-04   -0.99954E-04  2600   0.614E-02    0.466E-02
DAV:   9    -0.136670206621E+04    0.14390E-04   -0.26069E-04  2496   0.329E-02    0.309E-02
DAV:  10    -0.136670206950E+04   -0.32989E-05   -0.11297E-04  2544   0.199E-02    0.189E-02
DAV:  11    -0.136670207044E+04   -0.93158E-06   -0.41601E-05  2408   0.140E-02    0.121E-02
DAV:  12    -0.136670206963E+04    0.80891E-06   -0.22614E-05  2232   0.104E-02    0.983E-03
DAV:  13    -0.136670206895E+04    0.67279E-06   -0.14655E-05  1816   0.723E-03    0.490E-03
DAV:  14    -0.136670206890E+04    0.53857E-07   -0.49739E-06  1392   0.528E-03
  13 F= -.13667021E+04 E0= -.13667021E+04  d E =-.346694E+00
 BRION: g(F)=  0.113E+00 g(S)=  0.000E+00 retain N=  4 mean eig= 4.25
 eig:   6.543  6.543  1.955  1.955
 bond charge predicted
       N       E                     dE             d eps       ncg     rms          rms(c)
DAV:   1    -0.136681206519E+04   -0.11000E+00   -0.22924E+01  1368   0.687E+00    0.798E-01
DAV:   2    -0.136693271933E+04   -0.12065E+00   -0.12746E+00  2304   0.275E+00    0.408E-01
DAV:   3    -0.136693989282E+04   -0.71735E-02   -0.10111E-01  2592   0.528E-01    0.327E-01
DAV:   4    -0.136693841313E+04    0.14797E-02   -0.97727E-03  2592   0.236E-01    0.227E-01
DAV:   5    -0.136693716600E+04    0.12471E-02   -0.47047E-03  2336   0.136E-01    0.880E-02
DAV:   6    -0.136693727910E+04   -0.11310E-03   -0.29098E-03  2424   0.998E-02    0.653E-02
DAV:   7    -0.136693728894E+04   -0.98388E-05   -0.12278E-03  2416   0.641E-02    0.482E-02
DAV:   8    -0.136693728364E+04    0.52940E-05   -0.41423E-04  2560   0.397E-02    0.280E-02
DAV:   9    -0.136693727967E+04    0.39754E-05   -0.10234E-04  2464   0.212E-02    0.200E-02
DAV:  10    -0.136693728036E+04   -0.69571E-06   -0.47409E-05  2504   0.130E-02    0.123E-02
DAV:  11    -0.136693728033E+04    0.31723E-07   -0.20881E-05  2192   0.970E-03    0.666E-03
DAV:  12    -0.136693728020E+04    0.12791E-06   -0.79009E-06  1752   0.703E-03
  14 F= -.13669373E+04 E0= -.13669373E+04  d E =-.235211E+00
 BRION: g(F)=  0.104E+00 g(S)=  0.000E+00 retain N=  3 mean eig= 3.73
 eig:   4.803  4.803  1.589
 bond charge predicted
       N       E                     dE             d eps       ncg     rms          rms(c)
DAV:   1    -0.136703406526E+04   -0.96785E-01   -0.21304E+01  1376   0.662E+00    0.750E-01
DAV:   2    -0.136714487541E+04   -0.11081E+00   -0.11699E+00  2296   0.263E+00    0.381E-01
DAV:   3    -0.136715165523E+04   -0.67798E-02   -0.93030E-02  2584   0.504E-01    0.308E-01
DAV:   4    -0.136715056140E+04    0.10938E-02   -0.86215E-03  2608   0.223E-01    0.225E-01
DAV:   5    -0.136714931975E+04    0.12416E-02   -0.40322E-03  2320   0.128E-01    0.947E-02
DAV:   6    -0.136714935956E+04   -0.39811E-04   -0.29346E-03  2352   0.101E-01    0.634E-02
DAV:   7    -0.136714938283E+04   -0.23272E-04   -0.14060E-03  2440   0.678E-02    0.505E-02
DAV:   8    -0.136714937677E+04    0.60604E-05   -0.42235E-04  2536   0.410E-02    0.325E-02
DAV:   9    -0.136714936918E+04    0.75939E-05   -0.12042E-04  2488   0.220E-02    0.204E-02
DAV:  10    -0.136714937061E+04   -0.14289E-05   -0.48100E-05  2552   0.132E-02    0.119E-02
DAV:  11    -0.136714937142E+04   -0.81403E-06   -0.14659E-05  1992   0.878E-03    0.821E-03
DAV:  12    -0.136714937076E+04    0.66223E-06   -0.10170E-05  1696   0.726E-03    0.632E-03
DAV:  13    -0.136714937059E+04    0.16854E-06   -0.69696E-06  1608   0.587E-03
  15 F= -.13671494E+04 E0= -.13671494E+04  d E =-.212090E+00
 BRION: g(F)=  0.935E-01 g(S)=  0.000E+00 retain N=  3 mean eig= 4.70
 eig:   6.288  6.288  1.535
 bond charge predicted
       N       E                     dE             d eps       ncg     rms          rms(c)
DAV:   1    -0.136724377764E+04   -0.94407E-01   -0.11540E+01  1368   0.484E+00    0.548E-01
DAV:   2    -0.136730306302E+04   -0.59285E-01   -0.62379E-01  2304   0.190E+00    0.274E-01
DAV:   3    -0.136730660497E+04   -0.35419E-02   -0.48990E-02  2576   0.364E-01    0.218E-01
DAV:   4    -0.136730595397E+04    0.65099E-03   -0.44535E-03  2576   0.160E-01    0.158E-01
DAV:   5    -0.136730524802E+04    0.70596E-03   -0.22186E-03  2312   0.977E-02    0.616E-02
DAV:   6    -0.136730529226E+04   -0.44245E-04   -0.16424E-03  2384   0.746E-02    0.450E-02
DAV:   7    -0.136730530481E+04   -0.12550E-04   -0.59978E-04  2416   0.451E-02    0.354E-02
DAV:   8    -0.136730530192E+04    0.28924E-05   -0.18990E-04  2568   0.264E-02    0.197E-02
DAV:   9    -0.136730529774E+04    0.41786E-05   -0.56314E-05  2280   0.153E-02    0.123E-02
DAV:  10    -0.136730529892E+04   -0.11805E-05   -0.22202E-05  2232   0.937E-03    0.822E-03
DAV:  11    -0.136730529810E+04    0.81622E-06   -0.32170E-06  1136   0.613E-03
  16 F= -.13673053E+04 E0= -.13673053E+04  d E =-.155928E+00
 BRION: g(F)=  0.888E-01 g(S)=  0.000E+00 retain N=  3 mean eig= 3.57
 eig:   4.660  4.660  1.381
 bond charge predicted
       N       E                     dE             d eps       ncg     rms          rms(c)
DAV:   1    -0.136740207323E+04   -0.96774E-01   -0.14821E+01  1368   0.550E+00    0.621E-01
DAV:   2    -0.136747866313E+04   -0.76590E-01   -0.80748E-01  2304   0.216E+00    0.312E-01
DAV:   3    -0.136748350277E+04   -0.48396E-02   -0.65055E-02  2576   0.419E-01    0.252E-01
DAV:   4    -0.136748279015E+04    0.71262E-03   -0.58592E-03  2608   0.183E-01    0.186E-01
DAV:   5    -0.136748189584E+04    0.89431E-03   -0.29127E-03  2320   0.109E-01    0.749E-02
DAV:   6    -0.136748194385E+04   -0.48015E-04   -0.20493E-03  2368   0.821E-02    0.542E-02
DAV:   7    -0.136748195164E+04   -0.77901E-05   -0.87250E-04  2448   0.548E-02    0.403E-02
DAV:   8    -0.136748194782E+04    0.38258E-05   -0.27764E-04  2528   0.332E-02    0.251E-02
DAV:   9    -0.136748194337E+04    0.44477E-05   -0.71499E-05  2400   0.172E-02    0.162E-02
DAV:  10    -0.136748194426E+04   -0.89341E-06   -0.31347E-05  2432   0.104E-02    0.858E-03
DAV:  11    -0.136748194445E+04   -0.19044E-06   -0.48874E-06  1272   0.689E-03
  17 F= -.13674819E+04 E0= -.13674819E+04  d E =-.176646E+00
 BRION: g(F)=  0.847E-01 g(S)=  0.000E+00 retain N=  3 mean eig= 4.06
 eig:   5.349  5.349  1.494
 bond charge predicted
       N       E                     dE             d eps       ncg     rms          rms(c)
DAV:   1    -0.136757898039E+04   -0.97036E-01   -0.17935E+01  1368   0.602E+00    0.672E-01
DAV:   2    -0.136767048534E+04   -0.91505E-01   -0.96185E-01  2312   0.235E+00    0.337E-01
DAV:   3    -0.136767589384E+04   -0.54085E-02   -0.74439E-02  2576   0.455E-01    0.267E-01
DAV:   4    -0.136767495510E+04    0.93875E-03   -0.67960E-03  2600   0.195E-01    0.194E-01
DAV:   5    -0.136767387965E+04    0.10755E-02   -0.31980E-03  2328   0.121E-01    0.778E-02
DAV:   6    -0.136767392960E+04   -0.49951E-04   -0.24979E-03  2376   0.923E-02    0.534E-02
DAV:   7    -0.136767395224E+04   -0.22642E-04   -0.90688E-04  2440   0.564E-02    0.434E-02
DAV:   8    -0.136767394820E+04    0.40359E-05   -0.28079E-04  2600   0.323E-02    0.243E-02
DAV:   9    -0.136767394244E+04    0.57599E-05   -0.86562E-05  2376   0.187E-02    0.148E-02
DAV:  10    -0.136767394459E+04   -0.21422E-05   -0.34198E-05  2416   0.115E-02    0.102E-02
DAV:  11    -0.136767394340E+04    0.11865E-05   -0.65166E-06  1352   0.746E-03    0.528E-03
DAV:  12    -0.136767394421E+04   -0.80893E-06   -0.13981E-05  1632   0.726E-03    0.517E-03
DAV:  13    -0.136767394406E+04    0.14689E-06   -0.11710E-06   952   0.408E-03
  18 F= -.13676739E+04 E0= -.13676739E+04  d E =-.192000E+00
 BRION: g(F)=  0.812E-01 g(S)=  0.000E+00 retain N=  3 mean eig= 4.65
 eig:   6.182  6.182  1.600
 bond charge predicted
       N       E                     dE             d eps       ncg     rms          rms(c)
DAV:   1    -0.136776184764E+04   -0.87903E-01   -0.88593E+00  1384   0.425E+00    0.479E-01
DAV:   2    -0.136780717189E+04   -0.45324E-01   -0.47867E-01  2312   0.168E+00    0.242E-01
DAV:   3    -0.136780992666E+04   -0.27548E-02   -0.37862E-02  2576   0.326E-01    0.192E-01
DAV:   4    -0.136780943366E+04    0.49300E-03   -0.34466E-03  2584   0.141E-01    0.138E-01
DAV:   5    -0.136780892918E+04    0.50448E-03   -0.18596E-03  2304   0.873E-02    0.525E-02
DAV:   6    -0.136780897736E+04   -0.48179E-04   -0.11624E-03  2408   0.625E-02    0.430E-02
DAV:   7    -0.136780897846E+04   -0.11029E-05   -0.42996E-04  2456   0.393E-02    0.303E-02
DAV:   8    -0.136780897585E+04    0.26117E-05   -0.15764E-04  2528   0.243E-02    0.168E-02
DAV:   9    -0.136780897443E+04    0.14146E-05   -0.33670E-05  2320   0.125E-02    0.116E-02
DAV:  10    -0.136780897465E+04   -0.21100E-06   -0.14580E-05  1888   0.778E-03    0.591E-03
DAV:  11    -0.136780897445E+04    0.19856E-06   -0.18798E-06  1024   0.577E-03
  19 F= -.13678090E+04 E0= -.13678090E+04  d E =-.135030E+00
 BRION: g(F)=  0.789E-01 g(S)=  0.000E+00 retain N=  3 mean eig= 3.76
 eig:   4.852  4.852  1.582
 bond charge predicted
       N       E                     dE             d eps       ncg     rms          rms(c)
DAV:   1    -0.136790140090E+04   -0.92426E-01   -0.11340E+01  1384   0.480E+00    0.531E-01
DAV:   2    -0.136795936248E+04   -0.57962E-01   -0.60995E-01  2320   0.188E+00    0.268E-01
DAV:   3    -0.136796268710E+04   -0.33246E-02   -0.46152E-02  2576   0.366E-01    0.212E-01
DAV:   4    -0.136796207351E+04    0.61360E-03   -0.43320E-03  2608   0.155E-01    0.152E-01
DAV:   5    -0.136796144028E+04    0.63323E-03   -0.20918E-03  2328   0.970E-02    0.594E-02
DAV:   6    -0.136796148806E+04   -0.47782E-04   -0.14776E-03  2368   0.707E-02    0.441E-02
DAV:   7    -0.136796149625E+04   -0.81911E-05   -0.52783E-04  2456   0.437E-02    0.341E-02
DAV:   8    -0.136796149363E+04    0.26177E-05   -0.18572E-04  2552   0.259E-02    0.189E-02
DAV:   9    -0.136796149096E+04    0.26709E-05   -0.48536E-05  2320   0.144E-02    0.123E-02
DAV:  10    -0.136796149189E+04   -0.92438E-06   -0.20471E-05  2176   0.900E-03    0.762E-03
DAV:  11    -0.136796149119E+04    0.70009E-06   -0.21917E-06  1032   0.609E-03
  20 F= -.13679615E+04 E0= -.13679615E+04  d E =-.152517E+00
 BRION: g(F)=  0.761E-01 g(S)=  0.000E+00 retain N=  3 mean eig= 4.39
 eig:   5.796  5.796  1.580
