 running on  160 total cores
 distrk:  each k-point on  160 cores,    1 groups
 distr:  one band on   20 cores,    8 groups
 using from now: INCAR     
 vasp.5.4.4.18Apr17-6-g9f103f2a35 (build May 01 2020 14:22:42) gamma-only       
  
 POSCAR found type information on POSCAR  O  La Zr Li Al
 POSCAR found :  5 types and     190 ions
 scaLAPACK will be used
 LDA part: xc-table for Pade appr. of Perdew
 POSCAR, INCAR and KPOINTS ok, starting setup
 FFT: planning ...
 WAVECAR not read
 WARNING: random wavefunctions but no delay for mixing, default for NELMDL
 entering main loop
       N       E                     dE             d eps       ncg     rms          rms(c)
DAV:   1     0.252827632570E+05    0.25283E+05   -0.42218E+05  1584   0.253E+03
DAV:   2     0.938611933032E+04   -0.15897E+05   -0.14698E+05  1432   0.705E+02
DAV:   3     0.268958406887E+04   -0.66965E+04   -0.60947E+04  1480   0.355E+02
DAV:   4    -0.386032267351E+03   -0.30756E+04   -0.28633E+04  2064   0.222E+02
DAV:   5    -0.141857545406E+04   -0.10325E+04   -0.99915E+03  2536   0.144E+02    0.117E+02
DAV:   6    -0.129527236159E+04    0.12330E+03   -0.13924E+03  2448   0.657E+01    0.502E+01
DAV:   7    -0.131857413039E+04   -0.23302E+02   -0.38775E+02  2568   0.339E+01    0.249E+01
DAV:   8    -0.132545443231E+04   -0.68803E+01   -0.23133E+02  2544   0.260E+01    0.240E+01
DAV:   9    -0.132075324994E+04    0.47012E+01   -0.41540E+01  2544   0.137E+01    0.846E+00
DAV:  10    -0.132121628826E+04   -0.46304E+00   -0.18240E+01  2616   0.741E+00    0.668E+00
DAV:  11    -0.132163515248E+04   -0.41886E+00   -0.45949E+00  2624   0.401E+00    0.455E+00
DAV:  12    -0.132151892282E+04    0.11623E+00   -0.18365E+00  2576   0.302E+00    0.355E+00
DAV:  13    -0.132152743116E+04   -0.85083E-02   -0.10793E+00  2520   0.190E+00    0.222E+00
DAV:  14    -0.132151601907E+04    0.11412E-01   -0.25216E-01  2528   0.105E+00    0.139E+00
DAV:  15    -0.132151780191E+04   -0.17828E-02   -0.87415E-02  2592   0.586E-01    0.951E-01
DAV:  16    -0.132151868758E+04   -0.88567E-03   -0.24965E-02  2624   0.298E-01    0.704E-01
DAV:  17    -0.132151917728E+04   -0.48970E-03   -0.14082E-02  2448   0.251E-01    0.459E-01
DAV:  18    -0.132151914106E+04    0.36215E-04   -0.49516E-03  2488   0.133E-01    0.213E-01
DAV:  19    -0.132151896806E+04    0.17300E-03   -0.27197E-03  2584   0.107E-01    0.154E-01
DAV:  20    -0.132151897550E+04   -0.74379E-05   -0.90881E-04  2512   0.515E-02    0.698E-02
DAV:  21    -0.132151899729E+04   -0.21790E-04   -0.27669E-04  2624   0.322E-02    0.710E-02
DAV:  22    -0.132151900670E+04   -0.94148E-05   -0.98757E-05  2576   0.170E-02    0.287E-02
DAV:  23    -0.132151901029E+04   -0.35878E-05   -0.32965E-05  1776   0.108E-02    0.220E-02
DAV:  24    -0.132151901353E+04   -0.32449E-05   -0.14399E-05  1392   0.706E-03    0.861E-03
DAV:  25    -0.132151901312E+04    0.41664E-06   -0.67805E-06  1184   0.609E-03
   1 F= -.13215190E+04 E0= -.13215104E+04  d E =-.132152E+04
 BRION: g(F)=  0.689E+02 g(S)=  0.000E+00
 bond charge predicted
       N       E                     dE             d eps       ncg     rms          rms(c)
DAV:   1    -0.127243050528E+04    0.49089E+02   -0.86258E+03  1696   0.140E+02    0.351E+01
DAV:   2    -0.134607231817E+04   -0.73642E+02   -0.85636E+02  2584   0.645E+01    0.174E+01
DAV:   3    -0.134406387110E+04    0.20084E+01   -0.51783E+01  2624   0.179E+01    0.115E+01
DAV:   4    -0.134189967239E+04    0.21642E+01   -0.21150E+01  2360   0.910E+00    0.528E+00
DAV:   5    -0.134180727276E+04    0.92400E-01   -0.57690E+00  2560   0.510E+00    0.391E+00
DAV:   6    -0.134171122655E+04    0.96046E-01   -0.40555E+00  2568   0.338E+00    0.235E+00
DAV:   7    -0.134168633917E+04    0.24887E-01   -0.56380E-01  2536   0.192E+00    0.131E+00
DAV:   8    -0.134168756140E+04   -0.12222E-02   -0.51360E-01  2544   0.116E+00    0.821E-01
DAV:   9    -0.134169168517E+04   -0.41238E-02   -0.94925E-02  2560   0.600E-01    0.676E-01
DAV:  10    -0.134168538085E+04    0.63043E-02   -0.38755E-02  2624   0.383E-01    0.279E-01
DAV:  11    -0.134168667114E+04   -0.12903E-02   -0.22712E-02  2552   0.267E-01    0.167E-01
DAV:  12    -0.134168681432E+04   -0.14318E-03   -0.31235E-03  2608   0.123E-01    0.103E-01
DAV:  13    -0.134168673345E+04    0.80876E-04   -0.18741E-03  2600   0.775E-02    0.308E-02
DAV:  14    -0.134168677152E+04   -0.38070E-04   -0.39606E-04  2512   0.432E-02    0.184E-02
DAV:  15    -0.134168678085E+04   -0.93324E-05   -0.12077E-04  2576   0.200E-02    0.102E-02
DAV:  16    -0.134168678280E+04   -0.19493E-05   -0.33735E-05  2320   0.123E-02    0.697E-03
DAV:  17    -0.134168678423E+04   -0.14343E-05   -0.16113E-05  2040   0.776E-03    0.520E-03
DAV:  18    -0.134168678429E+04   -0.53842E-07   -0.29858E-06  1144   0.476E-03
   2 F= -.13416868E+04 E0= -.13416868E+04  d E =-.201678E+02
 BRION: g(F)=  0.669E+02 g(S)=  0.000E+00 retain N=  1 mean eig= 0.51
 eig:   0.505
 bond charge predicted
       N       E                     dE             d eps       ncg     rms          rms(c)
DAV:   1    -0.131725037083E+04    0.24436E+02   -0.36308E+03  1368   0.800E+01    0.199E+01
DAV:   2    -0.135262306881E+04   -0.35373E+02   -0.41469E+02  2504   0.382E+01    0.218E+01
DAV:   3    -0.135316379681E+04   -0.54073E+00   -0.27438E+01  2576   0.118E+01    0.177E+01
DAV:   4    -0.135196367974E+04    0.12001E+01   -0.18435E+01  2288   0.647E+00    0.102E+01
DAV:   5    -0.135223555624E+04   -0.27188E+00   -0.56729E+00  2392   0.439E+00    0.760E+00
DAV:   6    -0.135131460209E+04    0.92095E+00   -0.77036E+00  2312   0.472E+00    0.203E+00
DAV:   7    -0.135140164882E+04   -0.87047E-01   -0.16442E+00  2320   0.259E+00    0.119E+00
DAV:   8    -0.135141046002E+04   -0.88112E-02   -0.34400E-01  2496   0.936E-01    0.649E-01
DAV:   9    -0.135141228149E+04   -0.18215E-02   -0.76869E-02  2624   0.535E-01    0.472E-01
DAV:  10    -0.135141328573E+04   -0.10042E-02   -0.24314E-02  2424   0.296E-01    0.160E-01
DAV:  11    -0.135141382366E+04   -0.53793E-03   -0.10515E-02  2600   0.186E-01    0.144E-01
DAV:  12    -0.135141385266E+04   -0.28999E-04   -0.30644E-03  2616   0.956E-02    0.880E-02
DAV:  13    -0.135141385033E+04    0.23285E-05   -0.14648E-03  2584   0.590E-02    0.331E-02
DAV:  14    -0.135141387187E+04   -0.21543E-04   -0.34263E-04  2608   0.337E-02    0.167E-02
DAV:  15    -0.135141388210E+04   -0.10223E-04   -0.14279E-04  2616   0.201E-02    0.131E-02
DAV:  16    -0.135141388539E+04   -0.32950E-05   -0.46040E-05  2440   0.106E-02    0.830E-03
DAV:  17    -0.135141388636E+04   -0.97178E-06   -0.14398E-05  1440   0.664E-03    0.492E-03
DAV:  18    -0.135141388739E+04   -0.10302E-05   -0.11080E-05  1472   0.608E-03    0.321E-03
DAV:  19    -0.135141388801E+04   -0.61828E-06   -0.30252E-06  1080   0.479E-03
   3 F= -.13514139E+04 E0= -.13514139E+04  d E =-.972710E+01
 BRION: g(F)=  0.839E+01 g(S)=  0.000E+00 retain N=  2 mean eig= 1.92
 eig:   0.369  3.464
 bond charge predicted
       N       E                     dE             d eps       ncg     rms          rms(c)
DAV:   1    -0.135246026519E+04   -0.10464E+01   -0.53609E+02  1416   0.326E+01    0.632E+00
DAV:   2    -0.135528872740E+04   -0.28285E+01   -0.32502E+01  2288   0.130E+01    0.286E+00
DAV:   3    -0.135542269134E+04   -0.13396E+00   -0.29202E+00  2600   0.329E+00    0.245E+00
DAV:   4    -0.135535174630E+04    0.70945E-01   -0.56108E-01  2608   0.160E+00    0.142E+00
DAV:   5    -0.135532792760E+04    0.23819E-01   -0.26602E-01  2296   0.100E+00    0.788E-01
DAV:   6    -0.135532760168E+04    0.32592E-03   -0.11892E-01  2560   0.713E-01    0.642E-01
DAV:   7    -0.135532577676E+04    0.18249E-02   -0.82331E-02  2432   0.497E-01    0.358E-01
DAV:   8    -0.135532564715E+04    0.12962E-03   -0.17205E-02  2568   0.264E-01    0.191E-01
DAV:   9    -0.135532563638E+04    0.10765E-04   -0.44445E-03  2624   0.132E-01    0.119E-01
DAV:  10    -0.135532578979E+04   -0.15341E-03   -0.20775E-03  2440   0.847E-02    0.110E-01
DAV:  11    -0.135532563450E+04    0.15529E-03   -0.15780E-03  2448   0.750E-02    0.377E-02
DAV:  12    -0.135532566771E+04   -0.33212E-04   -0.58983E-04  2456   0.484E-02    0.350E-02
DAV:  13    -0.135532566050E+04    0.72158E-05   -0.12299E-04  2600   0.225E-02    0.192E-02
DAV:  14    -0.135532566107E+04   -0.57854E-06   -0.60906E-05  2520   0.133E-02    0.714E-03
DAV:  15    -0.135532566242E+04   -0.13463E-05   -0.79782E-06  1680   0.695E-03    0.498E-03
DAV:  16    -0.135532566241E+04    0.14334E-07   -0.15415E-06  1040   0.445E-03
   4 F= -.13553257E+04 E0= -.13553257E+04  d E =-.391177E+01
 BRION: g(F)=  0.297E+01 g(S)=  0.000E+00 retain N=  3 mean eig= 1.73
 eig:   4.420  0.234  0.539
 bond charge predicted
       N       E                     dE             d eps       ncg     rms          rms(c)
DAV:   1    -0.135623666079E+04   -0.91100E+00   -0.20433E+02  1368   0.204E+01    0.349E+00
DAV:   2    -0.135719633482E+04   -0.95967E+00   -0.10524E+01  2272   0.739E+00    0.165E+00
DAV:   3    -0.135722635800E+04   -0.30023E-01   -0.86066E-01  2600   0.173E+00    0.138E+00
DAV:   4    -0.135719451310E+04    0.31845E-01   -0.19552E-01  2504   0.929E-01    0.708E-01
DAV:   5    -0.135718782931E+04    0.66838E-02   -0.74431E-02  2392   0.600E-01    0.456E-01
DAV:   6    -0.135718748782E+04    0.34149E-03   -0.46669E-02  2552   0.426E-01    0.307E-01
DAV:   7    -0.135718711379E+04    0.37403E-03   -0.18381E-02  2472   0.244E-01    0.211E-01
DAV:   8    -0.135718696562E+04    0.14816E-03   -0.51139E-03  2544   0.131E-01    0.110E-01
DAV:   9    -0.135718686980E+04    0.95824E-04   -0.15168E-03  2584   0.779E-02    0.669E-02
DAV:  10    -0.135718693974E+04   -0.69943E-04   -0.11102E-03  2256   0.575E-02    0.725E-02
DAV:  11    -0.135718686983E+04    0.69911E-04   -0.48208E-04  2528   0.427E-02    0.290E-02
DAV:  12    -0.135718687618E+04   -0.63460E-05   -0.25294E-04  2464   0.282E-02    0.214E-02
DAV:  13    -0.135718687502E+04    0.11582E-05   -0.62704E-05  2440   0.160E-02    0.123E-02
DAV:  14    -0.135718687461E+04    0.40766E-06   -0.15470E-05  1912   0.769E-03    0.575E-03
DAV:  15    -0.135718687455E+04    0.60201E-07   -0.35232E-06  1184   0.537E-03
   5 F= -.13571869E+04 E0= -.13571869E+04  d E =-.186121E+01
 BRION: g(F)=  0.163E+01 g(S)=  0.000E+00 retain N=  4 mean eig= 1.49
 eig:   2.830  1.855  0.639  0.639
 bond charge predicted
       N       E                     dE             d eps       ncg     rms          rms(c)
DAV:   1    -0.135774566419E+04   -0.55879E+00   -0.20581E+02  1384   0.203E+01    0.329E+00
DAV:   2    -0.135873822456E+04   -0.99256E+00   -0.10457E+01  2280   0.735E+00    0.152E+00
DAV:   3    -0.135877863869E+04   -0.40414E-01   -0.79061E-01  2624   0.155E+00    0.118E+00
DAV:   4    -0.135875474556E+04    0.23893E-01   -0.13873E-01  2480   0.802E-01    0.552E-01
DAV:   5    -0.135875406616E+04    0.67940E-03   -0.48847E-02  2464   0.449E-01    0.310E-01
DAV:   6    -0.135875457360E+04   -0.50744E-03   -0.22499E-02  2576   0.271E-01    0.166E-01
DAV:   7    -0.135875446482E+04    0.10878E-03   -0.36433E-03  2536   0.139E-01    0.115E-01
DAV:   8    -0.135875449252E+04   -0.27700E-04   -0.17918E-03  2568   0.755E-02    0.518E-02
DAV:   9    -0.135875447823E+04    0.14287E-04   -0.43192E-04  2616   0.474E-02    0.286E-02
DAV:  10    -0.135875449798E+04   -0.19742E-04   -0.23520E-04  2552   0.274E-02    0.248E-02
DAV:  11    -0.135875449198E+04    0.59923E-05   -0.65523E-05  2576   0.176E-02    0.113E-02
DAV:  12    -0.135875449392E+04   -0.19399E-05   -0.38826E-05  2400   0.110E-02    0.897E-03
DAV:  13    -0.135875449316E+04    0.76306E-06   -0.42679E-06  1232   0.685E-03
   6 F= -.13587545E+04 E0= -.13587545E+04  d E =-.156762E+01
 BRION: g(F)=  0.853E+00 g(S)=  0.000E+00 retain N=  5 mean eig= 1.32
 eig:   2.785  1.549  1.549  0.619  0.085
 bond charge predicted
       N       E                     dE             d eps       ncg     rms          rms(c)
DAV:   1    -0.135926048799E+04   -0.50599E+00   -0.10864E+02  1384   0.150E+01    0.203E+00
DAV:   2    -0.135980526860E+04   -0.54478E+00   -0.57577E+00  2296   0.568E+00    0.972E-01
DAV:   3    -0.135983653702E+04   -0.31268E-01   -0.46226E-01  2592   0.114E+00    0.791E-01
DAV:   4    -0.135982752685E+04    0.90102E-02   -0.55992E-02  2600   0.548E-01    0.486E-01
DAV:   5    -0.135982361822E+04    0.39086E-02   -0.28388E-02  2360   0.339E-01    0.201E-01
DAV:   6    -0.135982446795E+04   -0.84973E-03   -0.13245E-02  2584   0.224E-01    0.177E-01
DAV:   7    -0.135982429208E+04    0.17587E-03   -0.50364E-03  2528   0.137E-01    0.111E-01
DAV:   8    -0.135982426552E+04    0.26563E-04   -0.19920E-03  2600   0.846E-02    0.585E-02
DAV:   9    -0.135982425513E+04    0.10393E-04   -0.30061E-04  2592   0.404E-02    0.424E-02
DAV:  10    -0.135982426324E+04   -0.81099E-05   -0.30251E-04  2304   0.306E-02    0.271E-02
DAV:  11    -0.135982425920E+04    0.40408E-05   -0.82869E-05  2456   0.216E-02    0.123E-02
DAV:  12    -0.135982426325E+04   -0.40553E-05   -0.61270E-05  2344   0.132E-02    0.134E-02
DAV:  13    -0.135982426068E+04    0.25753E-05   -0.15358E-05  1928   0.849E-03    0.574E-03
DAV:  14    -0.135982426067E+04    0.54279E-08   -0.38771E-06  1216   0.558E-03
   7 F= -.13598243E+04 E0= -.13598243E+04  d E =-.106977E+01
 BRION: g(F)=  0.605E+00 g(S)=  0.000E+00 retain N=  6 mean eig= 2.06
 eig:   3.501  3.557  3.557  0.087  0.822  0.822
 bond charge predicted
       N       E                     dE             d eps       ncg     rms          rms(c)
DAV:   1    -0.136025756053E+04   -0.43330E+00   -0.94323E+01  1384   0.140E+01    0.189E+00
DAV:   2    -0.136074544913E+04   -0.48789E+00   -0.52184E+00  2272   0.546E+00    0.966E-01
DAV:   3    -0.136077643267E+04   -0.30984E-01   -0.43552E-01  2600   0.113E+00    0.801E-01
DAV:   4    -0.136076919124E+04    0.72414E-02   -0.50326E-02  2608   0.526E-01    0.515E-01
DAV:   5    -0.136076565487E+04    0.35364E-02   -0.32059E-02  2296   0.351E-01    0.216E-01
DAV:   6    -0.136076656881E+04   -0.91394E-03   -0.13778E-02  2568   0.230E-01    0.208E-01
DAV:   7    -0.136076627349E+04    0.29532E-03   -0.63546E-03  2592   0.147E-01    0.118E-01
DAV:   8    -0.136076617351E+04    0.99977E-04   -0.16797E-03  2576   0.834E-02    0.593E-02
DAV:   9    -0.136076617149E+04    0.20189E-05   -0.30294E-04  2624   0.386E-02    0.388E-02
DAV:  10    -0.136076618719E+04   -0.15691E-04   -0.20317E-04  2336   0.258E-02    0.236E-02
DAV:  11    -0.136076618096E+04    0.62248E-05   -0.49343E-05  2512   0.177E-02    0.114E-02
DAV:  12    -0.136076618400E+04   -0.30372E-05   -0.49887E-05  2416   0.115E-02    0.122E-02
DAV:  13    -0.136076618187E+04    0.21332E-05   -0.12849E-05  1944   0.774E-03    0.531E-03
DAV:  14    -0.136076618187E+04   -0.52387E-08   -0.46742E-06  1424   0.520E-03
   8 F= -.13607662E+04 E0= -.13607662E+04  d E =-.941921E+00
 BRION: g(F)=  0.429E+00 g(S)=  0.000E+00 retain N=  7 mean eig= 2.48
 eig:   5.205  5.205  3.739  0.410  0.959  0.959  0.868
 bond charge predicted
       N       E                     dE             d eps       ncg     rms          rms(c)
DAV:   1    -0.136115627310E+04   -0.39009E+00   -0.92898E+01  1400   0.138E+01    0.170E+00
DAV:   2    -0.136164384610E+04   -0.48757E+00   -0.51739E+00  2288   0.549E+00    0.832E-01
DAV:   3    -0.136167338681E+04   -0.29541E-01   -0.41806E-01  2600   0.107E+00    0.690E-01
DAV:   4    -0.136166701228E+04    0.63745E-02   -0.40517E-02  2608   0.488E-01    0.476E-01
DAV:   5    -0.136166188765E+04    0.51246E-02   -0.23314E-02  2296   0.300E-01    0.182E-01
DAV:   6    -0.136166271077E+04   -0.82312E-03   -0.12801E-02  2472   0.210E-01    0.163E-01
DAV:   7    -0.136166257576E+04    0.13502E-03   -0.54671E-03  2512   0.139E-01    0.107E-01
DAV:   8    -0.136166253762E+04    0.38137E-04   -0.20271E-03  2584   0.872E-02    0.595E-02
DAV:   9    -0.136166252228E+04    0.15342E-04   -0.39305E-04  2496   0.425E-02    0.429E-02
DAV:  10    -0.136166252605E+04   -0.37779E-05   -0.20073E-04  2528   0.264E-02    0.229E-02
DAV:  11    -0.136166252731E+04   -0.12557E-05   -0.71838E-05  2456   0.186E-02    0.120E-02
DAV:  12    -0.136166252837E+04   -0.10573E-05   -0.29622E-05  2352   0.123E-02    0.109E-02
DAV:  13    -0.136166252767E+04    0.69503E-06   -0.18238E-05  1928   0.793E-03    0.575E-03
DAV:  14    -0.136166252740E+04    0.27122E-06   -0.27075E-06  1104   0.540E-03
   9 F= -.13616625E+04 E0= -.13616625E+04  d E =-.896346E+00
 BRION: g(F)=  0.344E+00 g(S)=  0.000E+00 retain N=  8 mean eig= 3.10
 eig:   7.232  7.232  3.725  2.314  2.314  0.094  0.959  0.959
 bond charge predicted
       N       E                     dE             d eps       ncg     rms          rms(c)
DAV:   1    -0.136196290267E+04   -0.30037E+00   -0.10103E+02  1400   0.143E+01    0.171E+00
DAV:   2    -0.136250776434E+04   -0.54486E+00   -0.57838E+00  2296   0.584E+00    0.867E-01
DAV:   3    -0.136254044747E+04   -0.32683E-01   -0.46462E-01  2592   0.112E+00    0.708E-01
DAV:   4    -0.136253332012E+04    0.71273E-02   -0.43559E-02  2608   0.506E-01    0.499E-01
DAV:   5    -0.136252676863E+04    0.65515E-02   -0.22953E-02  2304   0.308E-01    0.192E-01
DAV:   6    -0.136252741756E+04   -0.64892E-03   -0.15331E-02  2432   0.223E-01    0.153E-01
DAV:   7    -0.136252741663E+04    0.93271E-06   -0.57997E-03  2480   0.142E-01    0.111E-01
DAV:   8    -0.136252737263E+04    0.43992E-04   -0.19590E-03  2584   0.865E-02    0.614E-02
DAV:   9    -0.136252734038E+04    0.32254E-04   -0.51782E-04  2408   0.462E-02    0.409E-02
DAV:  10    -0.136252735210E+04   -0.11717E-04   -0.22203E-04  2456   0.287E-02    0.256E-02
DAV:  11    -0.136252735037E+04    0.17282E-05   -0.94038E-05  2464   0.210E-02    0.135E-02
DAV:  12    -0.136252735213E+04   -0.17667E-05   -0.41544E-05  2344   0.140E-02    0.136E-02
DAV:  13    -0.136252735026E+04    0.18758E-05   -0.22550E-05  2024   0.872E-03    0.650E-03
DAV:  14    -0.136252735029E+04   -0.28915E-07   -0.82908E-06  1688   0.597E-03
  10 F= -.13625274E+04 E0= -.13625274E+04  d E =-.864823E+00
 BRION: g(F)=  0.291E+00 g(S)=  0.000E+00 retain N=  7 mean eig= 3.47
 eig:   7.396  7.396  2.826  2.826  1.451  1.451  0.959
 bond charge predicted
       N       E                     dE             d eps       ncg     rms          rms(c)
DAV:   1    -0.136283683761E+04   -0.30949E+00   -0.47714E+01  1400   0.988E+00    0.121E+00
DAV:   2    -0.136309728430E+04   -0.26045E+00   -0.27793E+00  2296   0.403E+00    0.617E-01
DAV:   3    -0.136311300670E+04   -0.15722E-01   -0.22778E-01  2600   0.790E-01    0.508E-01
DAV:   4    -0.136310916070E+04    0.38460E-02   -0.22116E-02  2600   0.358E-01    0.348E-01
DAV:   5    -0.136310615382E+04    0.30069E-02   -0.11767E-02  2296   0.216E-01    0.131E-01
DAV:   6    -0.136310655849E+04   -0.40467E-03   -0.73031E-03  2448   0.157E-01    0.110E-01
DAV:   7    -0.136310652015E+04    0.38341E-04   -0.28006E-03  2464   0.984E-02    0.774E-02
DAV:   8    -0.136310650743E+04    0.12716E-04   -0.10698E-03  2616   0.623E-02    0.422E-02
DAV:   9    -0.136310649603E+04    0.11399E-04   -0.21675E-04  2392   0.316E-02    0.307E-02
DAV:  10    -0.136310649924E+04   -0.32028E-05   -0.11402E-04  2464   0.199E-02    0.185E-02
DAV:  11    -0.136310649863E+04    0.60175E-06   -0.43205E-05  2408   0.142E-02    0.982E-03
DAV:  12    -0.136310649934E+04   -0.70580E-06   -0.19001E-05  2272   0.975E-03    0.892E-03
DAV:  13    -0.136310649866E+04    0.67640E-06   -0.10756E-05  1752   0.638E-03    0.437E-03
DAV:  14    -0.136310649851E+04    0.14962E-06   -0.21676E-06  1016   0.490E-03
  11 F= -.13631065E+04 E0= -.13631065E+04  d E =-.579148E+00
 BRION: g(F)=  0.254E+00 g(S)=  0.000E+00 retain N=  5 mean eig= 4.06
 eig:   7.141  7.141  1.251  2.391  2.391
 bond charge predicted
       N       E                     dE             d eps       ncg     rms          rms(c)
DAV:   1    -0.136336954400E+04   -0.26305E+00   -0.43727E+01  1400   0.950E+00    0.114E+00
DAV:   2    -0.136360938097E+04   -0.23984E+00   -0.25573E+00  2296   0.390E+00    0.585E-01
DAV:   3    -0.136362380329E+04   -0.14422E-01   -0.21037E-01  2600   0.756E-01    0.477E-01
DAV:   4    -0.136362028517E+04    0.35181E-02   -0.19678E-02  2600   0.342E-01    0.333E-01
DAV:   5    -0.136361734890E+04    0.29363E-02   -0.10606E-02  2320   0.202E-01    0.128E-01
DAV:   6    -0.136361758538E+04   -0.23648E-03   -0.65313E-03  2424   0.145E-01    0.998E-02
DAV:   7    -0.136361758841E+04   -0.30317E-05   -0.27393E-03  2456   0.964E-02    0.707E-02
DAV:   8    -0.136361757781E+04    0.10598E-04   -0.90918E-04  2624   0.593E-02    0.413E-02
DAV:   9    -0.136361756662E+04    0.11187E-04   -0.21907E-04  2456   0.308E-02    0.291E-02
DAV:  10    -0.136361757013E+04   -0.35033E-05   -0.10590E-04  2504   0.191E-02    0.180E-02
DAV:  11    -0.136361757023E+04   -0.10495E-06   -0.50907E-05  2384   0.148E-02    0.102E-02
DAV:  12    -0.136361757020E+04    0.30006E-07   -0.19163E-05  2256   0.103E-02    0.924E-03
DAV:  13    -0.136361756948E+04    0.72339E-06   -0.11928E-05  1776   0.638E-03    0.471E-03
DAV:  14    -0.136361756923E+04    0.25381E-06   -0.26900E-06  1088   0.505E-03
  12 F= -.13636176E+04 E0= -.13636176E+04  d E =-.511071E+00
 BRION: g(F)=  0.227E+00 g(S)=  0.000E+00 retain N=  3 mean eig= 4.12
 eig:   5.450  5.450  1.450
 bond charge predicted
       N       E                     dE             d eps       ncg     rms          rms(c)
DAV:   1    -0.136386244741E+04   -0.24488E+00   -0.38376E+01  1392   0.882E+00    0.105E+00
DAV:   2    -0.136406918380E+04   -0.20674E+00   -0.21980E+00  2288   0.357E+00    0.542E-01
DAV:   3    -0.136408150814E+04   -0.12324E-01   -0.17867E-01  2592   0.697E-01    0.441E-01
DAV:   4    -0.136407854045E+04    0.29677E-02   -0.16973E-02  2584   0.311E-01    0.305E-01
DAV:   5    -0.136407603381E+04    0.25066E-02   -0.84475E-03  2320   0.186E-01    0.120E-01
DAV:   6    -0.136407621932E+04   -0.18550E-03   -0.56753E-03  2384   0.136E-01    0.889E-02
DAV:   7    -0.136407623223E+04   -0.12916E-04   -0.21877E-03  2456   0.873E-02    0.673E-02
DAV:   8    -0.136407622008E+04    0.12148E-04   -0.76154E-04  2608   0.529E-02    0.381E-02
DAV:   9    -0.136407620986E+04    0.10227E-04   -0.20071E-04  2448   0.291E-02    0.257E-02
DAV:  10    -0.136407621370E+04   -0.38469E-05   -0.89493E-05  2504   0.181E-02    0.172E-02
DAV:  11    -0.136407621278E+04    0.91972E-06   -0.38139E-05  2336   0.130E-02    0.931E-03
DAV:  12    -0.136407621306E+04   -0.27427E-06   -0.17095E-05  2088   0.934E-03    0.854E-03
DAV:  13    -0.136407621233E+04    0.72439E-06   -0.87287E-06  1616   0.604E-03
  13 F= -.13640762E+04 E0= -.13640762E+04  d E =-.458643E+00
 BRION: g(F)=  0.206E+00 g(S)=  0.000E+00 retain N=  3 mean eig= 3.47
 eig:   4.535  4.535  1.351
 bond charge predicted
       N       E                     dE             d eps       ncg     rms          rms(c)
DAV:   1    -0.136429294648E+04   -0.21673E+00   -0.37758E+01  1392   0.873E+00    0.101E+00
DAV:   2    -0.136449438509E+04   -0.20144E+00   -0.21322E+00  2288   0.352E+00    0.528E-01
DAV:   3    -0.136450642880E+04   -0.12044E-01   -0.17360E-01  2600   0.676E-01    0.427E-01
DAV:   4    -0.136450359525E+04    0.28336E-02   -0.15753E-02  2600   0.301E-01    0.300E-01
DAV:   5    -0.136450117937E+04    0.24159E-02   -0.76111E-03  2352   0.174E-01    0.123E-01
DAV:   6    -0.136450123441E+04   -0.55043E-04   -0.52161E-03  2368   0.130E-01    0.794E-02
DAV:   7    -0.136450128986E+04   -0.55444E-04   -0.23529E-03  2448   0.879E-02    0.648E-02
DAV:   8    -0.136450127313E+04    0.16726E-04   -0.65307E-04  2616   0.524E-02    0.391E-02
DAV:   9    -0.136450126325E+04    0.98762E-05   -0.22240E-04  2496   0.288E-02    0.242E-02
DAV:  10    -0.136450126766E+04   -0.44079E-05   -0.81888E-05  2520   0.175E-02    0.168E-02
DAV:  11    -0.136450126746E+04    0.20157E-06   -0.34356E-05  2368   0.122E-02    0.973E-03
DAV:  12    -0.136450126704E+04    0.42391E-06   -0.19629E-05  2176   0.949E-03    0.795E-03
DAV:  13    -0.136450126664E+04    0.39667E-06   -0.96128E-06  1776   0.623E-03
  14 F= -.13645013E+04 E0= -.13645013E+04  d E =-.425054E+00
 BRION: g(F)=  0.187E+00 g(S)=  0.000E+00 retain N=  3 mean eig= 4.12
 eig:   5.425  5.425  1.499
 bond charge predicted
       N       E                     dE             d eps       ncg     rms          rms(c)
DAV:   1    -0.136469360777E+04   -0.19234E+00   -0.35476E+01  1392   0.846E+00    0.961E-01
DAV:   2    -0.136487829811E+04   -0.18469E+00   -0.19452E+00  2304   0.335E+00    0.498E-01
DAV:   3    -0.136488913383E+04   -0.10836E-01   -0.15440E-01  2584   0.632E-01    0.399E-01
DAV:   4    -0.136488677117E+04    0.23627E-02   -0.13665E-02  2584   0.277E-01    0.286E-01
DAV:   5    -0.136488438779E+04    0.23834E-02   -0.71343E-03  2312   0.169E-01    0.115E-01
DAV:   6    -0.136488446390E+04   -0.76108E-04   -0.50410E-03  2344   0.128E-01    0.806E-02
DAV:   7    -0.136488449912E+04   -0.35219E-04   -0.21157E-03  2448   0.838E-02    0.633E-02
DAV:   8    -0.136488448301E+04    0.16107E-04   -0.64034E-04  2592   0.505E-02    0.368E-02
DAV:   9    -0.136488447247E+04    0.10542E-04   -0.19277E-04  2432   0.277E-02    0.235E-02
DAV:  10    -0.136488447589E+04   -0.34208E-05   -0.76675E-05  2512   0.165E-02    0.155E-02
DAV:  11    -0.136488447556E+04    0.32631E-06   -0.30977E-05  2376   0.118E-02    0.890E-03
DAV:  12    -0.136488447546E+04    0.99259E-07   -0.15599E-05  1968   0.862E-03    0.797E-03
DAV:  13    -0.136488447489E+04    0.57730E-06   -0.76953E-06  1600   0.580E-03
  15 F= -.13648845E+04 E0= -.13648845E+04  d E =-.383208E+00
 BRION: g(F)=  0.173E+00 g(S)=  0.000E+00 retain N=  3 mean eig= 4.69
 eig:   6.234  6.234  1.590
 bond charge predicted
       N       E                     dE             d eps       ncg     rms          rms(c)
DAV:   1    -0.136506447645E+04   -0.18000E+00   -0.39177E+01  1384   0.883E+00    0.994E-01
DAV:   2    -0.136526427248E+04   -0.19980E+00   -0.20987E+00  2296   0.345E+00    0.517E-01
DAV:   3    -0.136527586383E+04   -0.11591E-01   -0.16563E-01  2584   0.657E-01    0.415E-01
DAV:   4    -0.136527332555E+04    0.25383E-02   -0.14768E-02  2584   0.284E-01    0.296E-01
DAV:   5    -0.136527072630E+04    0.25992E-02   -0.73064E-03  2336   0.175E-01    0.121E-01
DAV:   6    -0.136527079142E+04   -0.65119E-04   -0.55497E-03  2328   0.135E-01    0.796E-02
DAV:   7    -0.136527083946E+04   -0.48033E-04   -0.21949E-03  2448   0.862E-02    0.653E-02
DAV:   8    -0.136527082248E+04    0.16972E-04   -0.63323E-04  2592   0.502E-02    0.378E-02
DAV:   9    -0.136527081122E+04    0.11260E-04   -0.22094E-04  2504   0.289E-02    0.230E-02
DAV:  10    -0.136527081604E+04   -0.48170E-05   -0.76178E-05  2520   0.171E-02    0.169E-02
DAV:  11    -0.136527081454E+04    0.15048E-05   -0.31427E-05  2368   0.117E-02    0.878E-03
DAV:  12    -0.136527081464E+04   -0.99899E-07   -0.16714E-05  1984   0.875E-03    0.757E-03
DAV:  13    -0.136527081422E+04    0.41544E-06   -0.79643E-06  1648   0.591E-03
  16 F= -.13652708E+04 E0= -.13652708E+04  d E =-.386339E+00
 BRION: g(F)=  0.162E+00 g(S)=  0.000E+00 retain N=  3 mean eig= 4.82
 eig:   6.398  6.398  1.671
 bond charge predicted
       N       E                     dE             d eps       ncg     rms          rms(c)
DAV:   1    -0.136543151341E+04   -0.16070E+00   -0.42521E+01  1392   0.921E+00    0.104E+00
DAV:   2    -0.136564789789E+04   -0.21638E+00   -0.22711E+00  2288   0.360E+00    0.539E-01
DAV:   3    -0.136566056191E+04   -0.12664E-01   -0.18049E-01  2584   0.685E-01    0.429E-01
DAV:   4    -0.136565770621E+04    0.28557E-02   -0.15974E-02  2584   0.296E-01    0.304E-01
DAV:   5    -0.136565500734E+04    0.26989E-02   -0.83846E-03  2304   0.180E-01    0.119E-01
DAV:   6    -0.136565513087E+04   -0.12353E-03   -0.54066E-03  2360   0.130E-01    0.846E-02
DAV:   7    -0.136565516340E+04   -0.32531E-04   -0.21837E-03  2448   0.840E-02    0.638E-02
DAV:   8    -0.136565514628E+04    0.17122E-04   -0.67212E-04  2608   0.524E-02    0.374E-02
DAV:   9    -0.136565513851E+04    0.77668E-05   -0.19058E-04  2472   0.278E-02    0.248E-02
DAV:  10    -0.136565514108E+04   -0.25668E-05   -0.76038E-05  2520   0.164E-02    0.149E-02
DAV:  11    -0.136565514090E+04    0.17622E-06   -0.27803E-05  2320   0.115E-02    0.789E-03
DAV:  12    -0.136565514108E+04   -0.17391E-06   -0.15226E-05  1960   0.826E-03    0.706E-03
DAV:  13    -0.136565514052E+04    0.55175E-06   -0.41692E-06  1248   0.530E-03
  17 F= -.13656551E+04 E0= -.13656551E+04  d E =-.384326E+00
 BRION: g(F)=  0.150E+00 g(S)=  0.000E+00 retain N=  3 mean eig= 4.85
 eig:   6.424  6.424  1.704
 bond charge predicted
       N       E                     dE             d eps       ncg     rms          rms(c)
DAV:   1    -0.136581478048E+04   -0.15964E+00   -0.31624E+01  1384   0.794E+00    0.893E-01
DAV:   2    -0.136597347009E+04   -0.15869E+00   -0.16640E+00  2296   0.306E+00    0.459E-01
DAV:   3    -0.136598262565E+04   -0.91556E-02   -0.13011E-01  2584   0.581E-01    0.365E-01
DAV:   4    -0.136598065149E+04    0.19742E-02   -0.11536E-02  2592   0.249E-01    0.261E-01
DAV:   5    -0.136597855842E+04    0.20931E-02   -0.59844E-03  2256   0.159E-01    0.102E-01
DAV:   6    -0.136597866993E+04   -0.11150E-03   -0.43821E-03  2328   0.118E-01    0.745E-02
DAV:   7    -0.136597869246E+04   -0.22535E-04   -0.15350E-03  2440   0.711E-02    0.581E-02
DAV:   8    -0.136597867827E+04    0.14196E-04   -0.52146E-04  2584   0.441E-02    0.322E-02
DAV:   9    -0.136597867010E+04    0.81678E-05   -0.15176E-04  2368   0.249E-02    0.207E-02
DAV:  10    -0.136597867283E+04   -0.27286E-05   -0.55435E-05  2448   0.146E-02    0.142E-02
DAV:  11    -0.136597867140E+04    0.14293E-05   -0.20475E-05  2200   0.972E-03    0.637E-03
DAV:  12    -0.136597867191E+04   -0.51489E-06   -0.10848E-05  1768   0.683E-03    0.571E-03
DAV:  13    -0.136597867148E+04    0.43120E-06   -0.16960E-06   992   0.445E-03
  18 F= -.13659787E+04 E0= -.13659787E+04  d E =-.323531E+00
 BRION: g(F)=  0.140E+00 g(S)=  0.000E+00 retain N=  3 mean eig= 4.45
 eig:   5.845  5.845  1.657
 bond charge predicted
       N       E                     dE             d eps       ncg     rms          rms(c)
DAV:   1    -0.136613777070E+04   -0.15910E+00   -0.27457E+01  1376   0.737E+00    0.831E-01
DAV:   2    -0.136627533945E+04   -0.13757E+00   -0.14419E+00  2280   0.283E+00    0.426E-01
DAV:   3    -0.136628337714E+04   -0.80377E-02   -0.11445E-01  2584   0.549E-01    0.336E-01
DAV:   4    -0.136628157203E+04    0.18051E-02   -0.10251E-02  2592   0.234E-01    0.236E-01
DAV:   5    -0.136627991390E+04    0.16581E-02   -0.51080E-03  2280   0.142E-01    0.922E-02
DAV:   6    -0.136627998774E+04   -0.73846E-04   -0.32777E-03  2352   0.101E-01    0.639E-02
DAV:   7    -0.136628001272E+04   -0.24977E-04   -0.12503E-03  2440   0.634E-02    0.482E-02
DAV:   8    -0.136628000621E+04    0.65091E-05   -0.39922E-04  2584   0.395E-02    0.295E-02
DAV:   9    -0.136628000138E+04    0.48285E-05   -0.11342E-04  2488   0.216E-02    0.193E-02
DAV:  10    -0.136628000270E+04   -0.13214E-05   -0.49055E-05  2488   0.132E-02    0.114E-02
DAV:  11    -0.136628000237E+04    0.33223E-06   -0.13579E-05  1984   0.873E-03    0.580E-03
DAV:  12    -0.136628000254E+04   -0.16665E-06   -0.93947E-06  1648   0.643E-03
  19 F= -.13662800E+04 E0= -.13662800E+04  d E =-.301331E+00
 BRION: g(F)=  0.132E+00 g(S)=  0.000E+00 retain N=  3 mean eig= 4.71
 eig:   6.245  6.245  1.635
 bond charge predicted
       N       E                     dE             d eps       ncg     rms          rms(c)
DAV:   1    -0.136643504464E+04   -0.15504E+00   -0.29481E+01  1376   0.766E+00    0.860E-01
DAV:   2    -0.136658261284E+04   -0.14757E+00   -0.15459E+00  2288   0.293E+00    0.437E-01
DAV:   3    -0.136659130336E+04   -0.86905E-02   -0.12206E-01  2584   0.566E-01    0.345E-01
DAV:   4    -0.136658948520E+04    0.18182E-02   -0.10672E-02  2592   0.240E-01    0.247E-01
DAV:   5    -0.136658758469E+04    0.19005E-02   -0.55744E-03  2280   0.150E-01    0.954E-02
DAV:   6    -0.136658768078E+04   -0.96094E-04   -0.38015E-03  2368   0.108E-01    0.689E-02
DAV:   7    -0.136658769953E+04   -0.18755E-04   -0.12745E-03  2440   0.658E-02    0.514E-02
DAV:   8    -0.136658769269E+04    0.68411E-05   -0.46070E-04  2576   0.407E-02    0.305E-02
DAV:   9    -0.136658768589E+04    0.68070E-05   -0.11815E-04  2424   0.227E-02    0.203E-02
DAV:  10    -0.136658768681E+04   -0.92550E-06   -0.55640E-05  2440   0.141E-02    0.112E-02
DAV:  11    -0.136658768664E+04    0.17558E-06   -0.13739E-05  2048   0.890E-03    0.568E-03
DAV:  12    -0.136658768699E+04   -0.35329E-06   -0.96979E-06  1688   0.608E-03
  20 F= -.13665877E+04 E0= -.13665877E+04  d E =-.307684E+00
 BRION: g(F)=  0.125E+00 g(S)=  0.000E+00 retain N=  3 mean eig= 4.89
 eig:   6.526  6.526  1.608
