 running on  160 total cores
 distrk:  each k-point on  160 cores,    1 groups
 distr:  one band on   20 cores,    8 groups
 using from now: INCAR     
 vasp.5.4.4.18Apr17-6-g9f103f2a35 (build May 01 2020 14:22:42) gamma-only       
  
 POSCAR found type information on POSCAR  O  La Zr Li Al
 POSCAR found :  5 types and     190 ions
 scaLAPACK will be used
 LDA part: xc-table for Pade appr. of Perdew
 POSCAR, INCAR and KPOINTS ok, starting setup
 FFT: planning ...
 WAVECAR not read
 WARNING: random wavefunctions but no delay for mixing, default for NELMDL
 entering main loop
       N       E                     dE             d eps       ncg     rms          rms(c)
DAV:   1     0.254113864776E+05    0.25411E+05   -0.42038E+05  1560   0.253E+03
DAV:   2     0.946563764517E+04   -0.15946E+05   -0.14604E+05  1408   0.713E+02
DAV:   3     0.270117391854E+04   -0.67645E+04   -0.61648E+04  1504   0.358E+02
DAV:   4    -0.380954282722E+03   -0.30821E+04   -0.28703E+04  2056   0.221E+02
DAV:   5    -0.142953715254E+04   -0.10486E+04   -0.10155E+04  2528   0.143E+02    0.117E+02
DAV:   6    -0.130873225598E+04    0.12080E+03   -0.14077E+03  2432   0.657E+01    0.504E+01
DAV:   7    -0.133191021250E+04   -0.23178E+02   -0.38481E+02  2568   0.337E+01    0.245E+01
DAV:   8    -0.134036556646E+04   -0.84554E+01   -0.24526E+02  2560   0.261E+01    0.253E+01
DAV:   9    -0.133396307952E+04    0.64025E+01   -0.52427E+01  2472   0.145E+01    0.768E+00
DAV:  10    -0.133490469621E+04   -0.94162E+00   -0.16000E+01  2616   0.811E+00    0.760E+00
DAV:  11    -0.133519927686E+04   -0.29458E+00   -0.61330E+00  2624   0.430E+00    0.434E+00
DAV:  12    -0.133501416811E+04    0.18511E+00   -0.26037E+00  2560   0.360E+00    0.314E+00
DAV:  13    -0.133509393391E+04   -0.79766E-01   -0.97227E-01  2544   0.179E+00    0.230E+00
DAV:  14    -0.133506740282E+04    0.26531E-01   -0.35023E-01  2568   0.119E+00    0.111E+00
DAV:  15    -0.133507595442E+04   -0.85516E-02   -0.96455E-02  2568   0.639E-01    0.100E+00
DAV:  16    -0.133507609336E+04   -0.13894E-03   -0.28486E-02  2616   0.326E-01    0.626E-01
DAV:  17    -0.133507415851E+04    0.19348E-02   -0.25638E-02  2384   0.304E-01    0.311E-01
DAV:  18    -0.133507453776E+04   -0.37925E-03   -0.57659E-03  2440   0.164E-01    0.163E-01
DAV:  19    -0.133507450789E+04    0.29871E-04   -0.20908E-03  2608   0.949E-02    0.996E-02
DAV:  20    -0.133507455635E+04   -0.48458E-04   -0.53936E-04  2576   0.436E-02    0.350E-02
DAV:  21    -0.133507457480E+04   -0.18451E-04   -0.15363E-04  2624   0.238E-02    0.349E-02
DAV:  22    -0.133507458695E+04   -0.12153E-04   -0.49400E-05  2328   0.129E-02    0.136E-02
DAV:  23    -0.133507458518E+04    0.17738E-05   -0.29563E-05  2056   0.973E-03    0.735E-03
DAV:  24    -0.133507458846E+04   -0.32845E-05   -0.75717E-06  1144   0.692E-03    0.237E-03
DAV:  25    -0.133507458854E+04   -0.80167E-07   -0.34648E-06  1016   0.532E-03
   1 F= -.13350746E+04 E0= -.13350746E+04  d E =-.133507E+04
 BRION: g(F)=  0.450E+02 g(S)=  0.000E+00
 bond charge predicted
       N       E                     dE             d eps       ncg     rms          rms(c)
DAV:   1    -0.130576675721E+04    0.29308E+02   -0.66355E+03  1616   0.124E+02    0.251E+01
DAV:   2    -0.135421667349E+04   -0.48450E+02   -0.56960E+02  2552   0.534E+01    0.128E+01
DAV:   3    -0.135330250533E+04    0.91417E+00   -0.34325E+01  2608   0.151E+01    0.884E+00
DAV:   4    -0.135149122551E+04    0.18113E+01   -0.10212E+01  2480   0.668E+00    0.441E+00
DAV:   5    -0.135114783344E+04    0.34339E+00   -0.30641E+00  2536   0.415E+00    0.301E+00
DAV:   6    -0.135107001014E+04    0.77823E-01   -0.30564E+00  2576   0.324E+00    0.161E+00
DAV:   7    -0.135106651717E+04    0.34930E-02   -0.60617E-01  2528   0.171E+00    0.112E+00
DAV:   8    -0.135106837946E+04   -0.18623E-02   -0.33575E-01  2624   0.961E-01    0.675E-01
DAV:   9    -0.135106603772E+04    0.23417E-02   -0.37804E-02  2616   0.496E-01    0.438E-01
DAV:  10    -0.135106399760E+04    0.20401E-02   -0.42014E-02  2448   0.390E-01    0.196E-01
DAV:  11    -0.135106511381E+04   -0.11162E-02   -0.13816E-02  2504   0.241E-01    0.197E-01
DAV:  12    -0.135106485473E+04    0.25907E-03   -0.32171E-03  2616   0.108E-01    0.904E-02
DAV:  13    -0.135106483690E+04    0.17829E-04   -0.22484E-03  2592   0.850E-02    0.345E-02
DAV:  14    -0.135106485367E+04   -0.16767E-04   -0.35981E-04  2416   0.449E-02    0.275E-02
DAV:  15    -0.135106485805E+04   -0.43759E-05   -0.97494E-05  2584   0.187E-02    0.172E-02
DAV:  16    -0.135106485726E+04    0.78403E-06   -0.27858E-05  2560   0.104E-02    0.113E-02
DAV:  17    -0.135106485679E+04    0.47206E-06   -0.10753E-05  1840   0.717E-03    0.519E-03
DAV:  18    -0.135106485678E+04    0.11380E-07   -0.63008E-06  1456   0.575E-03
   2 F= -.13510649E+04 E0= -.13510649E+04  d E =-.159903E+02
 BRION: g(F)=  0.243E+02 g(S)=  0.000E+00 retain N=  1 mean eig= 0.61
 eig:   0.606
 bond charge predicted
       N       E                     dE             d eps       ncg     rms          rms(c)
DAV:   1    -0.134453003751E+04    0.65348E+01   -0.19205E+03  1472   0.614E+01    0.128E+01
DAV:   2    -0.135728019827E+04   -0.12750E+02   -0.15396E+02  2528   0.276E+01    0.115E+01
DAV:   3    -0.135771463869E+04   -0.43444E+00   -0.11226E+01  2600   0.781E+00    0.910E+00
DAV:   4    -0.135731531190E+04    0.39933E+00   -0.32369E+00  2520   0.367E+00    0.515E+00
DAV:   5    -0.135717710760E+04    0.13820E+00   -0.12570E+00  2168   0.288E+00    0.305E+00
DAV:   6    -0.135709009468E+04    0.87013E-01   -0.15209E+00  2504   0.221E+00    0.141E+00
DAV:   7    -0.135710161132E+04   -0.11517E-01   -0.35414E-01  2496   0.117E+00    0.860E-01
DAV:   8    -0.135710020795E+04    0.14034E-02   -0.57327E-02  2624   0.499E-01    0.608E-01
DAV:   9    -0.135709973564E+04    0.47230E-03   -0.20355E-02  2584   0.286E-01    0.455E-01
DAV:  10    -0.135709749251E+04    0.22431E-02   -0.12235E-02  2464   0.222E-01    0.220E-01
DAV:  11    -0.135709758567E+04   -0.93164E-04   -0.75661E-03  2384   0.156E-01    0.740E-02
DAV:  12    -0.135709760764E+04   -0.21967E-04   -0.95409E-04  2608   0.696E-02    0.396E-02
DAV:  13    -0.135709763865E+04   -0.31007E-04   -0.32348E-04  2616   0.348E-02    0.239E-02
DAV:  14    -0.135709764059E+04   -0.19393E-05   -0.90055E-05  2624   0.202E-02    0.112E-02
DAV:  15    -0.135709764416E+04   -0.35782E-05   -0.37029E-05  2584   0.123E-02    0.752E-03
DAV:  16    -0.135709764414E+04    0.23487E-07   -0.39772E-06  1168   0.616E-03
   3 F= -.13570976E+04 E0= -.13570976E+04  d E =-.603279E+01
 BRION: g(F)=  0.419E+01 g(S)=  0.000E+00 retain N=  2 mean eig= 1.45
 eig:   0.463  2.445
 bond charge predicted
       N       E                     dE             d eps       ncg     rms          rms(c)
DAV:   1    -0.135799923733E+04   -0.90159E+00   -0.33122E+02  1336   0.262E+01    0.534E+00
DAV:   2    -0.135963926550E+04   -0.16400E+01   -0.18304E+01  2296   0.980E+00    0.225E+00
DAV:   3    -0.135968502466E+04   -0.45759E-01   -0.14688E+00  2584   0.232E+00    0.185E+00
DAV:   4    -0.135963257184E+04    0.52453E-01   -0.34157E-01  2552   0.124E+00    0.921E-01
DAV:   5    -0.135962513740E+04    0.74344E-02   -0.12356E-01  2392   0.772E-01    0.599E-01
DAV:   6    -0.135962408933E+04    0.10481E-02   -0.87344E-02  2576   0.551E-01    0.336E-01
DAV:   7    -0.135962428036E+04   -0.19103E-03   -0.21086E-02  2504   0.291E-01    0.262E-01
DAV:   8    -0.135962385615E+04    0.42422E-03   -0.64532E-03  2616   0.149E-01    0.136E-01
DAV:   9    -0.135962382042E+04    0.35723E-04   -0.26188E-03  2624   0.102E-01    0.814E-02
DAV:  10    -0.135962384961E+04   -0.29191E-04   -0.92747E-04  2280   0.639E-02    0.722E-02
DAV:  11    -0.135962381946E+04    0.30152E-04   -0.58733E-04  2440   0.420E-02    0.356E-02
DAV:  12    -0.135962381768E+04    0.17802E-05   -0.20932E-04  2560   0.258E-02    0.178E-02
DAV:  13    -0.135962381711E+04    0.57698E-06   -0.58045E-05  2560   0.158E-02    0.874E-03
DAV:  14    -0.135962381776E+04   -0.65769E-06   -0.15196E-05  2120   0.890E-03    0.460E-03
DAV:  15    -0.135962381801E+04   -0.24438E-06   -0.30615E-06  1128   0.503E-03
   4 F= -.13596238E+04 E0= -.13596238E+04  d E =-.252617E+01
 BRION: g(F)=  0.145E+01 g(S)=  0.000E+00 retain N=  3 mean eig= 1.13
 eig:   2.204  0.649  0.536
 bond charge predicted
       N       E                     dE             d eps       ncg     rms          rms(c)
DAV:   1    -0.136023669178E+04   -0.61287E+00   -0.15646E+02  1368   0.180E+01    0.268E+00
DAV:   2    -0.136099999972E+04   -0.76331E+00   -0.81633E+00  2296   0.682E+00    0.130E+00
DAV:   3    -0.136103163414E+04   -0.31634E-01   -0.61742E-01  2608   0.138E+00    0.108E+00
DAV:   4    -0.136101366910E+04    0.17965E-01   -0.10012E-01  2568   0.693E-01    0.601E-01
DAV:   5    -0.136100938229E+04    0.42868E-02   -0.46350E-02  2344   0.425E-01    0.302E-01
DAV:   6    -0.136101000316E+04   -0.62087E-03   -0.20693E-02  2560   0.278E-01    0.218E-01
DAV:   7    -0.136100976256E+04    0.24060E-03   -0.81720E-03  2512   0.172E-01    0.135E-01
DAV:   8    -0.136100972075E+04    0.41809E-04   -0.22021E-03  2624   0.935E-02    0.747E-02
DAV:   9    -0.136100970612E+04    0.14628E-04   -0.54983E-04  2616   0.485E-02    0.492E-02
DAV:  10    -0.136100972712E+04   -0.21003E-04   -0.32484E-04  2400   0.327E-02    0.391E-02
DAV:  11    -0.136100971276E+04    0.14364E-04   -0.17912E-04  2568   0.253E-02    0.171E-02
DAV:  12    -0.136100971288E+04   -0.12109E-06   -0.56474E-05  2392   0.157E-02    0.113E-02
DAV:  13    -0.136100971281E+04    0.69500E-07   -0.18718E-05  2048   0.870E-03    0.544E-03
DAV:  14    -0.136100971318E+04   -0.36345E-06   -0.73497E-06  1608   0.587E-03
   5 F= -.13610097E+04 E0= -.13610097E+04  d E =-.138590E+01
 BRION: g(F)=  0.860E+00 g(S)=  0.000E+00 retain N=  4 mean eig= 1.54
 eig:   2.293  2.293  0.796  0.796
 bond charge predicted
       N       E                     dE             d eps       ncg     rms          rms(c)
DAV:   1    -0.136150047983E+04   -0.49077E+00   -0.89144E+01  1384   0.137E+01    0.177E+00
DAV:   2    -0.136195418710E+04   -0.45371E+00   -0.48027E+00  2280   0.526E+00    0.928E-01
DAV:   3    -0.136197871658E+04   -0.24529E-01   -0.37814E-01  2584   0.108E+00    0.758E-01
DAV:   4    -0.136197097929E+04    0.77373E-02   -0.45905E-02  2584   0.501E-01    0.485E-01
DAV:   5    -0.136196712281E+04    0.38565E-02   -0.25518E-02  2320   0.330E-01    0.199E-01
DAV:   6    -0.136196794697E+04   -0.82417E-03   -0.13395E-02  2576   0.231E-01    0.186E-01
DAV:   7    -0.136196774664E+04    0.20034E-03   -0.56211E-03  2512   0.143E-01    0.121E-01
DAV:   8    -0.136196768831E+04    0.58329E-04   -0.23322E-03  2584   0.911E-02    0.586E-02
DAV:   9    -0.136196767277E+04    0.15538E-04   -0.34481E-04  2544   0.427E-02    0.424E-02
DAV:  10    -0.136196768514E+04   -0.12371E-04   -0.34552E-04  2328   0.328E-02    0.301E-02
DAV:  11    -0.136196767422E+04    0.10920E-04   -0.95815E-05  2464   0.239E-02    0.132E-02
DAV:  12    -0.136196768066E+04   -0.64439E-05   -0.93335E-05  2328   0.156E-02    0.168E-02
DAV:  13    -0.136196767599E+04    0.46741E-05   -0.25074E-05  2112   0.104E-02    0.672E-03
DAV:  14    -0.136196767609E+04   -0.98589E-07   -0.68411E-06  1568   0.625E-03
   6 F= -.13619677E+04 E0= -.13619677E+04  d E =-.957963E+00
 BRION: g(F)=  0.540E+00 g(S)=  0.000E+00 retain N=  5 mean eig= 1.88
 eig:   3.229  3.229  1.073  1.073  0.792
 bond charge predicted
       N       E                     dE             d eps       ncg     rms          rms(c)
DAV:   1    -0.136234066005E+04   -0.37298E+00   -0.80984E+01  1392   0.131E+01    0.164E+00
DAV:   2    -0.136277160543E+04   -0.43095E+00   -0.45565E+00  2288   0.523E+00    0.830E-01
DAV:   3    -0.136279633603E+04   -0.24731E-01   -0.35992E-01  2592   0.102E+00    0.666E-01
DAV:   4    -0.136278992333E+04    0.64127E-02   -0.39934E-02  2592   0.482E-01    0.435E-01
DAV:   5    -0.136278625650E+04    0.36668E-02   -0.21036E-02  2344   0.295E-01    0.175E-01
DAV:   6    -0.136278698605E+04   -0.72955E-03   -0.11559E-02  2520   0.207E-01    0.153E-01
DAV:   7    -0.136278690280E+04    0.83248E-04   -0.47443E-03  2496   0.131E-01    0.106E-01
DAV:   8    -0.136278687417E+04    0.28637E-04   -0.20135E-03  2608   0.841E-02    0.564E-02
DAV:   9    -0.136278685242E+04    0.21745E-04   -0.33661E-04  2552   0.408E-02    0.406E-02
DAV:  10    -0.136278685744E+04   -0.50189E-05   -0.25315E-04  2536   0.282E-02    0.250E-02
DAV:  11    -0.136278685489E+04    0.25530E-05   -0.85758E-05  2464   0.204E-02    0.119E-02
DAV:  12    -0.136278685694E+04   -0.20568E-05   -0.32637E-05  2352   0.123E-02    0.122E-02
DAV:  13    -0.136278685519E+04    0.17550E-05   -0.16590E-05  1824   0.788E-03    0.532E-03
DAV:  14    -0.136278685509E+04    0.92448E-07   -0.37934E-06  1224   0.554E-03
   7 F= -.13627869E+04 E0= -.13627869E+04  d E =-.819179E+00
 BRION: g(F)=  0.393E+00 g(S)=  0.000E+00 retain N=  6 mean eig= 2.37
 eig:   4.657  4.657  1.558  1.558  0.896  0.896
 bond charge predicted
       N       E                     dE             d eps       ncg     rms          rms(c)
DAV:   1    -0.136306650750E+04   -0.27965E+00   -0.97093E+01  1384   0.143E+01    0.177E+00
DAV:   2    -0.136358206469E+04   -0.51556E+00   -0.54810E+00  2312   0.569E+00    0.886E-01
DAV:   3    -0.136361357927E+04   -0.31515E-01   -0.43792E-01  2576   0.112E+00    0.723E-01
DAV:   4    -0.136360766508E+04    0.59142E-02   -0.46752E-02  2608   0.516E-01    0.495E-01
DAV:   5    -0.136360291030E+04    0.47548E-02   -0.23610E-02  2336   0.314E-01    0.203E-01
DAV:   6    -0.136360369308E+04   -0.78278E-03   -0.14331E-02  2464   0.235E-01    0.175E-01
DAV:   7    -0.136360359061E+04    0.10247E-03   -0.66789E-03  2416   0.150E-01    0.127E-01
DAV:   8    -0.136360353312E+04    0.57489E-04   -0.26510E-03  2592   0.977E-02    0.674E-02
DAV:   9    -0.136360349979E+04    0.33328E-04   -0.54944E-04  2504   0.485E-02    0.454E-02
DAV:  10    -0.136360350837E+04   -0.85786E-05   -0.28804E-04  2544   0.309E-02    0.283E-02
DAV:  11    -0.136360350727E+04    0.11054E-05   -0.11262E-04  2472   0.224E-02    0.168E-02
DAV:  12    -0.136360350699E+04    0.27925E-06   -0.42939E-05  2336   0.151E-02    0.153E-02
DAV:  13    -0.136360350506E+04    0.19306E-05   -0.35678E-05  2064   0.104E-02    0.721E-03
DAV:  14    -0.136360350503E+04    0.21755E-07   -0.83301E-06  1656   0.608E-03
   8 F= -.13636035E+04 E0= -.13636035E+04  d E =-.816650E+00
 BRION: g(F)=  0.281E+00 g(S)=  0.000E+00 retain N=  6 mean eig= 3.26
 eig:   7.377  7.377  1.583  1.583  0.820  0.820
 bond charge predicted
       N       E                     dE             d eps       ncg     rms          rms(c)
DAV:   1    -0.136384816924E+04   -0.24466E+00   -0.85952E+01  1384   0.132E+01    0.162E+00
DAV:   2    -0.136429332142E+04   -0.44515E+00   -0.46965E+00  2304   0.522E+00    0.792E-01
DAV:   3    -0.136431829765E+04   -0.24976E-01   -0.36363E-01  2584   0.100E+00    0.623E-01
DAV:   4    -0.136431180085E+04    0.64968E-02   -0.38044E-02  2568   0.465E-01    0.411E-01
DAV:   5    -0.136430753030E+04    0.42705E-02   -0.18588E-02  2344   0.296E-01    0.158E-01
DAV:   6    -0.136430820740E+04   -0.67710E-03   -0.11884E-02  2448   0.209E-01    0.135E-01
DAV:   7    -0.136430821525E+04   -0.78478E-05   -0.38900E-03  2496   0.121E-01    0.107E-01
DAV:   8    -0.136430816574E+04    0.49508E-04   -0.16854E-03  2592   0.752E-02    0.519E-02
DAV:   9    -0.136430813904E+04    0.26698E-04   -0.38118E-04  2384   0.407E-02    0.341E-02
DAV:  10    -0.136430814460E+04   -0.55633E-05   -0.16494E-04  2464   0.262E-02    0.234E-02
DAV:  11    -0.136430814106E+04    0.35445E-05   -0.58318E-05  2448   0.169E-02    0.103E-02
DAV:  12    -0.136430814357E+04   -0.25101E-05   -0.32534E-05  2304   0.107E-02    0.106E-02
DAV:  13    -0.136430814235E+04    0.12160E-05   -0.11445E-05  1648   0.712E-03    0.502E-03
DAV:  14    -0.136430814229E+04    0.63141E-07   -0.35371E-06  1168   0.567E-03
   9 F= -.13643081E+04 E0= -.13643081E+04  d E =-.704637E+00
 BRION: g(F)=  0.230E+00 g(S)=  0.000E+00 retain N=  4 mean eig= 4.33
 eig:   7.059  7.059  1.598  1.598
 bond charge predicted
       N       E                     dE             d eps       ncg     rms          rms(c)
DAV:   1    -0.136455988864E+04   -0.25175E+00   -0.40676E+01  1384   0.917E+00    0.112E+00
DAV:   2    -0.136477626178E+04   -0.21637E+00   -0.23097E+00  2304   0.369E+00    0.548E-01
DAV:   3    -0.136478938243E+04   -0.13121E-01   -0.18504E-01  2584   0.719E-01    0.451E-01
DAV:   4    -0.136478679753E+04    0.25849E-02   -0.17785E-02  2616   0.328E-01    0.319E-01
DAV:   5    -0.136478421938E+04    0.25781E-02   -0.10633E-02  2280   0.217E-01    0.125E-01
DAV:   6    -0.136478459828E+04   -0.37890E-03   -0.71881E-03  2432   0.161E-01    0.123E-01
DAV:   7    -0.136478453816E+04    0.60124E-04   -0.26073E-03  2512   0.971E-02    0.873E-02
DAV:   8    -0.136478449093E+04    0.47228E-04   -0.10726E-03  2544   0.622E-02    0.396E-02
DAV:   9    -0.136478447729E+04    0.13642E-04   -0.22293E-04  2232   0.312E-02    0.262E-02
DAV:  10    -0.136478448127E+04   -0.39842E-05   -0.78904E-05  2376   0.174E-02    0.156E-02
DAV:  11    -0.136478448014E+04    0.11375E-05   -0.22333E-05  2288   0.110E-02    0.793E-03
DAV:  12    -0.136478448112E+04   -0.98981E-06   -0.15245E-05  1920   0.776E-03    0.762E-03
DAV:  13    -0.136478448031E+04    0.81779E-06   -0.24030E-06  1024   0.554E-03
  10 F= -.13647845E+04 E0= -.13647845E+04  d E =-.476338E+00
 BRION: g(F)=  0.211E+00 g(S)=  0.000E+00 retain N=  4 mean eig= 4.44
 eig:   7.088  7.088  1.796  1.796
 bond charge predicted
       N       E                     dE             d eps       ncg     rms          rms(c)
DAV:   1    -0.136502199350E+04   -0.23751E+00   -0.25690E+01  1384   0.723E+00    0.862E-01
DAV:   2    -0.136515793412E+04   -0.13594E+00   -0.14411E+00  2304   0.290E+00    0.429E-01
DAV:   3    -0.136516567683E+04   -0.77427E-02   -0.11273E-01  2600   0.563E-01    0.347E-01
DAV:   4    -0.136516381065E+04    0.18662E-02   -0.10515E-02  2608   0.250E-01    0.245E-01
DAV:   5    -0.136516192621E+04    0.18844E-02   -0.60091E-03  2296   0.171E-01    0.951E-02
DAV:   6    -0.136516212378E+04   -0.19756E-03   -0.49278E-03  2400   0.131E-01    0.866E-02
DAV:   7    -0.136516212586E+04   -0.20817E-05   -0.15590E-03  2472   0.746E-02    0.699E-02
DAV:   8    -0.136516210146E+04    0.24401E-04   -0.59434E-04  2520   0.450E-02    0.349E-02
DAV:   9    -0.136516207936E+04    0.22104E-04   -0.18615E-04  2248   0.273E-02    0.196E-02
DAV:  10    -0.136516208381E+04   -0.44566E-05   -0.66507E-05  2312   0.155E-02    0.162E-02
DAV:  11    -0.136516208090E+04    0.29105E-05   -0.22658E-05  2192   0.989E-03    0.727E-03
DAV:  12    -0.136516208122E+04   -0.31841E-06   -0.96824E-06  1760   0.700E-03
  11 F= -.13651621E+04 E0= -.13651621E+04  d E =-.377601E+00
 BRION: g(F)=  0.199E+00 g(S)=  0.000E+00 retain N=  3 mean eig= 4.08
 eig:   5.366  5.366  1.520
 bond charge predicted
       N       E                     dE             d eps       ncg     rms          rms(c)
DAV:   1    -0.136539434077E+04   -0.23226E+00   -0.21677E+01  1384   0.664E+00    0.792E-01
DAV:   2    -0.136550894366E+04   -0.11460E+00   -0.12145E+00  2304   0.267E+00    0.393E-01
DAV:   3    -0.136551534794E+04   -0.64043E-02   -0.93847E-02  2576   0.515E-01    0.317E-01
DAV:   4    -0.136551376063E+04    0.15873E-02   -0.88480E-03  2600   0.228E-01    0.224E-01
DAV:   5    -0.136551213861E+04    0.16220E-02   -0.53083E-03  2272   0.164E-01    0.843E-02
DAV:   6    -0.136551235193E+04   -0.21332E-03   -0.42814E-03  2392   0.121E-01    0.832E-02
DAV:   7    -0.136551234912E+04    0.28155E-05   -0.11494E-03  2504   0.649E-02    0.670E-02
DAV:   8    -0.136551232336E+04    0.25756E-04   -0.46823E-04  2520   0.398E-02    0.342E-02
DAV:   9    -0.136551230000E+04    0.23365E-04   -0.16048E-04  2216   0.257E-02    0.182E-02
DAV:  10    -0.136551230474E+04   -0.47462E-05   -0.65831E-05  2224   0.150E-02    0.159E-02
DAV:  11    -0.136551230188E+04    0.28673E-05   -0.18024E-05  2000   0.878E-03    0.759E-03
DAV:  12    -0.136551230190E+04   -0.29017E-07   -0.95594E-06  1744   0.690E-03
  12 F= -.13655123E+04 E0= -.13655123E+04  d E =-.350221E+00
 BRION: g(F)=  0.190E+00 g(S)=  0.000E+00 retain N=  3 mean eig= 3.49
 eig:   4.570  4.570  1.327
 bond charge predicted
       N       E                     dE             d eps       ncg     rms          rms(c)
DAV:   1    -0.136573757068E+04   -0.22527E+00   -0.20451E+01  1376   0.646E+00    0.767E-01
DAV:   2    -0.136584841853E+04   -0.11085E+00   -0.11761E+00  2304   0.264E+00    0.384E-01
DAV:   3    -0.136585487854E+04   -0.64600E-02   -0.92181E-02  2560   0.510E-01    0.314E-01
DAV:   4    -0.136585353503E+04    0.13435E-02   -0.85254E-03  2600   0.224E-01    0.230E-01
DAV:   5    -0.136585194336E+04    0.15917E-02   -0.51849E-03  2272   0.153E-01    0.911E-02
DAV:   6    -0.136585210618E+04   -0.16282E-03   -0.40555E-03  2376   0.116E-01    0.835E-02
DAV:   7    -0.136585208635E+04    0.19834E-04   -0.13035E-03  2472   0.682E-02    0.632E-02
DAV:   8    -0.136585206257E+04    0.23779E-04   -0.53744E-04  2536   0.438E-02    0.305E-02
DAV:   9    -0.136585204952E+04    0.13050E-04   -0.13749E-04  2216   0.236E-02    0.183E-02
DAV:  10    -0.136585205225E+04   -0.27314E-05   -0.48957E-05  2432   0.132E-02    0.118E-02
DAV:  11    -0.136585205106E+04    0.11861E-05   -0.11173E-05  1848   0.809E-03    0.607E-03
DAV:  12    -0.136585205157E+04   -0.50481E-06   -0.88929E-06  1664   0.630E-03
  13 F= -.13658521E+04 E0= -.13658521E+04  d E =-.339750E+00
 BRION: g(F)=  0.182E+00 g(S)=  0.000E+00 retain N=  3 mean eig= 3.58
 eig:   4.681  4.681  1.365
 bond charge predicted
       N       E                     dE             d eps       ncg     rms          rms(c)
DAV:   1    -0.136609627550E+04   -0.24422E+00   -0.34616E+01  1368   0.835E+00    0.985E-01
DAV:   2    -0.136628234576E+04   -0.18607E+00   -0.19649E+00  2304   0.340E+00    0.494E-01
DAV:   3    -0.136629269201E+04   -0.10346E-01   -0.15096E-01  2576   0.650E-01    0.399E-01
DAV:   4    -0.136629021415E+04    0.24779E-02   -0.13847E-02  2600   0.283E-01    0.289E-01
DAV:   5    -0.136628744694E+04    0.27672E-02   -0.79025E-03  2280   0.195E-01    0.116E-01
DAV:   6    -0.136628766149E+04   -0.21455E-03   -0.68820E-03  2384   0.152E-01    0.969E-02
DAV:   7    -0.136628767664E+04   -0.15154E-04   -0.21021E-03  2448   0.854E-02    0.808E-02
DAV:   8    -0.136628764919E+04    0.27449E-04   -0.75324E-04  2592   0.515E-02    0.432E-02
DAV:   9    -0.136628760704E+04    0.42150E-04   -0.28443E-04  2280   0.333E-02    0.223E-02
DAV:  10    -0.136628761564E+04   -0.86003E-05   -0.11657E-04  2408   0.199E-02    0.200E-02
DAV:  11    -0.136628761058E+04    0.50624E-05   -0.36577E-05  2264   0.127E-02    0.795E-03
DAV:  12    -0.136628761141E+04   -0.83455E-06   -0.12912E-05  1768   0.783E-03    0.634E-03
DAV:  13    -0.136628761102E+04    0.39687E-06   -0.23537E-06  1040   0.519E-03
  14 F= -.13662876E+04 E0= -.13662876E+04  d E =-.435559E+00
 BRION: g(F)=  0.172E+00 g(S)=  0.000E+00 retain N=  3 mean eig= 4.82
 eig:   6.416  6.416  1.627
 bond charge predicted
       N       E                     dE             d eps       ncg     rms          rms(c)
DAV:   1    -0.136651600484E+04   -0.22839E+00   -0.47158E+01  1368   0.974E+00    0.115E+00
DAV:   2    -0.136676883078E+04   -0.25283E+00   -0.26761E+00  2296   0.397E+00    0.581E-01
DAV:   3    -0.136678307996E+04   -0.14249E-01   -0.20876E-01  2584   0.763E-01    0.471E-01
DAV:   4    -0.136677969660E+04    0.33834E-02   -0.18927E-02  2584   0.333E-01    0.340E-01
DAV:   5    -0.136677608042E+04    0.36162E-02   -0.11323E-02  2280   0.221E-01    0.137E-01
DAV:   6    -0.136677635193E+04   -0.27151E-03   -0.87228E-03  2376   0.170E-01    0.118E-01
DAV:   7    -0.136677632941E+04    0.22523E-04   -0.29643E-03  2416   0.101E-01    0.901E-02
DAV:   8    -0.136677628829E+04    0.41121E-04   -0.12169E-03  2576   0.658E-02    0.452E-02
DAV:   9    -0.136677625997E+04    0.28315E-04   -0.31179E-04  2256   0.356E-02    0.281E-02
DAV:  10    -0.136677626468E+04   -0.47057E-05   -0.11230E-04  2448   0.203E-02    0.180E-02
DAV:  11    -0.136677626252E+04    0.21607E-05   -0.36768E-05  2368   0.131E-02    0.868E-03
DAV:  12    -0.136677626392E+04   -0.13983E-05   -0.18541E-05  2144   0.909E-03    0.932E-03
DAV:  13    -0.136677626289E+04    0.10254E-05   -0.73405E-06  1536   0.614E-03    0.445E-03
DAV:  14    -0.136677626284E+04    0.52358E-07   -0.37210E-06  1168   0.564E-03
  15 F= -.13667763E+04 E0= -.13667763E+04  d E =-.488652E+00
 BRION: g(F)=  0.159E+00 g(S)=  0.000E+00 retain N=  3 mean eig= 5.36
 eig:   6.976  6.976  2.119
 bond charge predicted
       N       E                     dE             d eps       ncg     rms          rms(c)
DAV:   1    -0.136697888234E+04   -0.20262E+00   -0.42733E+01  1368   0.926E+00    0.110E+00
DAV:   2    -0.136720825057E+04   -0.22937E+00   -0.24242E+00  2304   0.379E+00    0.559E-01
DAV:   3    -0.136722097039E+04   -0.12720E-01   -0.18864E-01  2568   0.722E-01    0.450E-01
DAV:   4    -0.136721761525E+04    0.33551E-02   -0.17798E-02  2560   0.318E-01    0.318E-01
DAV:   5    -0.136721450836E+04    0.31069E-02   -0.10425E-02  2296   0.206E-01    0.125E-01
DAV:   6    -0.136721479139E+04   -0.28303E-03   -0.71486E-03  2416   0.152E-01    0.108E-01
DAV:   7    -0.136721476140E+04    0.29994E-04   -0.24714E-03  2416   0.929E-02    0.803E-02
DAV:   8    -0.136721472484E+04    0.36553E-04   -0.10712E-03  2600   0.615E-02    0.411E-02
DAV:   9    -0.136721470765E+04    0.17196E-04   -0.22750E-04  2280   0.314E-02    0.274E-02
DAV:  10    -0.136721470960E+04   -0.19473E-05   -0.10811E-04  2352   0.193E-02    0.156E-02
DAV:  11    -0.136721470870E+04    0.89539E-06   -0.30329E-05  2328   0.126E-02    0.806E-03
DAV:  12    -0.136721471001E+04   -0.13108E-05   -0.18675E-05  2096   0.862E-03    0.893E-03
DAV:  13    -0.136721470893E+04    0.10786E-05   -0.65212E-06  1472   0.614E-03    0.428E-03
DAV:  14    -0.136721470914E+04   -0.20492E-06   -0.69930E-06  1496   0.615E-03
  16 F= -.13672147E+04 E0= -.13672147E+04  d E =-.438446E+00
 BRION: g(F)=  0.146E+00 g(S)=  0.000E+00 retain N=  3 mean eig= 5.91
 eig:   7.781  7.781  2.170
 bond charge predicted
       N       E                     dE             d eps       ncg     rms          rms(c)
DAV:   1    -0.136738829726E+04   -0.17359E+00   -0.39782E+01  1376   0.889E+00    0.104E+00
DAV:   2    -0.136759702339E+04   -0.20873E+00   -0.21984E+00  2296   0.359E+00    0.532E-01
DAV:   3    -0.136760814941E+04   -0.11126E-01   -0.16886E-01  2584   0.686E-01    0.423E-01
DAV:   4    -0.136760485915E+04    0.32903E-02   -0.15770E-02  2552   0.300E-01    0.293E-01
DAV:   5    -0.136760202174E+04    0.28374E-02   -0.90668E-03  2288   0.196E-01    0.112E-01
DAV:   6    -0.136760226334E+04   -0.24160E-03   -0.62726E-03  2392   0.142E-01    0.951E-02
DAV:   7    -0.136760226262E+04    0.71109E-06   -0.18943E-03  2456   0.823E-02    0.733E-02
DAV:   8    -0.136760223540E+04    0.27220E-04   -0.81056E-04  2592   0.522E-02    0.372E-02
DAV:   9    -0.136760221624E+04    0.19161E-04   -0.20099E-04  2256   0.292E-02    0.243E-02
DAV:  10    -0.136760221737E+04   -0.11284E-05   -0.73281E-05  2512   0.171E-02    0.149E-02
DAV:  11    -0.136760221622E+04    0.11537E-05   -0.28800E-05  2288   0.112E-02    0.618E-03
DAV:  12    -0.136760221718E+04   -0.96399E-06   -0.10253E-05  1760   0.725E-03    0.650E-03
DAV:  13    -0.136760221659E+04    0.58903E-06   -0.16964E-06  1008   0.485E-03
  17 F= -.13676022E+04 E0= -.13676022E+04  d E =-.387507E+00
 BRION: g(F)=  0.131E+00 g(S)=  0.000E+00 retain N=  3 mean eig= 5.69
 eig:   7.657  7.657  1.757
 bond charge predicted
       N       E                     dE             d eps       ncg     rms          rms(c)
DAV:   1    -0.136775661075E+04   -0.15439E+00   -0.32955E+01  1376   0.808E+00    0.937E-01
DAV:   2    -0.136792864510E+04   -0.17203E+00   -0.18191E+00  2296   0.327E+00    0.485E-01
DAV:   3    -0.136793841031E+04   -0.97652E-02   -0.14437E-01  2576   0.628E-01    0.390E-01
DAV:   4    -0.136793595233E+04    0.24580E-02   -0.13086E-02  2560   0.273E-01    0.277E-01
DAV:   5    -0.136793360580E+04    0.23465E-02   -0.81271E-03  2240   0.175E-01    0.107E-01
DAV:   6    -0.136793380787E+04   -0.20207E-03   -0.50357E-03  2352   0.126E-01    0.953E-02
DAV:   7    -0.136793377593E+04    0.31942E-04   -0.18720E-03  2432   0.793E-02    0.656E-02
DAV:   8    -0.136793375322E+04    0.22705E-04   -0.78213E-04  2560   0.526E-02    0.356E-02
DAV:   9    -0.136793374426E+04    0.89601E-05   -0.15182E-04  2304   0.265E-02    0.254E-02
DAV:  10    -0.136793374401E+04    0.24865E-06   -0.82486E-05  2368   0.166E-02    0.124E-02
DAV:  11    -0.136793374377E+04    0.24617E-06   -0.23925E-05  2136   0.112E-02    0.563E-03
DAV:  12    -0.136793374477E+04   -0.10011E-05   -0.12964E-05  1848   0.719E-03    0.699E-03
DAV:  13    -0.136793374400E+04    0.77180E-06   -0.16236E-06   968   0.489E-03
  18 F= -.13679337E+04 E0= -.13679337E+04  d E =-.331527E+00
 BRION: g(F)=  0.117E+00 g(S)=  0.000E+00 retain N=  3 mean eig= 5.29
 eig:   7.132  7.132  1.608
 bond charge predicted
       N       E                     dE             d eps       ncg     rms          rms(c)
DAV:   1    -0.136806385018E+04   -0.13011E+00   -0.28219E+01  1376   0.748E+00    0.864E-01
DAV:   2    -0.136820824316E+04   -0.14439E+00   -0.15176E+00  2304   0.299E+00    0.440E-01
DAV:   3    -0.136821615290E+04   -0.79097E-02   -0.11772E-01  2576   0.561E-01    0.347E-01
DAV:   4    -0.136821391597E+04    0.22369E-02   -0.10684E-02  2552   0.244E-01    0.241E-01
DAV:   5    -0.136821199032E+04    0.19257E-02   -0.65665E-03  2232   0.160E-01    0.876E-02
DAV:   6    -0.136821220295E+04   -0.21264E-03   -0.40694E-03  2376   0.112E-01    0.808E-02
DAV:   7    -0.136821218907E+04    0.13886E-04   -0.12192E-03  2440   0.653E-02    0.583E-02
DAV:   8    -0.136821216426E+04    0.24810E-04   -0.52527E-04  2536   0.427E-02    0.291E-02
DAV:   9    -0.136821215734E+04    0.69173E-05   -0.10357E-04  2248   0.223E-02    0.206E-02
DAV:  10    -0.136821215693E+04    0.40812E-06   -0.47090E-05  2392   0.133E-02    0.102E-02
DAV:  11    -0.136821215691E+04    0.18292E-07   -0.13211E-05  1904   0.833E-03    0.448E-03
DAV:  12    -0.136821215739E+04   -0.47848E-06   -0.61657E-06  1568   0.547E-03
  19 F= -.13682122E+04 E0= -.13682122E+04  d E =-.278413E+00
 BRION: g(F)=  0.106E+00 g(S)=  0.000E+00 retain N=  3 mean eig= 5.30
 eig:   7.084  7.084  1.724
 bond charge predicted
       N       E                     dE             d eps       ncg     rms          rms(c)
DAV:   1    -0.136832691699E+04   -0.11476E+00   -0.30715E+01  1384   0.771E+00    0.866E-01
DAV:   2    -0.136848096504E+04   -0.15405E+00   -0.16161E+00  2296   0.306E+00    0.447E-01
DAV:   3    -0.136848971688E+04   -0.87518E-02   -0.12663E-01  2576   0.576E-01    0.356E-01
DAV:   4    -0.136848767230E+04    0.20446E-02   -0.10778E-02  2560   0.243E-01    0.255E-01
DAV:   5    -0.136848549339E+04    0.21789E-02   -0.64303E-03  2168   0.160E-01    0.959E-02
DAV:   6    -0.136848567280E+04   -0.17941E-03   -0.46133E-03  2320   0.116E-01    0.829E-02
DAV:   7    -0.136848566981E+04    0.29826E-05   -0.13694E-03  2424   0.678E-02    0.617E-02
DAV:   8    -0.136848564473E+04    0.25088E-04   -0.56038E-04  2528   0.438E-02    0.316E-02
DAV:   9    -0.136848563372E+04    0.11007E-04   -0.13845E-04  2208   0.245E-02    0.211E-02
DAV:  10    -0.136848563401E+04   -0.29642E-06   -0.46055E-05  2488   0.138E-02    0.112E-02
DAV:  11    -0.136848563363E+04    0.38576E-06   -0.19416E-05  2208   0.921E-03    0.360E-03
DAV:  12    -0.136848563402E+04   -0.38985E-06   -0.32757E-06  1152   0.557E-03
  20 F= -.13684856E+04 E0= -.13684856E+04  d E =-.273477E+00
 BRION: g(F)=  0.985E-01 g(S)=  0.000E+00 retain N=  3 mean eig= 5.65
 eig:   7.466  7.466  2.018
