 running on  160 total cores
 distrk:  each k-point on  160 cores,    1 groups
 distr:  one band on   20 cores,    8 groups
 using from now: INCAR     
 vasp.5.4.4.18Apr17-6-g9f103f2a35 (build May 01 2020 14:22:42) gamma-only       
  
 POSCAR found type information on POSCAR  O  La Zr Li Al
 POSCAR found :  5 types and     190 ions
 scaLAPACK will be used
 LDA part: xc-table for Pade appr. of Perdew
 POSCAR, INCAR and KPOINTS ok, starting setup
 FFT: planning ...
 WAVECAR not read
 WARNING: random wavefunctions but no delay for mixing, default for NELMDL
 entering main loop
       N       E                     dE             d eps       ncg     rms          rms(c)
DAV:   1     0.253270619709E+05    0.25327E+05   -0.42180E+05  1584   0.253E+03
DAV:   2     0.934349024646E+04   -0.15984E+05   -0.14679E+05  1408   0.706E+02
DAV:   3     0.263542054811E+04   -0.67081E+04   -0.61220E+04  1504   0.357E+02
DAV:   4    -0.397920962518E+03   -0.30333E+04   -0.28285E+04  2048   0.223E+02
DAV:   5    -0.142443910816E+04   -0.10265E+04   -0.99201E+03  2528   0.141E+02    0.117E+02
DAV:   6    -0.130374456099E+04    0.12069E+03   -0.14222E+03  2440   0.660E+01    0.501E+01
DAV:   7    -0.132703086888E+04   -0.23286E+02   -0.37298E+02  2576   0.334E+01    0.240E+01
DAV:   8    -0.133595180807E+04   -0.89209E+01   -0.23622E+02  2544   0.251E+01    0.250E+01
DAV:   9    -0.132966314083E+04    0.62887E+01   -0.51632E+01  2480   0.144E+01    0.796E+00
DAV:  10    -0.133063151612E+04   -0.96838E+00   -0.16992E+01  2624   0.806E+00    0.740E+00
DAV:  11    -0.133093396271E+04   -0.30245E+00   -0.61218E+00  2584   0.432E+00    0.445E+00
DAV:  12    -0.133071824673E+04    0.21572E+00   -0.30731E+00  2552   0.367E+00    0.279E+00
DAV:  13    -0.133079523523E+04   -0.76988E-01   -0.86296E-01  2552   0.186E+00    0.209E+00
DAV:  14    -0.133077881492E+04    0.16420E-01   -0.28964E-01  2616   0.105E+00    0.116E+00
DAV:  15    -0.133078661314E+04   -0.77982E-02   -0.90706E-02  2608   0.600E-01    0.979E-01
DAV:  16    -0.133078700738E+04   -0.39424E-03   -0.37316E-02  2608   0.352E-01    0.604E-01
DAV:  17    -0.133078581000E+04    0.11974E-02   -0.21480E-02  2512   0.289E-01    0.286E-01
DAV:  18    -0.133078614345E+04   -0.33345E-03   -0.47090E-03  2512   0.143E-01    0.163E-01
DAV:  19    -0.133078612099E+04    0.22458E-04   -0.23192E-03  2600   0.932E-02    0.119E-01
DAV:  20    -0.133078616341E+04   -0.42420E-04   -0.57224E-04  2608   0.441E-02    0.490E-02
DAV:  21    -0.133078618320E+04   -0.19798E-04   -0.24282E-04  2576   0.273E-02    0.390E-02
DAV:  22    -0.133078619532E+04   -0.12120E-04   -0.64325E-05  2520   0.157E-02    0.135E-02
DAV:  23    -0.133078619468E+04    0.64971E-06   -0.29148E-05  1856   0.894E-03    0.582E-03
DAV:  24    -0.133078619812E+04   -0.34415E-05   -0.83737E-06  1088   0.626E-03    0.207E-03
DAV:  25    -0.133078619784E+04    0.27542E-06   -0.40944E-06  1040   0.495E-03
   1 F= -.13307862E+04 E0= -.13307862E+04  d E =-.133079E+04
 BRION: g(F)=  0.533E+02 g(S)=  0.000E+00
 bond charge predicted
       N       E                     dE             d eps       ncg     rms          rms(c)
DAV:   1    -0.130593255872E+04    0.24854E+02   -0.61161E+03  1696   0.119E+02    0.227E+01
DAV:   2    -0.135117241013E+04   -0.45240E+02   -0.52563E+02  2560   0.526E+01    0.129E+01
DAV:   3    -0.135056845648E+04    0.60395E+00   -0.31939E+01  2608   0.144E+01    0.906E+00
DAV:   4    -0.134915282081E+04    0.14156E+01   -0.89433E+00  2528   0.597E+00    0.464E+00
DAV:   5    -0.134882000129E+04    0.33282E+00   -0.21300E+00  2536   0.351E+00    0.281E+00
DAV:   6    -0.134871482166E+04    0.10518E+00   -0.21603E+00  2416   0.297E+00    0.119E+00
DAV:   7    -0.134876116133E+04   -0.46340E-01   -0.72536E-01  2304   0.174E+00    0.122E+00
DAV:   8    -0.134875251767E+04    0.86437E-02   -0.16007E-01  2592   0.690E-01    0.692E-01
DAV:   9    -0.134875217940E+04    0.33826E-03   -0.78640E-02  2616   0.518E-01    0.347E-01
DAV:  10    -0.134875143480E+04    0.74460E-03   -0.15377E-02  2512   0.302E-01    0.224E-01
DAV:  11    -0.134875175397E+04   -0.31917E-03   -0.14372E-02  2616   0.218E-01    0.146E-01
DAV:  12    -0.134875184341E+04   -0.89435E-04   -0.25282E-03  2584   0.110E-01    0.976E-02
DAV:  13    -0.134875182212E+04    0.21289E-04   -0.16268E-03  2592   0.675E-02    0.412E-02
DAV:  14    -0.134875183430E+04   -0.12184E-04   -0.32528E-04  2624   0.384E-02    0.281E-02
DAV:  15    -0.134875183274E+04    0.15651E-05   -0.13785E-04  2624   0.229E-02    0.164E-02
DAV:  16    -0.134875183349E+04   -0.74769E-06   -0.61942E-05  2592   0.149E-02    0.102E-02
DAV:  17    -0.134875183263E+04    0.86032E-06   -0.14994E-05  2192   0.916E-03    0.480E-03
DAV:  18    -0.134875183291E+04   -0.27985E-06   -0.44181E-06  1352   0.502E-03
   2 F= -.13487518E+04 E0= -.13487518E+04  d E =-.179656E+02
 BRION: g(F)=  0.726E+02 g(S)=  0.000E+00 retain N=  1 mean eig= 0.44
 eig:   0.442
 bond charge predicted
       N       E                     dE             d eps       ncg     rms          rms(c)
DAV:   1    -0.133655916164E+04    0.12193E+02   -0.17312E+03  1336   0.498E+01    0.177E+01
DAV:   2    -0.135826844720E+04   -0.21709E+02   -0.28547E+02  2568   0.264E+01    0.166E+01
DAV:   3    -0.135543329275E+04    0.28352E+01   -0.30415E+01  2528   0.957E+00    0.110E+01
DAV:   4    -0.135361646054E+04    0.18168E+01   -0.20276E+01  2144   0.495E+00    0.402E+00
DAV:   5    -0.135399801067E+04   -0.38155E+00   -0.44228E+00  2432   0.334E+00    0.488E+00
DAV:   6    -0.135356080016E+04    0.43721E+00   -0.32960E+00  2520   0.250E+00    0.117E+00
DAV:   7    -0.135362295525E+04   -0.62155E-01   -0.79910E-01  2504   0.166E+00    0.137E+00
DAV:   8    -0.135358943620E+04    0.33519E-01   -0.23080E-01  2552   0.927E-01    0.530E-01
DAV:   9    -0.135359122639E+04   -0.17902E-02   -0.76403E-02  2504   0.494E-01    0.226E-01
DAV:  10    -0.135359195785E+04   -0.73146E-03   -0.12200E-02  2568   0.223E-01    0.120E-01
DAV:  11    -0.135359208729E+04   -0.12944E-03   -0.29630E-03  2624   0.111E-01    0.108E-01
DAV:  12    -0.135359197834E+04    0.10895E-03   -0.19068E-03  2480   0.779E-02    0.332E-02
DAV:  13    -0.135359203239E+04   -0.54052E-04   -0.55236E-04  2440   0.510E-02    0.327E-02
DAV:  14    -0.135359202969E+04    0.27008E-05   -0.10115E-04  2608   0.212E-02    0.237E-02
DAV:  15    -0.135359202730E+04    0.23890E-05   -0.10589E-04  2464   0.178E-02    0.676E-03
DAV:  16    -0.135359202839E+04   -0.10949E-05   -0.19351E-05  2232   0.102E-02    0.282E-03
DAV:  17    -0.135359202860E+04   -0.20594E-06   -0.21312E-06  1160   0.467E-03
   3 F= -.13535920E+04 E0= -.13535920E+04  d E =-.484020E+01
 BRION: g(F)=  0.195E+02 g(S)=  0.000E+00 retain N=  2 mean eig= 0.78
 eig:   0.205  1.357
 bond charge predicted
       N       E                     dE             d eps       ncg     rms          rms(c)
DAV:   1    -0.135226708698E+04    0.13249E+01   -0.62389E+02  1368   0.277E+01    0.831E+00
DAV:   2    -0.135700265067E+04   -0.47356E+01   -0.57778E+01  2440   0.143E+01    0.516E+00
DAV:   3    -0.135670811891E+04    0.29453E+00   -0.38326E+00  2344   0.451E+00    0.406E+00
DAV:   4    -0.135649200553E+04    0.21611E+00   -0.33524E+00  2184   0.261E+00    0.182E+00
DAV:   5    -0.135650845649E+04   -0.16451E-01   -0.59326E-01  2368   0.155E+00    0.205E+00
DAV:   6    -0.135643987047E+04    0.68586E-01   -0.42972E-01  2384   0.119E+00    0.757E-01
DAV:   7    -0.135644508782E+04   -0.52174E-02   -0.25279E-01  2400   0.782E-01    0.643E-01
DAV:   8    -0.135644480310E+04    0.28472E-03   -0.50487E-02  2512   0.405E-01    0.547E-01
DAV:   9    -0.135644024153E+04    0.45616E-02   -0.17302E-02  2416   0.236E-01    0.252E-01
DAV:  10    -0.135644032571E+04   -0.84182E-04   -0.14912E-02  2512   0.172E-01    0.968E-02
DAV:  11    -0.135644021714E+04    0.10857E-03   -0.16324E-03  2528   0.900E-02    0.522E-02
DAV:  12    -0.135644024048E+04   -0.23341E-04   -0.74021E-04  2592   0.453E-02    0.238E-02
DAV:  13    -0.135644024846E+04   -0.79852E-05   -0.97982E-05  2600   0.234E-02    0.200E-02
DAV:  14    -0.135644024626E+04    0.21993E-05   -0.48467E-05  2544   0.127E-02    0.933E-03
DAV:  15    -0.135644024647E+04   -0.20720E-06   -0.16504E-05  2104   0.842E-03    0.455E-03
DAV:  16    -0.135644024623E+04    0.23910E-06   -0.18637E-06  1064   0.432E-03
   4 F= -.13564402E+04 E0= -.13564402E+04  d E =-.284822E+01
 BRION: g(F)=  0.566E+01 g(S)=  0.000E+00 retain N=  3 mean eig= 1.87
 eig:   4.874  0.369  0.369
 bond charge predicted
       N       E                     dE             d eps       ncg     rms          rms(c)
DAV:   1    -0.135791008644E+04   -0.14698E+01   -0.23700E+02  1376   0.213E+01    0.441E+00
DAV:   2    -0.135914374385E+04   -0.12337E+01   -0.13278E+01  2280   0.805E+00    0.205E+00
DAV:   3    -0.135916073334E+04   -0.16989E-01   -0.98559E-01  2624   0.183E+00    0.170E+00
DAV:   4    -0.135912041889E+04    0.40314E-01   -0.33615E-01  2448   0.111E+00    0.769E-01
DAV:   5    -0.135912071709E+04   -0.29819E-03   -0.86106E-02  2448   0.637E-01    0.577E-01
DAV:   6    -0.135911889742E+04    0.18197E-02   -0.73909E-02  2432   0.442E-01    0.245E-01
DAV:   7    -0.135911884571E+04    0.51707E-04   -0.12174E-02  2344   0.230E-01    0.215E-01
DAV:   8    -0.135911860975E+04    0.23596E-03   -0.63499E-03  2344   0.132E-01    0.995E-02
DAV:   9    -0.135911859845E+04    0.11303E-04   -0.25455E-03  2448   0.871E-02    0.658E-02
DAV:  10    -0.135911860266E+04   -0.42129E-05   -0.64619E-04  2464   0.517E-02    0.557E-02
DAV:  11    -0.135911858246E+04    0.20203E-04   -0.32802E-04  2560   0.332E-02    0.249E-02
DAV:  12    -0.135911858415E+04   -0.16909E-05   -0.14903E-04  2504   0.207E-02    0.164E-02
DAV:  13    -0.135911858441E+04   -0.25888E-06   -0.25112E-05  2376   0.119E-02    0.112E-02
DAV:  14    -0.135911858334E+04    0.10634E-05   -0.17246E-05  2000   0.754E-03    0.349E-03
DAV:  15    -0.135911858352E+04   -0.17296E-06   -0.25338E-06  1104   0.482E-03
   5 F= -.13591186E+04 E0= -.13591186E+04  d E =-.267834E+01
 BRION: g(F)=  0.238E+01 g(S)=  0.000E+00 retain N=  4 mean eig= 1.55
 eig:   5.031  0.540  0.540  0.079
 bond charge predicted
       N       E                     dE             d eps       ncg     rms          rms(c)
DAV:   1    -0.135984848067E+04   -0.72990E+00   -0.18811E+02  1352   0.187E+01    0.269E+00
DAV:   2    -0.136073259389E+04   -0.88411E+00   -0.93243E+00  2272   0.691E+00    0.141E+00
DAV:   3    -0.136075487877E+04   -0.22285E-01   -0.61341E-01  2584   0.140E+00    0.119E+00
DAV:   4    -0.136072943716E+04    0.25442E-01   -0.11575E-01  2496   0.698E-01    0.666E-01
DAV:   5    -0.136072229705E+04    0.71401E-02   -0.63325E-02  2368   0.478E-01    0.354E-01
DAV:   6    -0.136072280262E+04   -0.50556E-03   -0.26170E-02  2536   0.312E-01    0.260E-01
DAV:   7    -0.136072230010E+04    0.50252E-03   -0.11759E-02  2520   0.196E-01    0.150E-01
DAV:   8    -0.136072226683E+04    0.33265E-04   -0.27826E-03  2592   0.103E-01    0.790E-02
DAV:   9    -0.136072225104E+04    0.15796E-04   -0.81829E-04  2600   0.535E-02    0.542E-02
DAV:  10    -0.136072227008E+04   -0.19046E-04   -0.37250E-04  2256   0.349E-02    0.429E-02
DAV:  11    -0.136072224326E+04    0.26827E-04   -0.19566E-04  2376   0.265E-02    0.158E-02
DAV:  12    -0.136072224845E+04   -0.51988E-05   -0.10777E-04  2392   0.183E-02    0.145E-02
DAV:  13    -0.136072224616E+04    0.22937E-05   -0.24523E-05  2016   0.106E-02    0.835E-03
DAV:  14    -0.136072224626E+04   -0.10144E-06   -0.18407E-05  1824   0.747E-03    0.402E-03
DAV:  15    -0.136072224615E+04    0.11385E-06   -0.16519E-06  1016   0.451E-03
   6 F= -.13607222E+04 E0= -.13607222E+04  d E =-.160366E+01
 BRION: g(F)=  0.149E+01 g(S)=  0.000E+00 retain N=  5 mean eig= 1.56
 eig:   4.419  1.018  0.905  0.905  0.550
 bond charge predicted
       N       E                     dE             d eps       ncg     rms          rms(c)
DAV:   1    -0.136088919355E+04   -0.16695E+00   -0.27922E+02  1360   0.226E+01    0.306E+00
DAV:   2    -0.136230621950E+04   -0.14170E+01   -0.14795E+01  2312   0.864E+00    0.166E+00
DAV:   3    -0.136234421094E+04   -0.37991E-01   -0.95698E-01  2600   0.170E+00    0.142E+00
DAV:   4    -0.136231062698E+04    0.33584E-01   -0.16514E-01  2536   0.815E-01    0.823E-01
DAV:   5    -0.136229344129E+04    0.17186E-01   -0.79321E-02  2328   0.542E-01    0.363E-01
DAV:   6    -0.136229590284E+04   -0.24615E-02   -0.43868E-02  2480   0.391E-01    0.383E-01
DAV:   7    -0.136229410137E+04    0.18015E-02   -0.16910E-02  2472   0.243E-01    0.231E-01
DAV:   8    -0.136229395525E+04    0.14613E-03   -0.85479E-03  2448   0.151E-01    0.941E-02
DAV:   9    -0.136229389485E+04    0.60396E-04   -0.13074E-03  2288   0.715E-02    0.659E-02
DAV:  10    -0.136229391587E+04   -0.21017E-04   -0.56896E-04  2336   0.414E-02    0.438E-02
DAV:  11    -0.136229389839E+04    0.17473E-04   -0.18444E-04  2544   0.305E-02    0.230E-02
DAV:  12    -0.136229390338E+04   -0.49830E-05   -0.16412E-04  2384   0.223E-02    0.222E-02
DAV:  13    -0.136229389824E+04    0.51376E-05   -0.64022E-05  2256   0.149E-02    0.861E-03
DAV:  14    -0.136229389874E+04   -0.50008E-06   -0.96800E-06  1600   0.748E-03
   7 F= -.13622939E+04 E0= -.13622939E+04  d E =-.157165E+01
 BRION: g(F)=  0.111E+01 g(S)=  0.000E+00 retain N=  6 mean eig= 1.53
 eig:   4.769  1.434  1.434  0.724  0.377  0.436
 bond charge predicted
       N       E                     dE             d eps       ncg     rms          rms(c)
DAV:   1    -0.136259304814E+04   -0.29915E+00   -0.10665E+02  1376   0.143E+01    0.194E+00
DAV:   2    -0.136312816185E+04   -0.53511E+00   -0.56499E+00  2288   0.558E+00    0.102E+00
DAV:   3    -0.136314813275E+04   -0.19971E-01   -0.40881E-01  2600   0.107E+00    0.810E-01
DAV:   4    -0.136313491651E+04    0.13216E-01   -0.60912E-02  2528   0.526E-01    0.446E-01
DAV:   5    -0.136313128488E+04    0.36316E-02   -0.26123E-02  2376   0.321E-01    0.194E-01
DAV:   6    -0.136313197191E+04   -0.68703E-03   -0.12785E-02  2568   0.208E-01    0.140E-01
DAV:   7    -0.136313187793E+04    0.93979E-04   -0.34917E-03  2280   0.118E-01    0.103E-01
DAV:   8    -0.136313189010E+04   -0.12166E-04   -0.17806E-03  2360   0.708E-02    0.564E-02
DAV:   9    -0.136313186770E+04    0.22397E-04   -0.29657E-04  2568   0.392E-02    0.398E-02
DAV:  10    -0.136313187533E+04   -0.76265E-05   -0.40188E-04  2432   0.337E-02    0.324E-02
DAV:  11    -0.136313186448E+04    0.10843E-04   -0.12800E-04  2480   0.233E-02    0.126E-02
DAV:  12    -0.136313186728E+04   -0.27933E-05   -0.49378E-05  2328   0.131E-02    0.958E-03
DAV:  13    -0.136313186655E+04    0.72992E-06   -0.10481E-05  1760   0.723E-03    0.455E-03
DAV:  14    -0.136313186654E+04    0.46566E-08   -0.35695E-06  1168   0.544E-03
   8 F= -.13631319E+04 E0= -.13631319E+04  d E =-.837968E+00
 BRION: g(F)=  0.429E+00 g(S)=  0.000E+00 retain N=  6 mean eig= 1.33
 eig:   3.120  3.120  0.393  0.568  0.568  0.228
 bond charge predicted
       N       E                     dE             d eps       ncg     rms          rms(c)
DAV:   1    -0.136331178047E+04   -0.17991E+00   -0.10509E+02  1392   0.144E+01    0.182E+00
DAV:   2    -0.136385197767E+04   -0.54020E+00   -0.56955E+00  2280   0.575E+00    0.920E-01
DAV:   3    -0.136388031262E+04   -0.28335E-01   -0.43064E-01  2600   0.109E+00    0.750E-01
DAV:   4    -0.136387192667E+04    0.83859E-02   -0.48319E-02  2592   0.503E-01    0.476E-01
DAV:   5    -0.136386715348E+04    0.47732E-02   -0.23571E-02  2328   0.305E-01    0.183E-01
DAV:   6    -0.136386806493E+04   -0.91146E-03   -0.12436E-02  2488   0.203E-01    0.164E-01
DAV:   7    -0.136386790677E+04    0.15816E-03   -0.46823E-03  2496   0.131E-01    0.111E-01
DAV:   8    -0.136386788395E+04    0.22821E-04   -0.21811E-03  2592   0.835E-02    0.591E-02
DAV:   9    -0.136386786386E+04    0.20089E-04   -0.35581E-04  2416   0.422E-02    0.452E-02
DAV:  10    -0.136386786382E+04    0.42797E-07   -0.25639E-04  2448   0.287E-02    0.231E-02
DAV:  11    -0.136386786309E+04    0.73163E-06   -0.78066E-05  2440   0.198E-02    0.107E-02
DAV:  12    -0.136386786562E+04   -0.25361E-05   -0.33703E-05  2384   0.120E-02    0.113E-02
DAV:  13    -0.136386786405E+04    0.15713E-05   -0.12632E-05  1752   0.735E-03    0.500E-03
DAV:  14    -0.136386786415E+04   -0.99346E-07   -0.47004E-06  1328   0.562E-03
   9 F= -.13638679E+04 E0= -.13638679E+04  d E =-.735998E+00
 BRION: g(F)=  0.437E+00 g(S)=  0.000E+00 retain N=  7 mean eig= 1.64
 eig:   3.959  3.959  1.115  1.115  0.385  0.255  0.663
 bond charge predicted
       N       E                     dE             d eps       ncg     rms          rms(c)
DAV:   1    -0.136406745425E+04   -0.19959E+00   -0.77489E+01  1384   0.125E+01    0.156E+00
DAV:   2    -0.136447860194E+04   -0.41115E+00   -0.43517E+00  2288   0.513E+00    0.800E-01
DAV:   3    -0.136450023012E+04   -0.21628E-01   -0.33359E-01  2608   0.964E-01    0.639E-01
DAV:   4    -0.136449338394E+04    0.68462E-02   -0.39011E-02  2592   0.460E-01    0.395E-01
DAV:   5    -0.136449031195E+04    0.30720E-02   -0.16731E-02  2352   0.264E-01    0.157E-01
DAV:   6    -0.136449086140E+04   -0.54944E-03   -0.87260E-03  2488   0.178E-01    0.118E-01
DAV:   7    -0.136449083884E+04    0.22556E-04   -0.35410E-03  2384   0.115E-01    0.864E-02
DAV:   8    -0.136449085726E+04   -0.18417E-04   -0.14563E-03  2552   0.687E-02    0.506E-02
DAV:   9    -0.136449084247E+04    0.14788E-04   -0.28850E-04  2512   0.373E-02    0.379E-02
DAV:  10    -0.136449084398E+04   -0.15150E-05   -0.25145E-04  2424   0.282E-02    0.243E-02
DAV:  11    -0.136449084078E+04    0.32066E-05   -0.85091E-05  2424   0.203E-02    0.105E-02
DAV:  12    -0.136449084309E+04   -0.23098E-05   -0.37702E-05  2320   0.123E-02    0.107E-02
DAV:  13    -0.136449084171E+04    0.13735E-05   -0.13135E-05  1784   0.773E-03    0.470E-03
DAV:  14    -0.136449084208E+04   -0.37180E-06   -0.89899E-06  1776   0.601E-03
  10 F= -.13644908E+04 E0= -.13644908E+04  d E =-.622978E+00
 BRION: g(F)=  0.240E+00 g(S)=  0.000E+00 retain N=  8 mean eig= 2.04
 eig:   4.303  4.303  2.826  2.826  0.538  0.271  0.620  0.620
 bond charge predicted
       N       E                     dE             d eps       ncg     rms          rms(c)
DAV:   1    -0.136465239763E+04   -0.16156E+00   -0.57605E+01  1392   0.108E+01    0.130E+00
DAV:   2    -0.136495932046E+04   -0.30692E+00   -0.32547E+00  2304   0.440E+00    0.675E-01
DAV:   3    -0.136497631785E+04   -0.16997E-01   -0.25354E-01  2600   0.843E-01    0.545E-01
DAV:   4    -0.136497191126E+04    0.44066E-02   -0.27383E-02  2600   0.388E-01    0.360E-01
DAV:   5    -0.136496896080E+04    0.29505E-02   -0.12049E-02  2376   0.223E-01    0.143E-01
DAV:   6    -0.136496924361E+04   -0.28281E-03   -0.73355E-03  2432   0.160E-01    0.103E-01
DAV:   7    -0.136496926566E+04   -0.22049E-04   -0.30804E-03  2400   0.105E-01    0.784E-02
DAV:   8    -0.136496926516E+04    0.49878E-06   -0.11621E-03  2624   0.632E-02    0.457E-02
DAV:   9    -0.136496925675E+04    0.84124E-05   -0.25914E-04  2584   0.343E-02    0.332E-02
DAV:  10    -0.136496925834E+04   -0.15959E-05   -0.13159E-04  2560   0.215E-02    0.208E-02
DAV:  11    -0.136496925768E+04    0.66229E-06   -0.60062E-05  2392   0.157E-02    0.105E-02
DAV:  12    -0.136496925751E+04    0.16637E-06   -0.20064E-05  2168   0.106E-02    0.853E-03
DAV:  13    -0.136496925717E+04    0.34460E-06   -0.12816E-05  1768   0.664E-03    0.443E-03
DAV:  14    -0.136496925705E+04    0.11733E-06   -0.23625E-06  1056   0.494E-03
  11 F= -.13649693E+04 E0= -.13649693E+04  d E =-.478415E+00
 BRION: g(F)=  0.171E+00 g(S)=  0.000E+00 retain N=  9 mean eig= 2.66
 eig:   6.174  6.174  3.841  3.841  0.833  1.245  0.325  0.745  0.745
 bond charge predicted
       N       E                     dE             d eps       ncg     rms          rms(c)
DAV:   1    -0.136512377662E+04   -0.15452E+00   -0.30540E+01  1376   0.792E+00    0.928E-01
DAV:   2    -0.136528494594E+04   -0.16117E+00   -0.17089E+00  2312   0.321E+00    0.473E-01
DAV:   3    -0.136529398470E+04   -0.90388E-02   -0.13182E-01  2608   0.606E-01    0.386E-01
DAV:   4    -0.136529198482E+04    0.19999E-02   -0.12829E-02  2608   0.272E-01    0.272E-01
DAV:   5    -0.136529010190E+04    0.18829E-02   -0.66550E-03  2296   0.165E-01    0.109E-01
DAV:   6    -0.136529022933E+04   -0.12743E-03   -0.44001E-03  2376   0.127E-01    0.850E-02
DAV:   7    -0.136529024040E+04   -0.11075E-04   -0.20328E-03  2432   0.832E-02    0.641E-02
DAV:   8    -0.136529022827E+04    0.12134E-04   -0.70295E-04  2560   0.521E-02    0.388E-02
DAV:   9    -0.136529021916E+04    0.91140E-05   -0.17070E-04  2528   0.270E-02    0.257E-02
DAV:  10    -0.136529022084E+04   -0.16830E-05   -0.78765E-05  2568   0.165E-02    0.150E-02
DAV:  11    -0.136529022190E+04   -0.10633E-05   -0.28012E-05  2328   0.119E-02    0.993E-03
DAV:  12    -0.136529022121E+04    0.69081E-06   -0.14362E-05  2016   0.889E-03    0.804E-03
DAV:  13    -0.136529022085E+04    0.36055E-06   -0.10488E-05  1760   0.632E-03    0.409E-03
DAV:  14    -0.136529022063E+04    0.22205E-06   -0.16981E-06   944   0.447E-03
  12 F= -.13652902E+04 E0= -.13652902E+04  d E =-.320964E+00
 BRION: g(F)=  0.159E+00 g(S)=  0.000E+00 retain N= 10 mean eig= 3.12
 eig:   7.878  7.878  4.348  4.348  1.025  2.042  2.042  0.334  0.630  0.630
 bond charge predicted
       N       E                     dE             d eps       ncg     rms          rms(c)
DAV:   1    -0.136543575588E+04   -0.14554E+00   -0.42572E+01  1376   0.927E+00    0.106E+00
DAV:   2    -0.136565820948E+04   -0.22245E+00   -0.23395E+00  2296   0.372E+00    0.539E-01
DAV:   3    -0.136567035975E+04   -0.12150E-01   -0.17633E-01  2592   0.690E-01    0.432E-01
DAV:   4    -0.136566758042E+04    0.27793E-02   -0.16600E-02  2592   0.305E-01    0.305E-01
DAV:   5    -0.136566483769E+04    0.27427E-02   -0.77996E-03  2328   0.185E-01    0.124E-01
DAV:   6    -0.136566489771E+04   -0.60026E-04   -0.59693E-03  2376   0.143E-01    0.795E-02
DAV:   7    -0.136566497058E+04   -0.72868E-04   -0.24337E-03  2416   0.907E-02    0.680E-02
DAV:   8    -0.136566495752E+04    0.13063E-04   -0.69188E-04  2592   0.522E-02    0.401E-02
DAV:   9    -0.136566494343E+04    0.14090E-04   -0.22500E-04  2456   0.299E-02    0.243E-02
DAV:  10    -0.136566494956E+04   -0.61301E-05   -0.10649E-04  2480   0.193E-02    0.170E-02
DAV:  11    -0.136566494803E+04    0.15272E-05   -0.32886E-05  2328   0.129E-02    0.921E-03
DAV:  12    -0.136566494831E+04   -0.27729E-06   -0.20562E-05  2168   0.952E-03    0.825E-03
DAV:  13    -0.136566494768E+04    0.63116E-06   -0.92331E-06  1744   0.639E-03
  13 F= -.13656649E+04 E0= -.13656649E+04  d E =-.374727E+00
 BRION: g(F)=  0.142E+00 g(S)=  0.000E+00 retain N=  9 mean eig= 2.94
 eig:   7.234  7.234  3.483  3.483  1.036  1.036  1.158  1.158  0.632
 bond charge predicted
       N       E                     dE             d eps       ncg     rms          rms(c)
DAV:   1    -0.136581998429E+04   -0.15504E+00   -0.24572E+01  1376   0.705E+00    0.821E-01
DAV:   2    -0.136594871025E+04   -0.12873E+00   -0.13593E+00  2304   0.283E+00    0.412E-01
DAV:   3    -0.136595596591E+04   -0.72557E-02   -0.10451E-01  2576   0.539E-01    0.331E-01
DAV:   4    -0.136595437502E+04    0.15909E-02   -0.10070E-02  2584   0.236E-01    0.233E-01
DAV:   5    -0.136595289166E+04    0.14834E-02   -0.52788E-03  2320   0.146E-01    0.896E-02
DAV:   6    -0.136595301577E+04   -0.12411E-03   -0.32054E-03  2392   0.104E-01    0.691E-02
DAV:   7    -0.136595302466E+04   -0.88889E-05   -0.12719E-03  2464   0.662E-02    0.507E-02
DAV:   8    -0.136595301813E+04    0.65252E-05   -0.44817E-04  2544   0.416E-02    0.313E-02
DAV:   9    -0.136595301228E+04    0.58481E-05   -0.10412E-04  2496   0.215E-02    0.208E-02
DAV:  10    -0.136595301337E+04   -0.10845E-05   -0.53623E-05  2528   0.136E-02    0.110E-02
DAV:  11    -0.136595301367E+04   -0.30671E-06   -0.13419E-05  2000   0.892E-03    0.615E-03
DAV:  12    -0.136595301382E+04   -0.14699E-06   -0.88872E-06  1632   0.650E-03
  14 F= -.13659530E+04 E0= -.13659530E+04  d E =-.288066E+00
 BRION: g(F)=  0.135E+00 g(S)=  0.000E+00 retain N=  7 mean eig= 3.59
 eig:   7.418  7.418  3.416  3.416  0.477  1.500  1.500
 bond charge predicted
       N       E                     dE             d eps       ncg     rms          rms(c)
DAV:   1    -0.136608424343E+04   -0.13123E+00   -0.11544E+01  1384   0.482E+00    0.545E-01
DAV:   2    -0.136614361149E+04   -0.59368E-01   -0.62212E-01  2296   0.191E+00    0.273E-01
DAV:   3    -0.136614706063E+04   -0.34491E-02   -0.47990E-02  2568   0.361E-01    0.218E-01
DAV:   4    -0.136614637724E+04    0.68339E-03   -0.43336E-03  2592   0.153E-01    0.156E-01
DAV:   5    -0.136614564918E+04    0.72806E-03   -0.22394E-03  2320   0.973E-02    0.606E-02
DAV:   6    -0.136614569891E+04   -0.49725E-04   -0.15854E-03  2360   0.733E-02    0.442E-02
DAV:   7    -0.136614570862E+04   -0.97103E-05   -0.59583E-04  2440   0.452E-02    0.349E-02
DAV:   8    -0.136614570342E+04    0.51952E-05   -0.17756E-04  2552   0.266E-02    0.198E-02
DAV:   9    -0.136614570023E+04    0.31926E-05   -0.51122E-05  2296   0.146E-02    0.124E-02
DAV:  10    -0.136614570143E+04   -0.11968E-05   -0.24548E-05  2240   0.940E-03    0.776E-03
DAV:  11    -0.136614570072E+04    0.70255E-06   -0.24040E-06  1056   0.629E-03
  15 F= -.13661457E+04 E0= -.13661457E+04  d E =-.192687E+00
 BRION: g(F)=  0.132E+00 g(S)=  0.000E+00 retain N=  6 mean eig= 3.36
 eig:   5.723  5.723  2.874  2.874  1.495  1.495
 bond charge predicted
       N       E                     dE             d eps       ncg     rms          rms(c)
DAV:   1    -0.136627346251E+04   -0.12776E+00   -0.76341E+00  1376   0.392E+00    0.441E-01
DAV:   2    -0.136631331051E+04   -0.39848E-01   -0.41837E-01  2312   0.157E+00    0.222E-01
DAV:   3    -0.136631566562E+04   -0.23551E-02   -0.32374E-02  2560   0.294E-01    0.177E-01
DAV:   4    -0.136631524867E+04    0.41694E-03   -0.29374E-03  2600   0.126E-01    0.129E-01
DAV:   5    -0.136631476382E+04    0.48485E-03   -0.15092E-03  2312   0.793E-02    0.510E-02
DAV:   6    -0.136631479391E+04   -0.30085E-04   -0.10533E-03  2344   0.593E-02    0.369E-02
DAV:   7    -0.136631479971E+04   -0.58034E-05   -0.42650E-04  2432   0.374E-02    0.287E-02
DAV:   8    -0.136631479603E+04    0.36831E-05   -0.12602E-04  2544   0.231E-02    0.174E-02
DAV:   9    -0.136631479375E+04    0.22750E-05   -0.37060E-05  2304   0.122E-02    0.108E-02
DAV:  10    -0.136631479433E+04   -0.57847E-06   -0.15805E-05  1936   0.786E-03    0.607E-03
DAV:  11    -0.136631479411E+04    0.22232E-06   -0.16045E-06   992   0.536E-03
  16 F= -.13663148E+04 E0= -.13663148E+04  d E =-.169093E+00
 BRION: g(F)=  0.132E+00 g(S)=  0.000E+00 retain N=  7 mean eig= 3.12
 eig:   6.087  6.087  2.819  2.819  1.478  1.478  1.051
 bond charge predicted
       N       E                     dE             d eps       ncg     rms          rms(c)
DAV:   1    -0.136641453268E+04   -0.99738E-01   -0.39204E+00  1376   0.281E+00    0.317E-01
DAV:   2    -0.136643496456E+04   -0.20432E-01   -0.21442E-01  2296   0.112E+00    0.160E-01
DAV:   3    -0.136643617269E+04   -0.12081E-02   -0.16673E-02  2560   0.210E-01    0.126E-01
DAV:   4    -0.136643593717E+04    0.23552E-03   -0.15173E-03  2576   0.912E-02    0.905E-02
DAV:   5    -0.136643570152E+04    0.23565E-03   -0.79253E-04  2328   0.567E-02    0.349E-02
DAV:   6    -0.136643572030E+04   -0.18787E-04   -0.51896E-04  2416   0.419E-02    0.257E-02
DAV:   7    -0.136643572315E+04   -0.28429E-05   -0.19881E-04  2408   0.257E-02    0.197E-02
DAV:   8    -0.136643572142E+04    0.17293E-05   -0.59626E-05  2568   0.159E-02    0.113E-02
DAV:   9    -0.136643572065E+04    0.76492E-06   -0.15825E-05  2024   0.839E-03    0.726E-03
DAV:  10    -0.136643572083E+04   -0.18286E-06   -0.71445E-06  1536   0.581E-03
  17 F= -.13664357E+04 E0= -.13664357E+04  d E =-.120927E+00
 BRION: g(F)=  0.132E+00 g(S)=  0.000E+00 retain N=  5 mean eig= 2.42
 eig:   4.590  4.590  0.544  1.624  0.760
 bond charge predicted
       N       E                     dE             d eps       ncg     rms          rms(c)
DAV:   1    -0.136642327163E+04    0.12449E-01   -0.12261E-01  1416   0.504E-01    0.582E-02
DAV:   2    -0.136642390651E+04   -0.63488E-03   -0.66618E-03  2288   0.203E-01    0.299E-02
DAV:   3    -0.136642394183E+04   -0.35312E-04   -0.50535E-04  2584   0.377E-02    0.249E-02
DAV:   4    -0.136642393411E+04    0.77186E-05   -0.47780E-05  2480   0.162E-02    0.181E-02
DAV:   5    -0.136642392468E+04    0.94260E-05   -0.31798E-05  2152   0.115E-02    0.707E-03
DAV:   6    -0.136642392601E+04   -0.13290E-05   -0.25486E-05  2176   0.986E-03    0.720E-03
DAV:   7    -0.136642392567E+04    0.33903E-06   -0.11507E-05  1960   0.639E-03    0.522E-03
DAV:   8    -0.136642392529E+04    0.38312E-06   -0.15055E-06   992   0.422E-03
  18 F= -.13664239E+04 E0= -.13664239E+04  d E =0.117955E-01
 BRION: g(F)=  0.132E+00 g(S)=  0.000E+00 retain N=  5 mean eig= 1.03
 eig:   1.399  1.607  1.002  1.002  0.148
 bond charge predicted
       N       E                     dE             d eps       ncg     rms          rms(c)
DAV:   1    -0.136642823348E+04   -0.43078E-02   -0.45895E-02  1424   0.309E-01    0.366E-02
DAV:   2    -0.136642847498E+04   -0.24150E-03   -0.25679E-03  2304   0.127E-01    0.191E-02
DAV:   3    -0.136642848883E+04   -0.13846E-04   -0.20088E-04  2592   0.236E-02    0.161E-02
DAV:   4    -0.136642848569E+04    0.31356E-05   -0.19506E-05  2192   0.109E-02    0.111E-02
DAV:   5    -0.136642848306E+04    0.26260E-05   -0.13262E-05  1968   0.756E-03    0.417E-03
DAV:   6    -0.136642848326E+04   -0.19652E-06   -0.44143E-06  1256   0.560E-03
  19 F= -.13664285E+04 E0= -.13664285E+04  d E =-.455797E-02
 BRION: g(F)=  0.131E+00 g(S)=  0.000E+00 retain N=  6 mean eig= 1.97
 eig:   4.276  4.276  0.442  1.449  0.791  0.579
 bond charge predicted
       N       E                     dE             d eps       ncg     rms          rms(c)
DAV:   1    -0.136651435368E+04   -0.85871E-01   -0.19293E+00  1392   0.197E+00    0.232E-01
DAV:   2    -0.136652466624E+04   -0.10313E-01   -0.10929E-01  2312   0.795E-01    0.115E-01
DAV:   3    -0.136652526723E+04   -0.60098E-03   -0.86666E-03  2560   0.154E-01    0.901E-02
DAV:   4    -0.136652512577E+04    0.14146E-03   -0.85346E-04  2576   0.691E-02    0.621E-02
DAV:   5    -0.136652501347E+04    0.11230E-03   -0.42134E-04  2344   0.417E-02    0.243E-02
DAV:   6    -0.136652502047E+04   -0.70031E-05   -0.24008E-04  2416   0.288E-02    0.180E-02
DAV:   7    -0.136652502222E+04   -0.17404E-05   -0.94043E-05  2424   0.182E-02    0.136E-02
DAV:   8    -0.136652502158E+04    0.63528E-06   -0.32715E-05  2512   0.114E-02    0.821E-03
DAV:   9    -0.136652502104E+04    0.53790E-06   -0.65920E-06  1608   0.627E-03
  20 F= -.13665250E+04 E0= -.13665250E+04  d E =-.965378E-01
 BRION: g(F)=  0.132E+00 g(S)=  0.000E+00 retain N=  7 mean eig= 2.99
 eig:   7.221  7.221  1.884  1.987  1.144  1.144  0.320
