 running on  160 total cores
 distrk:  each k-point on  160 cores,    1 groups
 distr:  one band on   20 cores,    8 groups
 using from now: INCAR     
 vasp.5.4.4.18Apr17-6-g9f103f2a35 (build May 01 2020 14:22:42) gamma-only       
  
 POSCAR found type information on POSCAR  O  La Zr Li Al
 POSCAR found :  5 types and     190 ions
 scaLAPACK will be used
 LDA part: xc-table for Pade appr. of Perdew
 POSCAR, INCAR and KPOINTS ok, starting setup
 FFT: planning ...
 WAVECAR not read
 WARNING: random wavefunctions but no delay for mixing, default for NELMDL
 entering main loop
       N       E                     dE             d eps       ncg     rms          rms(c)
DAV:   1     0.252308500153E+05    0.25231E+05   -0.42178E+05  1568   0.253E+03
DAV:   2     0.936489626002E+04   -0.15866E+05   -0.14685E+05  1432   0.704E+02
DAV:   3     0.265348423808E+04   -0.67114E+04   -0.60986E+04  1496   0.354E+02
DAV:   4    -0.391443538175E+03   -0.30449E+04   -0.28442E+04  2048   0.222E+02
DAV:   5    -0.141644097606E+04   -0.10250E+04   -0.98553E+03  2536   0.140E+02    0.117E+02
DAV:   6    -0.130091608918E+04    0.11552E+03   -0.14471E+03  2440   0.665E+01    0.503E+01
DAV:   7    -0.132385927925E+04   -0.22943E+02   -0.40290E+02  2560   0.348E+01    0.265E+01
DAV:   8    -0.132871421693E+04   -0.48549E+01   -0.23059E+02  2536   0.263E+01    0.227E+01
DAV:   9    -0.132664475245E+04    0.20695E+01   -0.32969E+01  2584   0.129E+01    0.110E+01
DAV:  10    -0.132568849388E+04    0.95626E+00   -0.19629E+01  2544   0.703E+00    0.637E+00
DAV:  11    -0.132610639426E+04   -0.41790E+00   -0.54433E+00  2592   0.422E+00    0.522E+00
DAV:  12    -0.132625493782E+04   -0.14854E+00   -0.26582E+00  2440   0.272E+00    0.464E+00
DAV:  13    -0.132608912998E+04    0.16581E+00   -0.20725E+00  2496   0.274E+00    0.176E+00
DAV:  14    -0.132609674901E+04   -0.76190E-02   -0.29491E-01  2520   0.126E+00    0.113E+00
DAV:  15    -0.132609290841E+04    0.38406E-02   -0.92451E-02  2600   0.596E-01    0.952E-01
DAV:  16    -0.132608566818E+04    0.72402E-02   -0.33349E-02  2616   0.307E-01    0.528E-01
DAV:  17    -0.132608424968E+04    0.14185E-02   -0.12144E-02  2600   0.215E-01    0.391E-01
DAV:  18    -0.132608343026E+04    0.81942E-03   -0.58917E-03  2608   0.120E-01    0.150E-01
DAV:  19    -0.132608356219E+04   -0.13193E-03   -0.22563E-03  2592   0.886E-02    0.147E-01
DAV:  20    -0.132608341404E+04    0.14815E-03   -0.13039E-03  2536   0.529E-02    0.643E-02
DAV:  21    -0.132608341004E+04    0.40021E-05   -0.48164E-04  2560   0.440E-02    0.376E-02
DAV:  22    -0.132608341495E+04   -0.49070E-05   -0.16307E-04  2624   0.201E-02    0.136E-02
DAV:  23    -0.132608342051E+04   -0.55620E-05   -0.56148E-05  2424   0.152E-02    0.111E-02
DAV:  24    -0.132608342471E+04   -0.41983E-05   -0.13669E-05  1616   0.792E-03    0.504E-03
DAV:  25    -0.132608342484E+04   -0.12654E-06   -0.43321E-06  1096   0.577E-03
   1 F= -.13260834E+04 E0= -.13260448E+04  d E =-.132608E+04
 BRION: g(F)=  0.634E+02 g(S)=  0.000E+00
 bond charge predicted
       N       E                     dE             d eps       ncg     rms          rms(c)
DAV:   1    -0.126411497743E+04    0.61968E+02   -0.10329E+04  1736   0.152E+02    0.358E+01
DAV:   2    -0.134995027442E+04   -0.85835E+02   -0.10150E+03  2584   0.717E+01    0.183E+01
DAV:   3    -0.134773997805E+04    0.22103E+01   -0.59876E+01  2616   0.191E+01    0.115E+01
DAV:   4    -0.134465795761E+04    0.30820E+01   -0.17711E+01  2456   0.911E+00    0.527E+00
DAV:   5    -0.134435090373E+04    0.30705E+00   -0.62674E+00  2560   0.562E+00    0.358E+00
DAV:   6    -0.134433046402E+04    0.20440E-01   -0.38288E+00  2552   0.348E+00    0.201E+00
DAV:   7    -0.134429469853E+04    0.35765E-01   -0.61139E-01  2536   0.187E+00    0.105E+00
DAV:   8    -0.134430605506E+04   -0.11357E-01   -0.36299E-01  2616   0.109E+00    0.834E-01
DAV:   9    -0.134430367373E+04    0.23813E-02   -0.62095E-02  2624   0.569E-01    0.585E-01
DAV:  10    -0.134430267899E+04    0.99475E-03   -0.81868E-02  2504   0.484E-01    0.312E-01
DAV:  11    -0.134430331894E+04   -0.63995E-03   -0.17511E-02  2488   0.308E-01    0.281E-01
DAV:  12    -0.134430284390E+04    0.47504E-03   -0.66815E-03  2592   0.150E-01    0.167E-01
DAV:  13    -0.134430260840E+04    0.23550E-03   -0.43044E-03  2520   0.110E-01    0.332E-02
DAV:  14    -0.134430265423E+04   -0.45831E-04   -0.71451E-04  2504   0.613E-02    0.345E-02
DAV:  15    -0.134430267177E+04   -0.17538E-04   -0.21525E-04  2608   0.258E-02    0.333E-02
DAV:  16    -0.134430265760E+04    0.14165E-04   -0.78600E-05  2608   0.175E-02    0.176E-02
DAV:  17    -0.134430266003E+04   -0.24240E-05   -0.46100E-05  2488   0.120E-02    0.749E-03
DAV:  18    -0.134430265940E+04    0.62984E-06   -0.37948E-06  1224   0.735E-03
   2 F= -.13443027E+04 E0= -.13443027E+04  d E =-.182192E+02
 BRION: g(F)=  0.539E+02 g(S)=  0.000E+00 retain N=  1 mean eig= 0.53
 eig:   0.526
 bond charge predicted
       N       E                     dE             d eps       ncg     rms          rms(c)
DAV:   1    -0.132482797521E+04    0.19475E+02   -0.34800E+03  1360   0.798E+01    0.202E+01
DAV:   2    -0.135371189244E+04   -0.28884E+02   -0.33774E+02  2560   0.383E+01    0.212E+01
DAV:   3    -0.135425169217E+04   -0.53980E+00   -0.19878E+01  2552   0.103E+01    0.169E+01
DAV:   4    -0.135331287901E+04    0.93881E+00   -0.89309E+00  2248   0.593E+00    0.827E+00
DAV:   5    -0.135307126401E+04    0.24162E+00   -0.31859E+00  2400   0.428E+00    0.467E+00
DAV:   6    -0.135289065251E+04    0.18061E+00   -0.41191E+00  2424   0.345E+00    0.159E+00
DAV:   7    -0.135289903949E+04   -0.83870E-02   -0.54724E-01  2472   0.167E+00    0.914E-01
DAV:   8    -0.135290346258E+04   -0.44231E-02   -0.18505E-01  2576   0.785E-01    0.614E-01
DAV:   9    -0.135290247882E+04    0.98376E-03   -0.28348E-02  2624   0.398E-01    0.408E-01
DAV:  10    -0.135290187120E+04    0.60761E-03   -0.29716E-02  2296   0.288E-01    0.175E-01
DAV:  11    -0.135290250883E+04   -0.63763E-03   -0.97489E-03  2392   0.191E-01    0.154E-01
DAV:  12    -0.135290250015E+04    0.86826E-05   -0.23799E-03  2624   0.931E-02    0.115E-01
DAV:  13    -0.135290237227E+04    0.12788E-03   -0.15763E-03  2568   0.684E-02    0.397E-02
DAV:  14    -0.135290240344E+04   -0.31172E-04   -0.52920E-04  2608   0.432E-02    0.215E-02
DAV:  15    -0.135290240526E+04   -0.18237E-05   -0.78009E-05  2624   0.209E-02    0.157E-02
DAV:  16    -0.135290240707E+04   -0.18076E-05   -0.63370E-05  2296   0.132E-02    0.749E-03
DAV:  17    -0.135290240874E+04   -0.16701E-05   -0.10885E-05  1624   0.808E-03    0.535E-03
DAV:  18    -0.135290240919E+04   -0.44543E-06   -0.26829E-06  1056   0.462E-03
   3 F= -.13529024E+04 E0= -.13529024E+04  d E =-.859975E+01
 BRION: g(F)=  0.779E+01 g(S)=  0.000E+00 retain N=  2 mean eig= 1.88
 eig:   0.407  3.353
 bond charge predicted
       N       E                     dE             d eps       ncg     rms          rms(c)
DAV:   1    -0.135357903228E+04   -0.67662E+00   -0.46939E+02  1408   0.297E+01    0.641E+00
DAV:   2    -0.135609598493E+04   -0.25170E+01   -0.29110E+01  2344   0.119E+01    0.289E+00
DAV:   3    -0.135616082852E+04   -0.64844E-01   -0.22605E+00  2600   0.302E+00    0.238E+00
DAV:   4    -0.135608533804E+04    0.75490E-01   -0.60944E-01  2608   0.159E+00    0.122E+00
DAV:   5    -0.135607694962E+04    0.83884E-02   -0.21898E-01  2400   0.986E-01    0.884E-01
DAV:   6    -0.135607005218E+04    0.68974E-02   -0.13116E-01  2608   0.701E-01    0.454E-01
DAV:   7    -0.135607063217E+04   -0.57999E-03   -0.44564E-02  2520   0.402E-01    0.283E-01
DAV:   8    -0.135607040226E+04    0.22991E-03   -0.91317E-03  2616   0.194E-01    0.154E-01
DAV:   9    -0.135607044191E+04   -0.39646E-04   -0.32316E-03  2616   0.118E-01    0.882E-02
DAV:  10    -0.135607050743E+04   -0.65523E-04   -0.12081E-03  2440   0.722E-02    0.748E-02
DAV:  11    -0.135607047663E+04    0.30796E-04   -0.77464E-04  2504   0.496E-02    0.312E-02
DAV:  12    -0.135607048311E+04   -0.64802E-05   -0.24048E-04  2536   0.305E-02    0.181E-02
DAV:  13    -0.135607048551E+04   -0.23959E-05   -0.53068E-05  2592   0.157E-02    0.116E-02
DAV:  14    -0.135607048654E+04   -0.10261E-05   -0.24651E-05  2528   0.921E-03    0.521E-03
DAV:  15    -0.135607048685E+04   -0.31565E-06   -0.36157E-06  1304   0.527E-03
   4 F= -.13560705E+04 E0= -.13560705E+04  d E =-.316808E+01
 BRION: g(F)=  0.217E+01 g(S)=  0.000E+00 retain N=  3 mean eig= 2.01
 eig:   5.362  0.434  0.226
 bond charge predicted
       N       E                     dE             d eps       ncg     rms          rms(c)
DAV:   1    -0.135656364026E+04   -0.49315E+00   -0.18608E+02  1392   0.194E+01    0.405E+00
DAV:   2    -0.135745656390E+04   -0.89292E+00   -0.96768E+00  2280   0.720E+00    0.183E+00
DAV:   3    -0.135748278738E+04   -0.26223E-01   -0.78483E-01  2608   0.160E+00    0.144E+00
DAV:   4    -0.135745587745E+04    0.26910E-01   -0.23123E-01  2488   0.979E-01    0.627E-01
DAV:   5    -0.135745689975E+04   -0.10223E-02   -0.57167E-02  2480   0.530E-01    0.470E-01
DAV:   6    -0.135745558305E+04    0.13167E-02   -0.52160E-02  2528   0.391E-01    0.214E-01
DAV:   7    -0.135745545628E+04    0.12677E-03   -0.73856E-03  2448   0.194E-01    0.167E-01
DAV:   8    -0.135745532886E+04    0.12743E-03   -0.40189E-03  2528   0.108E-01    0.604E-02
DAV:   9    -0.135745538108E+04   -0.52225E-04   -0.10635E-03  2600   0.620E-02    0.511E-02
DAV:  10    -0.135745538313E+04   -0.20481E-05   -0.28372E-04  2464   0.343E-02    0.378E-02
DAV:  11    -0.135745537252E+04    0.10604E-04   -0.21668E-04  2496   0.257E-02    0.177E-02
DAV:  12    -0.135745537232E+04    0.20333E-06   -0.57461E-05  2464   0.150E-02    0.107E-02
DAV:  13    -0.135745537296E+04   -0.64271E-06   -0.13514E-05  2080   0.819E-03    0.599E-03
DAV:  14    -0.135745537287E+04    0.93292E-07   -0.32351E-06  1176   0.519E-03
   5 F= -.13574554E+04 E0= -.13574554E+04  d E =-.138489E+01
 BRION: g(F)=  0.114E+01 g(S)=  0.000E+00 retain N=  4 mean eig= 1.80
 eig:   4.174  1.803  0.616  0.616
 bond charge predicted
       N       E                     dE             d eps       ncg     rms          rms(c)
DAV:   1    -0.135780967931E+04   -0.35431E+00   -0.13188E+02  1368   0.163E+01    0.237E+00
DAV:   2    -0.135844221291E+04   -0.63253E+00   -0.66648E+00  2288   0.605E+00    0.116E+00
DAV:   3    -0.135846854111E+04   -0.26328E-01   -0.50367E-01  2616   0.123E+00    0.915E-01
DAV:   4    -0.135845212299E+04    0.16418E-01   -0.79722E-02  2528   0.637E-01    0.505E-01
DAV:   5    -0.135844876667E+04    0.33563E-02   -0.38427E-02  2416   0.403E-01    0.251E-01
DAV:   6    -0.135844923492E+04   -0.46825E-03   -0.17625E-02  2552   0.254E-01    0.162E-01
DAV:   7    -0.135844921362E+04    0.21305E-04   -0.44140E-03  2544   0.136E-01    0.113E-01
DAV:   8    -0.135844916067E+04    0.52948E-04   -0.13046E-03  2624   0.722E-02    0.581E-02
DAV:   9    -0.135844915458E+04    0.60829E-05   -0.44175E-04  2624   0.434E-02    0.331E-02
DAV:  10    -0.135844915894E+04   -0.43519E-05   -0.15608E-04  2424   0.265E-02    0.226E-02
DAV:  11    -0.135844915834E+04    0.59919E-06   -0.91327E-05  2512   0.172E-02    0.124E-02
DAV:  12    -0.135844915725E+04    0.10859E-05   -0.23562E-05  2288   0.103E-02    0.771E-03
DAV:  13    -0.135844915710E+04    0.15085E-06   -0.10722E-05  1768   0.703E-03    0.415E-03
DAV:  14    -0.135844915707E+04    0.30312E-07   -0.19365E-06  1040   0.508E-03
   6 F= -.13584492E+04 E0= -.13584492E+04  d E =-.993784E+00
 BRION: g(F)=  0.711E+00 g(S)=  0.000E+00 retain N=  5 mean eig= 1.66
 eig:   3.263  3.263  0.592  0.592  0.568
 bond charge predicted
       N       E                     dE             d eps       ncg     rms          rms(c)
DAV:   1    -0.135875741882E+04   -0.30826E+00   -0.73924E+01  1376   0.124E+01    0.156E+00
DAV:   2    -0.135911956019E+04   -0.36214E+00   -0.38275E+00  2272   0.462E+00    0.789E-01
DAV:   3    -0.135914087944E+04   -0.21319E-01   -0.30771E-01  2576   0.967E-01    0.642E-01
DAV:   4    -0.135913580042E+04    0.50790E-02   -0.33519E-02  2568   0.428E-01    0.437E-01
DAV:   5    -0.135913204019E+04    0.37602E-02   -0.21937E-02  2216   0.285E-01    0.171E-01
DAV:   6    -0.135913270918E+04   -0.66899E-03   -0.10304E-02  2544   0.192E-01    0.175E-01
DAV:   7    -0.135913251918E+04    0.19000E-03   -0.43809E-03  2560   0.122E-01    0.101E-01
DAV:   8    -0.135913245660E+04    0.62574E-04   -0.14468E-03  2568   0.746E-02    0.490E-02
DAV:   9    -0.135913246253E+04   -0.59258E-05   -0.20647E-04  2560   0.339E-02    0.340E-02
DAV:  10    -0.135913247027E+04   -0.77461E-05   -0.15026E-04  2344   0.227E-02    0.165E-02
DAV:  11    -0.135913246915E+04    0.11239E-05   -0.31452E-05  2384   0.154E-02    0.879E-03
DAV:  12    -0.135913247185E+04   -0.27011E-05   -0.39874E-05  2144   0.984E-03    0.100E-02
DAV:  13    -0.135913246967E+04    0.21829E-05   -0.46933E-06  1240   0.658E-03    0.580E-03
DAV:  14    -0.135913247031E+04   -0.64597E-06   -0.18397E-05  1624   0.760E-03    0.404E-03
DAV:  15    -0.135913247011E+04    0.20761E-06   -0.12008E-06   968   0.457E-03
   7 F= -.13591325E+04 E0= -.13591325E+04  d E =-.683313E+00
 BRION: g(F)=  0.454E+00 g(S)=  0.000E+00 retain N=  6 mean eig= 2.16
 eig:   4.257  4.257  2.557  0.567  0.652  0.652
 bond charge predicted
       N       E                     dE             d eps       ncg     rms          rms(c)
DAV:   1    -0.135937733084E+04   -0.24486E+00   -0.88662E+01  1392   0.137E+01    0.173E+00
DAV:   2    -0.135982695950E+04   -0.44963E+00   -0.48096E+00  2288   0.527E+00    0.898E-01
DAV:   3    -0.135985657825E+04   -0.29619E-01   -0.39942E-01  2568   0.109E+00    0.747E-01
DAV:   4    -0.135985133887E+04    0.52394E-02   -0.43964E-02  2592   0.496E-01    0.509E-01
DAV:   5    -0.135984800019E+04    0.33387E-02   -0.28752E-02  2344   0.318E-01    0.219E-01
DAV:   6    -0.135984875402E+04   -0.75383E-03   -0.11530E-02  2552   0.218E-01    0.200E-01
DAV:   7    -0.135984844538E+04    0.30864E-03   -0.70932E-03  2560   0.153E-01    0.110E-01
DAV:   8    -0.135984841187E+04    0.33513E-04   -0.20392E-03  2568   0.915E-02    0.599E-02
DAV:   9    -0.135984839660E+04    0.15264E-04   -0.33961E-04  2576   0.406E-02    0.401E-02
DAV:  10    -0.135984840980E+04   -0.13197E-04   -0.23677E-04  2512   0.267E-02    0.225E-02
DAV:  11    -0.135984840671E+04    0.30852E-05   -0.65848E-05  2448   0.185E-02    0.985E-03
DAV:  12    -0.135984840882E+04   -0.21021E-05   -0.28416E-05  2296   0.110E-02    0.103E-02
DAV:  13    -0.135984840742E+04    0.13952E-05   -0.94674E-06  1632   0.679E-03    0.500E-03
DAV:  14    -0.135984840717E+04    0.24871E-06   -0.27208E-06  1064   0.587E-03
   8 F= -.13598484E+04 E0= -.13598484E+04  d E =-.715937E+00
 BRION: g(F)=  0.322E+00 g(S)=  0.000E+00 retain N=  7 mean eig= 2.64
 eig:   5.670  5.670  2.344  2.344  0.846  0.846  0.742
 bond charge predicted
       N       E                     dE             d eps       ncg     rms          rms(c)
DAV:   1    -0.136010228836E+04   -0.25388E+00   -0.62395E+01  1384   0.113E+01    0.135E+00
DAV:   2    -0.136042034657E+04   -0.31806E+00   -0.33417E+00  2296   0.441E+00    0.674E-01
DAV:   3    -0.136043945826E+04   -0.19112E-01   -0.25879E-01  2592   0.847E-01    0.539E-01
DAV:   4    -0.136043591209E+04    0.35462E-02   -0.25211E-02  2592   0.381E-01    0.374E-01
DAV:   5    -0.136043312597E+04    0.27861E-02   -0.13724E-02  2320   0.232E-01    0.139E-01
DAV:   6    -0.136043367307E+04   -0.54711E-03   -0.75420E-03  2520   0.164E-01    0.121E-01
DAV:   7    -0.136043361271E+04    0.60361E-04   -0.29189E-03  2536   0.999E-02    0.796E-02
DAV:   8    -0.136043358721E+04    0.25506E-04   -0.10603E-03  2608   0.639E-02    0.429E-02
DAV:   9    -0.136043358118E+04    0.60274E-05   -0.19358E-04  2544   0.303E-02    0.317E-02
DAV:  10    -0.136043358201E+04   -0.82960E-06   -0.10474E-04  2592   0.191E-02    0.163E-02
DAV:  11    -0.136043358326E+04   -0.12544E-05   -0.37005E-05  2424   0.133E-02    0.863E-03
DAV:  12    -0.136043358358E+04   -0.31863E-06   -0.13234E-05  1896   0.869E-03    0.711E-03
DAV:  13    -0.136043358334E+04    0.24166E-06   -0.67512E-06  1464   0.571E-03
   9 F= -.13604336E+04 E0= -.13604336E+04  d E =-.585176E+00
 BRION: g(F)=  0.269E+00 g(S)=  0.000E+00 retain N=  7 mean eig= 3.07
 eig:   7.777  7.777  1.923  1.923  0.633  0.633  0.850
 bond charge predicted
       N       E                     dE             d eps       ncg     rms          rms(c)
DAV:   1    -0.136068089517E+04   -0.24731E+00   -0.70747E+01  1392   0.120E+01    0.142E+00
DAV:   2    -0.136104867272E+04   -0.36778E+00   -0.38787E+00  2288   0.476E+00    0.707E-01
DAV:   3    -0.136107141495E+04   -0.22742E-01   -0.30577E-01  2592   0.913E-01    0.566E-01
DAV:   4    -0.136106745563E+04    0.39593E-02   -0.28866E-02  2592   0.415E-01    0.393E-01
DAV:   5    -0.136106425577E+04    0.31999E-02   -0.14654E-02  2344   0.240E-01    0.150E-01
DAV:   6    -0.136106479884E+04   -0.54307E-03   -0.84860E-03  2512   0.173E-01    0.122E-01
DAV:   7    -0.136106476987E+04    0.28971E-04   -0.34665E-03  2496   0.109E-01    0.831E-02
DAV:   8    -0.136106475517E+04    0.14704E-04   -0.11783E-03  2608   0.684E-02    0.484E-02
DAV:   9    -0.136106474055E+04    0.14614E-04   -0.25587E-04  2512   0.336E-02    0.339E-02
DAV:  10    -0.136106474417E+04   -0.36218E-05   -0.13841E-04  2544   0.218E-02    0.187E-02
DAV:  11    -0.136106474499E+04   -0.82023E-06   -0.48074E-05  2400   0.150E-02    0.102E-02
DAV:  12    -0.136106474525E+04   -0.25910E-06   -0.18317E-05  2200   0.101E-02    0.847E-03
DAV:  13    -0.136106474495E+04    0.30205E-06   -0.12021E-05  1784   0.648E-03    0.457E-03
DAV:  14    -0.136106474474E+04    0.20761E-06   -0.15807E-06   976   0.474E-03
  10 F= -.13610647E+04 E0= -.13610647E+04  d E =-.631161E+00
 BRION: g(F)=  0.237E+00 g(S)=  0.000E+00 retain N=  7 mean eig= 3.56
 eig:   7.244  7.244  3.518  3.518  1.239  1.239  0.912
 bond charge predicted
       N       E                     dE             d eps       ncg     rms          rms(c)
DAV:   1    -0.136133237422E+04   -0.26763E+00   -0.46234E+01  1376   0.975E+00    0.113E+00
DAV:   2    -0.136157454545E+04   -0.24217E+00   -0.25572E+00  2288   0.388E+00    0.568E-01
DAV:   3    -0.136158904542E+04   -0.14500E-01   -0.19891E-01  2592   0.740E-01    0.450E-01
DAV:   4    -0.136158627859E+04    0.27668E-02   -0.18788E-02  2592   0.333E-01    0.314E-01
DAV:   5    -0.136158396933E+04    0.23093E-02   -0.89703E-03  2376   0.191E-01    0.120E-01
DAV:   6    -0.136158423107E+04   -0.26174E-03   -0.54802E-03  2464   0.136E-01    0.880E-02
DAV:   7    -0.136158425465E+04   -0.23581E-04   -0.21050E-03  2480   0.857E-02    0.638E-02
DAV:   8    -0.136158424630E+04    0.83517E-05   -0.68750E-04  2608   0.520E-02    0.369E-02
DAV:   9    -0.136158423893E+04    0.73692E-05   -0.17119E-04  2496   0.275E-02    0.257E-02
DAV:  10    -0.136158424161E+04   -0.26807E-05   -0.82616E-05  2544   0.172E-02    0.152E-02
DAV:  11    -0.136158424186E+04   -0.24438E-06   -0.30494E-05  2344   0.118E-02    0.821E-03
DAV:  12    -0.136158424196E+04   -0.10055E-06   -0.12451E-05  1864   0.846E-03    0.653E-03
DAV:  13    -0.136158424173E+04    0.22943E-06   -0.63369E-06  1472   0.552E-03
  11 F= -.13615842E+04 E0= -.13615842E+04  d E =-.519497E+00
 BRION: g(F)=  0.222E+00 g(S)=  0.000E+00 retain N=  5 mean eig= 3.96
 eig:   7.097  7.097  1.120  2.237  2.237
 bond charge predicted
       N       E                     dE             d eps       ncg     rms          rms(c)
DAV:   1    -0.136185694933E+04   -0.27271E+00   -0.31570E+01  1376   0.804E+00    0.931E-01
DAV:   2    -0.136202286226E+04   -0.16591E+00   -0.17534E+00  2304   0.322E+00    0.467E-01
DAV:   3    -0.136203280891E+04   -0.99466E-02   -0.13726E-01  2592   0.613E-01    0.374E-01
DAV:   4    -0.136203096139E+04    0.18475E-02   -0.12714E-02  2592   0.273E-01    0.267E-01
DAV:   5    -0.136202911237E+04    0.18490E-02   -0.62588E-03  2336   0.163E-01    0.105E-01
DAV:   6    -0.136202927451E+04   -0.16214E-03   -0.44114E-03  2448   0.123E-01    0.792E-02
DAV:   7    -0.136202928594E+04   -0.11431E-04   -0.16747E-03  2424   0.761E-02    0.597E-02
DAV:   8    -0.136202927539E+04    0.10548E-04   -0.58847E-04  2592   0.473E-02    0.335E-02
DAV:   9    -0.136202926795E+04    0.74401E-05   -0.14115E-04  2416   0.247E-02    0.226E-02
DAV:  10    -0.136202927031E+04   -0.23656E-05   -0.66175E-05  2496   0.151E-02    0.134E-02
DAV:  11    -0.136202927050E+04   -0.18602E-06   -0.21094E-05  2232   0.103E-02    0.753E-03
DAV:  12    -0.136202927073E+04   -0.22966E-06   -0.10934E-05  1792   0.746E-03    0.658E-03
DAV:  13    -0.136202927027E+04    0.45482E-06   -0.47371E-06  1360   0.538E-03
  12 F= -.13620293E+04 E0= -.13620293E+04  d E =-.445029E+00
 BRION: g(F)=  0.213E+00 g(S)=  0.000E+00 retain N=  3 mean eig= 4.93
 eig:   6.290  6.290  2.198
 bond charge predicted
       N       E                     dE             d eps       ncg     rms          rms(c)
DAV:   1    -0.136229731715E+04   -0.26805E+00   -0.23742E+01  1392   0.695E+00    0.806E-01
DAV:   2    -0.136242186590E+04   -0.12455E+00   -0.13167E+00  2296   0.279E+00    0.404E-01
DAV:   3    -0.136242925406E+04   -0.73882E-02   -0.10361E-01  2576   0.531E-01    0.321E-01
DAV:   4    -0.136242769452E+04    0.15595E-02   -0.10030E-02  2576   0.240E-01    0.222E-01
DAV:   5    -0.136242637635E+04    0.13182E-02   -0.48993E-03  2352   0.142E-01    0.842E-02
DAV:   6    -0.136242650796E+04   -0.13161E-03   -0.30422E-03  2464   0.102E-01    0.653E-02
DAV:   7    -0.136242651868E+04   -0.10717E-04   -0.10953E-03  2472   0.623E-02    0.480E-02
DAV:   8    -0.136242651303E+04    0.56472E-05   -0.38639E-04  2600   0.380E-02    0.262E-02
DAV:   9    -0.136242650949E+04    0.35442E-05   -0.87727E-05  2416   0.200E-02    0.186E-02
DAV:  10    -0.136242651098E+04   -0.14964E-05   -0.45034E-05  2456   0.126E-02    0.112E-02
DAV:  11    -0.136242651069E+04    0.29069E-06   -0.13939E-05  2000   0.874E-03    0.557E-03
DAV:  12    -0.136242651113E+04   -0.43857E-06   -0.81046E-06  1648   0.617E-03
  13 F= -.13624265E+04 E0= -.13624265E+04  d E =-.397241E+00
 BRION: g(F)=  0.206E+00 g(S)=  0.000E+00 retain N=  3 mean eig= 3.92
 eig:   4.942  4.942  1.879
 bond charge predicted
       N       E                     dE             d eps       ncg     rms          rms(c)
DAV:   1    -0.136268942576E+04   -0.26292E+00   -0.22718E+01  1384   0.684E+00    0.804E-01
DAV:   2    -0.136280982802E+04   -0.12040E+00   -0.12764E+00  2296   0.275E+00    0.408E-01
DAV:   3    -0.136281712072E+04   -0.72927E-02   -0.10133E-01  2560   0.535E-01    0.323E-01
DAV:   4    -0.136281566581E+04    0.14549E-02   -0.10412E-02  2576   0.239E-01    0.223E-01
DAV:   5    -0.136281449018E+04    0.11756E-02   -0.50191E-03  2368   0.141E-01    0.852E-02
DAV:   6    -0.136281463291E+04   -0.14273E-03   -0.27132E-03  2496   0.958E-02    0.663E-02
DAV:   7    -0.136281463138E+04    0.15297E-05   -0.10111E-03  2488   0.608E-02    0.459E-02
DAV:   8    -0.136281462827E+04    0.31034E-05   -0.40060E-04  2592   0.386E-02    0.265E-02
DAV:   9    -0.136281462598E+04    0.22904E-05   -0.76885E-05  2496   0.194E-02    0.194E-02
DAV:  10    -0.136281462635E+04   -0.36754E-06   -0.41411E-05  2544   0.119E-02    0.974E-03
DAV:  11    -0.136281462662E+04   -0.27014E-06   -0.98446E-06  1752   0.784E-03
  14 F= -.13628146E+04 E0= -.13628146E+04  d E =-.388115E+00
 BRION: g(F)=  0.197E+00 g(S)=  0.000E+00 retain N=  3 mean eig= 3.81
 eig:   4.903  4.903  1.631
 bond charge predicted
       N       E                     dE             d eps       ncg     rms          rms(c)
DAV:   1    -0.136310280216E+04   -0.28818E+00   -0.43659E+01  1376   0.939E+00    0.109E+00
DAV:   2    -0.136333239735E+04   -0.22960E+00   -0.24299E+00  2288   0.374E+00    0.550E-01
DAV:   3    -0.136334622183E+04   -0.13824E-01   -0.19369E-01  2560   0.743E-01    0.436E-01
DAV:   4    -0.136334354331E+04    0.26785E-02   -0.19509E-02  2584   0.327E-01    0.305E-01
DAV:   5    -0.136334109248E+04    0.24508E-02   -0.84270E-03  2360   0.191E-01    0.125E-01
DAV:   6    -0.136334120095E+04   -0.10847E-03   -0.56885E-03  2432   0.140E-01    0.845E-02
DAV:   7    -0.136334125570E+04   -0.54753E-04   -0.23295E-03  2440   0.902E-02    0.670E-02
DAV:   8    -0.136334124614E+04    0.95659E-05   -0.75562E-04  2624   0.539E-02    0.393E-02
DAV:   9    -0.136334123752E+04    0.86126E-05   -0.20861E-04  2528   0.295E-02    0.255E-02
DAV:  10    -0.136334124135E+04   -0.38322E-05   -0.93556E-05  2544   0.183E-02    0.167E-02
DAV:  11    -0.136334124087E+04    0.48170E-06   -0.35256E-05  2416   0.128E-02    0.859E-03
DAV:  12    -0.136334124114E+04   -0.27049E-06   -0.15801E-05  2024   0.891E-03    0.758E-03
DAV:  13    -0.136334124077E+04    0.36860E-06   -0.83295E-06  1632   0.590E-03
  15 F= -.13633412E+04 E0= -.13633412E+04  d E =-.526614E+00
 BRION: g(F)=  0.180E+00 g(S)=  0.000E+00 retain N=  3 mean eig= 4.45
 eig:   5.875  5.875  1.589
 bond charge predicted
       N       E                     dE             d eps       ncg     rms          rms(c)
DAV:   1    -0.136357190815E+04   -0.23067E+00   -0.63768E+01  1376   0.114E+01    0.132E+00
DAV:   2    -0.136391029434E+04   -0.33839E+00   -0.35850E+00  2296   0.457E+00    0.677E-01
DAV:   3    -0.136393049789E+04   -0.20204E-01   -0.28625E-01  2584   0.896E-01    0.533E-01
DAV:   4    -0.136392620099E+04    0.42969E-02   -0.28599E-02  2592   0.402E-01    0.369E-01
DAV:   5    -0.136392271246E+04    0.34885E-02   -0.12219E-02  2408   0.222E-01    0.154E-01
DAV:   6    -0.136392277950E+04   -0.67032E-04   -0.76609E-03  2408   0.162E-01    0.963E-02
DAV:   7    -0.136392288200E+04   -0.10251E-03   -0.33948E-03  2440   0.108E-01    0.790E-02
DAV:   8    -0.136392286536E+04    0.16645E-04   -0.10519E-03  2624   0.649E-02    0.492E-02
DAV:   9    -0.136392285296E+04    0.12394E-04   -0.32412E-04  2568   0.360E-02    0.309E-02
DAV:  10    -0.136392285766E+04   -0.46938E-05   -0.12706E-04  2576   0.215E-02    0.202E-02
DAV:  11    -0.136392285723E+04    0.42458E-06   -0.45776E-05  2496   0.142E-02    0.107E-02
DAV:  12    -0.136392285721E+04    0.21959E-07   -0.24959E-05  2288   0.105E-02    0.853E-03
DAV:  13    -0.136392285684E+04    0.36840E-06   -0.10916E-05  1760   0.674E-03    0.501E-03
DAV:  14    -0.136392285678E+04    0.68030E-07   -0.50741E-06  1392   0.543E-03
  16 F= -.13639229E+04 E0= -.13639229E+04  d E =-.581616E+00
 BRION: g(F)=  0.154E+00 g(S)=  0.000E+00 retain N=  3 mean eig= 5.41
 eig:   7.259  7.259  1.714
 bond charge predicted
       N       E                     dE             d eps       ncg     rms          rms(c)
DAV:   1    -0.136411346068E+04   -0.19060E+00   -0.42063E+01  1376   0.933E+00    0.110E+00
DAV:   2    -0.136433360978E+04   -0.22015E+00   -0.23397E+00  2288   0.367E+00    0.562E-01
DAV:   3    -0.136434700472E+04   -0.13395E-01   -0.19090E-01  2568   0.744E-01    0.443E-01
DAV:   4    -0.136434418958E+04    0.28151E-02   -0.19873E-02  2584   0.331E-01    0.308E-01
DAV:   5    -0.136434182522E+04    0.23644E-02   -0.91747E-03  2368   0.194E-01    0.127E-01
DAV:   6    -0.136434195356E+04   -0.12834E-03   -0.53756E-03  2448   0.138E-01    0.905E-02
DAV:   7    -0.136434197693E+04   -0.23378E-04   -0.22710E-03  2432   0.901E-02    0.660E-02
DAV:   8    -0.136434197250E+04    0.44322E-05   -0.85867E-04  2616   0.567E-02    0.417E-02
DAV:   9    -0.136434196322E+04    0.92788E-05   -0.19429E-04  2536   0.296E-02    0.279E-02
DAV:  10    -0.136434196409E+04   -0.87102E-06   -0.98341E-05  2568   0.182E-02    0.158E-02
DAV:  11    -0.136434196473E+04   -0.63170E-06   -0.32899E-05  2432   0.125E-02    0.874E-03
DAV:  12    -0.136434196460E+04    0.13018E-06   -0.13381E-05  1904   0.866E-03    0.716E-03
DAV:  13    -0.136434196439E+04    0.21093E-06   -0.86004E-06  1664   0.592E-03
  17 F= -.13643420E+04 E0= -.13643420E+04  d E =-.419108E+00
 BRION: g(F)=  0.132E+00 g(S)=  0.000E+00 retain N=  2 mean eig= 4.17
 eig:   4.170  4.170
 bond charge predicted
       N       E                     dE             d eps       ncg     rms          rms(c)
DAV:   1    -0.136449917214E+04   -0.15721E+00   -0.32125E+01  1376   0.806E+00    0.944E-01
DAV:   2    -0.136466391950E+04   -0.16475E+00   -0.17486E+00  2296   0.316E+00    0.481E-01
DAV:   3    -0.136467366374E+04   -0.97442E-02   -0.14234E-01  2584   0.631E-01    0.384E-01
DAV:   4    -0.136467137630E+04    0.22874E-02   -0.14272E-02  2584   0.283E-01    0.266E-01
DAV:   5    -0.136466935829E+04    0.20180E-02   -0.69719E-03  2368   0.167E-01    0.108E-01
DAV:   6    -0.136466944405E+04   -0.85752E-04   -0.44653E-03  2416   0.124E-01    0.815E-02
DAV:   7    -0.136466945559E+04   -0.11544E-04   -0.18566E-03  2408   0.810E-02    0.606E-02
DAV:   8    -0.136466944914E+04    0.64508E-05   -0.71257E-04  2600   0.503E-02    0.355E-02
DAV:   9    -0.136466944287E+04    0.62649E-05   -0.15996E-04  2528   0.266E-02    0.249E-02
DAV:  10    -0.136466944389E+04   -0.10186E-05   -0.69647E-05  2544   0.155E-02    0.159E-02
DAV:  11    -0.136466944343E+04    0.46132E-06   -0.29894E-05  2328   0.113E-02    0.822E-03
DAV:  12    -0.136466944349E+04   -0.56272E-07   -0.11529E-05  1776   0.805E-03    0.715E-03
DAV:  13    -0.136466944319E+04    0.29584E-06   -0.77818E-06  1568   0.572E-03
  18 F= -.13646694E+04 E0= -.13646694E+04  d E =-.327479E+00
 BRION: g(F)=  0.114E+00 g(S)=  0.000E+00 retain N=  2 mean eig= 3.80
 eig:   3.799  3.799
 bond charge predicted
       N       E                     dE             d eps       ncg     rms          rms(c)
DAV:   1    -0.136478743093E+04   -0.11799E+00   -0.30242E+01  1360   0.789E+00    0.922E-01
DAV:   2    -0.136494283055E+04   -0.15540E+00   -0.16475E+00  2296   0.307E+00    0.478E-01
DAV:   3    -0.136495184516E+04   -0.90146E-02   -0.13271E-01  2584   0.612E-01    0.378E-01
DAV:   4    -0.136494955560E+04    0.22896E-02   -0.13579E-02  2592   0.273E-01    0.262E-01
DAV:   5    -0.136494759506E+04    0.19605E-02   -0.68600E-03  2344   0.166E-01    0.104E-01
DAV:   6    -0.136494772668E+04   -0.13162E-03   -0.43696E-03  2424   0.122E-01    0.822E-02
DAV:   7    -0.136494772321E+04    0.34771E-05   -0.16904E-03  2400   0.777E-02    0.594E-02
DAV:   8    -0.136494771492E+04    0.82844E-05   -0.66788E-04  2624   0.482E-02    0.339E-02
DAV:   9    -0.136494770907E+04    0.58473E-05   -0.13390E-04  2528   0.250E-02    0.236E-02
DAV:  10    -0.136494770940E+04   -0.32401E-06   -0.69793E-05  2544   0.152E-02    0.140E-02
DAV:  11    -0.136494770944E+04   -0.42593E-07   -0.24343E-05  2288   0.109E-02    0.755E-03
DAV:  12    -0.136494770947E+04   -0.33484E-07   -0.10625E-05  1784   0.751E-03    0.664E-03
DAV:  13    -0.136494770896E+04    0.51023E-06   -0.38984E-06  1216   0.523E-03
  19 F= -.13649477E+04 E0= -.13649477E+04  d E =-.278266E+00
 BRION: g(F)=  0.101E+00 g(S)=  0.000E+00 retain N=  3 mean eig= 4.90
 eig:   6.454  6.454  1.793
 bond charge predicted
       N       E                     dE             d eps       ncg     rms          rms(c)
DAV:   1    -0.136501276016E+04   -0.65051E-01   -0.44118E+01  1368   0.940E+00    0.107E+00
DAV:   2    -0.136523797824E+04   -0.22522E+00   -0.23814E+00  2288   0.365E+00    0.560E-01
DAV:   3    -0.136525114817E+04   -0.13170E-01   -0.19268E-01  2584   0.738E-01    0.447E-01
DAV:   4    -0.136524819893E+04    0.29492E-02   -0.19051E-02  2576   0.322E-01    0.315E-01
DAV:   5    -0.136524536111E+04    0.28378E-02   -0.85600E-03  2384   0.186E-01    0.135E-01
DAV:   6    -0.136524530894E+04    0.52162E-04   -0.60383E-03  2368   0.143E-01    0.856E-02
DAV:   7    -0.136524537760E+04   -0.68652E-04   -0.26613E-03  2424   0.959E-02    0.717E-02
DAV:   8    -0.136524536106E+04    0.16532E-04   -0.86082E-04  2616   0.571E-02    0.452E-02
DAV:   9    -0.136524534855E+04    0.12512E-04   -0.26443E-04  2576   0.319E-02    0.273E-02
DAV:  10    -0.136524535270E+04   -0.41503E-05   -0.89808E-05  2576   0.183E-02    0.188E-02
DAV:  11    -0.136524535184E+04    0.85926E-06   -0.33373E-05  2440   0.122E-02    0.106E-02
DAV:  12    -0.136524535177E+04    0.73167E-07   -0.23150E-05  2192   0.964E-03    0.880E-03
DAV:  13    -0.136524535120E+04    0.56448E-06   -0.98934E-06  1760   0.651E-03
  20 F= -.13652454E+04 E0= -.13652454E+04  d E =-.297642E+00
 BRION: g(F)=  0.857E-01 g(S)=  0.000E+00 retain N=  3 mean eig= 5.41
 eig:   7.190  7.190  1.853
