 running on  160 total cores
 distrk:  each k-point on  160 cores,    1 groups
 distr:  one band on   20 cores,    8 groups
 using from now: INCAR     
 vasp.5.4.4.18Apr17-6-g9f103f2a35 (build May 01 2020 14:22:42) gamma-only       
  
 POSCAR found type information on POSCAR  O  La Zr Li Al
 POSCAR found :  5 types and     190 ions
 scaLAPACK will be used
 LDA part: xc-table for Pade appr. of Perdew
 POSCAR, INCAR and KPOINTS ok, starting setup
 FFT: planning ...
 WAVECAR not read
 WARNING: random wavefunctions but no delay for mixing, default for NELMDL
 entering main loop
       N       E                     dE             d eps       ncg     rms          rms(c)
DAV:   1     0.253195791916E+05    0.25320E+05   -0.42249E+05  1600   0.253E+03
DAV:   2     0.940750196127E+04   -0.15912E+05   -0.14732E+05  1440   0.707E+02
DAV:   3     0.266663799203E+04   -0.67409E+04   -0.61464E+04  1528   0.355E+02
DAV:   4    -0.392676346309E+03   -0.30593E+04   -0.28608E+04  2064   0.222E+02
DAV:   5    -0.142954819928E+04   -0.10369E+04   -0.99790E+03  2528   0.139E+02    0.116E+02
DAV:   6    -0.130878186820E+04    0.12077E+03   -0.14011E+03  2424   0.649E+01    0.504E+01
DAV:   7    -0.133162756205E+04   -0.22846E+02   -0.37926E+02  2560   0.331E+01    0.244E+01
DAV:   8    -0.134160641371E+04   -0.99789E+01   -0.25945E+02  2536   0.263E+01    0.266E+01
DAV:   9    -0.133340827303E+04    0.81981E+01   -0.60101E+01  2456   0.151E+01    0.761E+00
DAV:  10    -0.133456976441E+04   -0.11615E+01   -0.15443E+01  2608   0.839E+00    0.800E+00
DAV:  11    -0.133471166663E+04   -0.14190E+00   -0.71182E+00  2616   0.451E+00    0.421E+00
DAV:  12    -0.133454185353E+04    0.16981E+00   -0.27077E+00  2552   0.370E+00    0.286E+00
DAV:  13    -0.133462274130E+04   -0.80888E-01   -0.89679E-01  2552   0.180E+00    0.213E+00
DAV:  14    -0.133459762982E+04    0.25111E-01   -0.33344E-01  2600   0.117E+00    0.113E+00
DAV:  15    -0.133460659930E+04   -0.89695E-02   -0.10060E-01  2552   0.629E-01    0.102E+00
DAV:  16    -0.133460676755E+04   -0.16825E-03   -0.31953E-02  2624   0.341E-01    0.655E-01
DAV:  17    -0.133460318660E+04    0.35810E-02   -0.28016E-02  2408   0.322E-01    0.278E-01
DAV:  18    -0.133460360369E+04   -0.41709E-03   -0.64163E-03  2440   0.173E-01    0.140E-01
DAV:  19    -0.133460359174E+04    0.11949E-04   -0.20462E-03  2584   0.901E-02    0.893E-02
DAV:  20    -0.133460363740E+04   -0.45662E-04   -0.53905E-04  2624   0.470E-02    0.242E-02
DAV:  21    -0.133460364483E+04   -0.74272E-05   -0.15849E-04  2624   0.254E-02    0.304E-02
DAV:  22    -0.133460366360E+04   -0.18766E-04   -0.73843E-05  2496   0.176E-02    0.133E-02
DAV:  23    -0.133460365804E+04    0.55596E-05   -0.34397E-05  2304   0.115E-02    0.964E-03
DAV:  24    -0.133460366240E+04   -0.43624E-05   -0.84746E-06  1160   0.734E-03    0.133E-03
DAV:  25    -0.133460366182E+04    0.57904E-06   -0.32120E-06  1016   0.457E-03
   1 F= -.13346037E+04 E0= -.13346037E+04  d E =-.133460E+04
 BRION: g(F)=  0.490E+02 g(S)=  0.000E+00
 bond charge predicted
       N       E                     dE             d eps       ncg     rms          rms(c)
DAV:   1    -0.131475883109E+04    0.19845E+02   -0.53531E+03  1712   0.112E+02    0.210E+01
DAV:   2    -0.135198931092E+04   -0.37230E+02   -0.43580E+02  2576   0.496E+01    0.120E+01
DAV:   3    -0.135111493590E+04    0.87438E+00   -0.27649E+01  2624   0.134E+01    0.833E+00
DAV:   4    -0.134969693759E+04    0.14180E+01   -0.77756E+00  2544   0.576E+00    0.425E+00
DAV:   5    -0.134935009210E+04    0.34685E+00   -0.21605E+00  2512   0.364E+00    0.257E+00
DAV:   6    -0.134927388198E+04    0.76210E-01   -0.21886E+00  2528   0.298E+00    0.123E+00
DAV:   7    -0.134930570772E+04   -0.31826E-01   -0.62970E-01  2432   0.166E+00    0.127E+00
DAV:   8    -0.134929760021E+04    0.81075E-02   -0.16478E-01  2600   0.707E-01    0.673E-01
DAV:   9    -0.134929511890E+04    0.24813E-02   -0.54230E-02  2616   0.452E-01    0.302E-01
DAV:  10    -0.134929403855E+04    0.10804E-02   -0.11507E-02  2416   0.292E-01    0.165E-01
DAV:  11    -0.134929467400E+04   -0.63546E-03   -0.13072E-02  2576   0.202E-01    0.136E-01
DAV:  12    -0.134929462193E+04    0.52070E-04   -0.20263E-03  2600   0.982E-02    0.722E-02
DAV:  13    -0.134929464305E+04   -0.21115E-04   -0.97573E-04  2472   0.526E-02    0.295E-02
DAV:  14    -0.134929465366E+04   -0.10616E-04   -0.21140E-04  2624   0.294E-02    0.179E-02
DAV:  15    -0.134929465389E+04   -0.22593E-06   -0.65455E-05  2624   0.178E-02    0.132E-02
DAV:  16    -0.134929465540E+04   -0.15100E-05   -0.36404E-05  2608   0.111E-02    0.775E-03
DAV:  17    -0.134929465442E+04    0.97783E-06   -0.25722E-06  1144   0.615E-03
   2 F= -.13492947E+04 E0= -.13492947E+04  d E =-.146910E+02
 BRION: g(F)=  0.111E+03 g(S)=  0.000E+00 retain N=  1 mean eig= 0.35
 eig:   0.353
 bond charge predicted
       N       E                     dE             d eps       ncg     rms          rms(c)
DAV:   1    -0.133888019283E+04    0.10414E+02   -0.15820E+03  1336   0.447E+01    0.179E+01
DAV:   2    -0.135954767986E+04   -0.20667E+02   -0.27936E+02  2536   0.249E+01    0.163E+01
DAV:   3    -0.135642601953E+04    0.31217E+01   -0.31264E+01  2424   0.973E+00    0.109E+01
DAV:   4    -0.135432941637E+04    0.20966E+01   -0.18978E+01  2200   0.482E+00    0.339E+00
DAV:   5    -0.135459231271E+04   -0.26290E+00   -0.38895E+00  2480   0.338E+00    0.366E+00
DAV:   6    -0.135438638471E+04    0.20593E+00   -0.26791E+00  2496   0.223E+00    0.120E+00
DAV:   7    -0.135440728629E+04   -0.20902E-01   -0.42813E-01  2456   0.140E+00    0.130E+00
DAV:   8    -0.135438284315E+04    0.24443E-01   -0.27210E-01  2472   0.821E-01    0.421E-01
DAV:   9    -0.135438470605E+04   -0.18629E-02   -0.48720E-02  2472   0.471E-01    0.212E-01
DAV:  10    -0.135438560811E+04   -0.90207E-03   -0.14402E-02  2584   0.210E-01    0.192E-01
DAV:  11    -0.135438531441E+04    0.29370E-03   -0.34901E-03  2624   0.128E-01    0.119E-01
DAV:  12    -0.135438524123E+04    0.73186E-04   -0.28725E-03  2440   0.830E-02    0.417E-02
DAV:  13    -0.135438531127E+04   -0.70040E-04   -0.51827E-04  2568   0.476E-02    0.508E-02
DAV:  14    -0.135438527900E+04    0.32264E-04   -0.88969E-05  2544   0.227E-02    0.356E-02
DAV:  15    -0.135438526874E+04    0.10258E-04   -0.22775E-04  2288   0.228E-02    0.715E-03
DAV:  16    -0.135438527080E+04   -0.20546E-05   -0.30625E-05  2280   0.127E-02    0.281E-03
DAV:  17    -0.135438527103E+04   -0.22895E-06   -0.17423E-06  1048   0.475E-03
   3 F= -.13543853E+04 E0= -.13543853E+04  d E =-.509062E+01
 BRION: g(F)=  0.252E+02 g(S)=  0.000E+00 retain N=  2 mean eig= 1.28
 eig:   0.169  2.400
 bond charge predicted
       N       E                     dE             d eps       ncg     rms          rms(c)
DAV:   1    -0.135212591395E+04    0.22594E+01   -0.71855E+02  1376   0.297E+01    0.907E+00
DAV:   2    -0.135800334000E+04   -0.58774E+01   -0.72623E+01  2440   0.159E+01    0.607E+00
DAV:   3    -0.135759790539E+04    0.40543E+00   -0.53249E+00  2368   0.540E+00    0.477E+00
DAV:   4    -0.135729376794E+04    0.30414E+00   -0.45980E+00  2144   0.294E+00    0.198E+00
DAV:   5    -0.135733245748E+04   -0.38690E-01   -0.86121E-01  2392   0.180E+00    0.241E+00
DAV:   6    -0.135723448502E+04    0.97972E-01   -0.51243E-01  2376   0.135E+00    0.102E+00
DAV:   7    -0.135724018741E+04   -0.57024E-02   -0.42234E-01  2408   0.979E-01    0.764E-01
DAV:   8    -0.135723960713E+04    0.58028E-03   -0.70865E-02  2480   0.503E-01    0.655E-01
DAV:   9    -0.135723339999E+04    0.62071E-02   -0.22726E-02  2424   0.262E-01    0.310E-01
DAV:  10    -0.135723328361E+04    0.11638E-03   -0.23435E-02  2464   0.217E-01    0.118E-01
DAV:  11    -0.135723315280E+04    0.13081E-03   -0.29548E-03  2472   0.112E-01    0.528E-02
DAV:  12    -0.135723320683E+04   -0.54032E-04   -0.72929E-04  2368   0.520E-02    0.254E-02
DAV:  13    -0.135723321920E+04   -0.12367E-04   -0.13547E-04  2592   0.216E-02    0.205E-02
DAV:  14    -0.135723321829E+04    0.91059E-06   -0.52131E-05  2584   0.151E-02    0.112E-02
DAV:  15    -0.135723321895E+04   -0.66141E-06   -0.21935E-05  2216   0.915E-03    0.675E-03
DAV:  16    -0.135723321851E+04    0.44149E-06   -0.54693E-06  1488   0.546E-03
   4 F= -.13572332E+04 E0= -.13572332E+04  d E =-.284795E+01
 BRION: g(F)=  0.611E+01 g(S)=  0.000E+00 retain N=  2 mean eig= 0.29
 eig:   0.289  0.289
 bond charge predicted
       N       E                     dE             d eps       ncg     rms          rms(c)
DAV:   1    -0.135881607490E+04   -0.15829E+01   -0.21613E+02  1376   0.204E+01    0.384E+00
DAV:   2    -0.135995093072E+04   -0.11349E+01   -0.12303E+01  2296   0.757E+00    0.185E+00
DAV:   3    -0.135997320174E+04   -0.22271E-01   -0.92968E-01  2616   0.172E+00    0.161E+00
DAV:   4    -0.135993617984E+04    0.37022E-01   -0.23598E-01  2592   0.945E-01    0.794E-01
DAV:   5    -0.135993025150E+04    0.59283E-02   -0.70791E-02  2392   0.555E-01    0.461E-01
DAV:   6    -0.135993035258E+04   -0.10108E-03   -0.44206E-02  2592   0.386E-01    0.298E-01
DAV:   7    -0.135992973155E+04    0.62102E-03   -0.16262E-02  2320   0.223E-01    0.206E-01
DAV:   8    -0.135992972430E+04    0.72562E-05   -0.57804E-03  2408   0.130E-01    0.114E-01
DAV:   9    -0.135992959490E+04    0.12940E-03   -0.13817E-03  2464   0.716E-02    0.681E-02
DAV:  10    -0.135992967473E+04   -0.79829E-04   -0.16819E-03  2304   0.640E-02    0.779E-02
DAV:  11    -0.135992959946E+04    0.75264E-04   -0.51204E-04  2504   0.446E-02    0.324E-02
DAV:  12    -0.135992960690E+04   -0.74355E-05   -0.23542E-04  2472   0.262E-02    0.186E-02
DAV:  13    -0.135992960579E+04    0.11107E-05   -0.50321E-05  2456   0.144E-02    0.862E-03
DAV:  14    -0.135992960612E+04   -0.33434E-06   -0.86210E-06  1600   0.692E-03
   5 F= -.13599296E+04 E0= -.13599296E+04  d E =-.269639E+01
 BRION: g(F)=  0.283E+01 g(S)=  0.000E+00 retain N=  3 mean eig= 0.37
 eig:   0.226  0.226  0.651
 bond charge predicted
       N       E                     dE             d eps       ncg     rms          rms(c)
DAV:   1    -0.136062869609E+04   -0.69909E+00   -0.16303E+02  1376   0.169E+01    0.268E+00
DAV:   2    -0.136140650665E+04   -0.77781E+00   -0.82581E+00  2296   0.625E+00    0.137E+00
DAV:   3    -0.136141907928E+04   -0.12573E-01   -0.53113E-01  2616   0.127E+00    0.115E+00
DAV:   4    -0.136139172625E+04    0.27353E-01   -0.12764E-01  2528   0.714E-01    0.582E-01
DAV:   5    -0.136138664797E+04    0.50783E-02   -0.54042E-02  2488   0.458E-01    0.364E-01
DAV:   6    -0.136138644812E+04    0.19985E-03   -0.27454E-02  2584   0.314E-01    0.211E-01
DAV:   7    -0.136138617343E+04    0.27468E-03   -0.89889E-03  2432   0.178E-01    0.145E-01
DAV:   8    -0.136138616779E+04    0.56480E-05   -0.31329E-03  2384   0.959E-02    0.742E-02
DAV:   9    -0.136138611069E+04    0.57092E-04   -0.89215E-04  2544   0.545E-02    0.449E-02
DAV:  10    -0.136138614639E+04   -0.35700E-04   -0.53684E-04  2440   0.403E-02    0.493E-02
DAV:  11    -0.136138610825E+04    0.38145E-04   -0.22842E-04  2520   0.307E-02    0.174E-02
DAV:  12    -0.136138611456E+04   -0.63120E-05   -0.12557E-04  2416   0.199E-02    0.118E-02
DAV:  13    -0.136138611420E+04    0.36109E-06   -0.18738E-05  1968   0.976E-03    0.746E-03
DAV:  14    -0.136138611407E+04    0.13252E-06   -0.85344E-06  1664   0.577E-03
   6 F= -.13613861E+04 E0= -.13613861E+04  d E =-.145651E+01
 BRION: g(F)=  0.188E+01 g(S)=  0.000E+00 retain N=  4 mean eig= 0.46
 eig:   0.251  0.053  0.759  0.759
 bond charge predicted
       N       E                     dE             d eps       ncg     rms          rms(c)
DAV:   1    -0.136110802179E+04    0.27809E+00   -0.39730E+02  1352   0.272E+01    0.387E+00
DAV:   2    -0.136319189100E+04   -0.20839E+01   -0.21826E+01  2296   0.101E+01    0.208E+00
DAV:   3    -0.136324096864E+04   -0.49078E-01   -0.14397E+00  2576   0.211E+00    0.178E+00
DAV:   4    -0.136319132983E+04    0.49639E-01   -0.25285E-01  2552   0.102E+00    0.107E+00
DAV:   5    -0.136316145200E+04    0.29878E-01   -0.11888E-01  2432   0.657E-01    0.459E-01
DAV:   6    -0.136316390681E+04   -0.24548E-02   -0.78738E-02  2480   0.512E-01    0.452E-01
DAV:   7    -0.136316171183E+04    0.21950E-02   -0.26997E-02  2464   0.320E-01    0.296E-01
DAV:   8    -0.136316149024E+04    0.22158E-03   -0.14685E-02  2432   0.193E-01    0.123E-01
DAV:   9    -0.136316140633E+04    0.83917E-04   -0.22927E-03  2416   0.913E-02    0.853E-02
DAV:  10    -0.136316142034E+04   -0.14011E-04   -0.87730E-04  2480   0.527E-02    0.545E-02
DAV:  11    -0.136316140046E+04    0.19872E-04   -0.32885E-04  2544   0.396E-02    0.252E-02
DAV:  12    -0.136316140639E+04   -0.59263E-05   -0.18843E-04  2480   0.265E-02    0.224E-02
DAV:  13    -0.136316140376E+04    0.26267E-05   -0.93241E-05  2400   0.171E-02    0.118E-02
DAV:  14    -0.136316140352E+04    0.24520E-06   -0.20750E-05  2120   0.941E-03    0.736E-03
DAV:  15    -0.136316140359E+04   -0.68772E-07   -0.10464E-05  1592   0.632E-03    0.461E-03
DAV:  16    -0.136316140332E+04    0.26746E-06   -0.15070E-06  1040   0.485E-03
   7 F= -.13631614E+04 E0= -.13631614E+04  d E =-.177529E+01
 BRION: g(F)=  0.217E+01 g(S)=  0.000E+00 retain N=  5 mean eig= 0.74
 eig:   1.882  0.618  0.193  0.492  0.492
 bond charge predicted
       N       E                     dE             d eps       ncg     rms          rms(c)
DAV:   1    -0.136362406081E+04   -0.46266E+00   -0.59016E+01  1392   0.106E+01    0.161E+00
DAV:   2    -0.136391512526E+04   -0.29106E+00   -0.31401E+00  2280   0.398E+00    0.837E-01
DAV:   3    -0.136392592571E+04   -0.10800E-01   -0.24972E-01  2608   0.864E-01    0.657E-01
DAV:   4    -0.136391839175E+04    0.75340E-02   -0.36408E-02  2568   0.413E-01    0.372E-01
DAV:   5    -0.136391583703E+04    0.25547E-02   -0.17279E-02  2320   0.253E-01    0.165E-01
DAV:   6    -0.136391612649E+04   -0.28946E-03   -0.78768E-03  2536   0.170E-01    0.126E-01
DAV:   7    -0.136391609574E+04    0.30755E-04   -0.27490E-03  2424   0.952E-02    0.899E-02
DAV:   8    -0.136391605062E+04    0.45111E-04   -0.97053E-04  2520   0.565E-02    0.473E-02
DAV:   9    -0.136391603904E+04    0.11583E-04   -0.19400E-04  2544   0.305E-02    0.317E-02
DAV:  10    -0.136391604917E+04   -0.10127E-04   -0.26145E-04  2296   0.269E-02    0.302E-02
DAV:  11    -0.136391603692E+04    0.12253E-04   -0.83775E-05  2392   0.196E-02    0.125E-02
DAV:  12    -0.136391603902E+04   -0.21045E-05   -0.49118E-05  2264   0.117E-02    0.891E-03
DAV:  13    -0.136391603799E+04    0.10285E-05   -0.39084E-06  1248   0.623E-03    0.552E-03
DAV:  14    -0.136391603876E+04   -0.76518E-06   -0.15544E-05  1584   0.688E-03    0.412E-03
DAV:  15    -0.136391603857E+04    0.19155E-06   -0.12156E-06  1016   0.443E-03
   8 F= -.13639160E+04 E0= -.13639160E+04  d E =-.754635E+00
 BRION: g(F)=  0.504E+00 g(S)=  0.000E+00 retain N=  6 mean eig= 2.19
 eig:   5.532  5.532  0.722  0.175  0.574  0.574
 bond charge predicted
       N       E                     dE             d eps       ncg     rms          rms(c)
DAV:   1    -0.136403256082E+04   -0.11652E+00   -0.13525E+02  1376   0.165E+01    0.202E+00
DAV:   2    -0.136471936524E+04   -0.68680E+00   -0.72271E+00  2296   0.633E+00    0.106E+00
DAV:   3    -0.136475319676E+04   -0.33832E-01   -0.54512E-01  2576   0.126E+00    0.844E-01
DAV:   4    -0.136474162875E+04    0.11568E-01   -0.68143E-02  2560   0.588E-01    0.523E-01
DAV:   5    -0.136473627532E+04    0.53534E-02   -0.26924E-02  2472   0.331E-01    0.221E-01
DAV:   6    -0.136473661928E+04   -0.34396E-03   -0.13870E-02  2408   0.230E-01    0.136E-01
DAV:   7    -0.136473678052E+04   -0.16124E-03   -0.59004E-03  2400   0.150E-01    0.111E-01
DAV:   8    -0.136473677678E+04    0.37397E-05   -0.21087E-03  2560   0.820E-02    0.635E-02
DAV:   9    -0.136473676535E+04    0.11435E-04   -0.50436E-04  2592   0.468E-02    0.452E-02
DAV:  10    -0.136473677086E+04   -0.55147E-05   -0.30429E-04  2608   0.317E-02    0.318E-02
DAV:  11    -0.136473676328E+04    0.75788E-05   -0.14191E-04  2464   0.235E-02    0.120E-02
DAV:  12    -0.136473676505E+04   -0.17632E-05   -0.37719E-05  2256   0.137E-02    0.996E-03
DAV:  13    -0.136473676456E+04    0.48318E-06   -0.15662E-05  1840   0.763E-03    0.483E-03
DAV:  14    -0.136473676447E+04    0.91197E-07   -0.28166E-06  1064   0.554E-03
   9 F= -.13647368E+04 E0= -.13647368E+04  d E =-.820726E+00
 BRION: g(F)=  0.613E+00 g(S)=  0.000E+00 retain N=  5 mean eig= 2.22
 eig:   7.719  1.049  1.049  0.445  0.844
 bond charge predicted
       N       E                     dE             d eps       ncg     rms          rms(c)
DAV:   1    -0.136441144589E+04    0.32532E+00   -0.38490E+01  1344   0.796E+00    0.122E+00
DAV:   2    -0.136458835864E+04   -0.17691E+00   -0.18925E+00  2232   0.302E+00    0.625E-01
DAV:   3    -0.136459191051E+04   -0.35519E-02   -0.13092E-01  2624   0.654E-01    0.474E-01
DAV:   4    -0.136458622815E+04    0.56824E-02   -0.18821E-02  2464   0.284E-01    0.265E-01
DAV:   5    -0.136458435794E+04    0.18702E-02   -0.12248E-02  2200   0.195E-01    0.130E-01
DAV:   6    -0.136458447953E+04   -0.12159E-03   -0.50753E-03  2424   0.125E-01    0.960E-02
DAV:   7    -0.136458447220E+04    0.73288E-05   -0.13364E-03  2504   0.659E-02    0.662E-02
DAV:   8    -0.136458443229E+04    0.39908E-04   -0.33677E-04  2504   0.346E-02    0.359E-02
DAV:   9    -0.136458443193E+04    0.35745E-06   -0.13898E-04  2464   0.218E-02    0.167E-02
DAV:  10    -0.136458443153E+04    0.40238E-06   -0.35989E-05  2344   0.127E-02    0.129E-02
DAV:  11    -0.136458443021E+04    0.13199E-05   -0.23012E-05  1880   0.860E-03    0.556E-03
DAV:  12    -0.136458443015E+04    0.60361E-07   -0.45233E-06  1264   0.538E-03
  10 F= -.13645844E+04 E0= -.13645844E+04  d E =0.152334E+00
 BRION: g(F)=  0.385E+00 g(S)=  0.000E+00 retain N=  4 mean eig= 3.76
 eig:   7.805  5.452  0.885  0.885
 bond charge predicted
       N       E                     dE             d eps       ncg     rms          rms(c)
DAV:   1    -0.136459224427E+04   -0.78141E-02   -0.17920E+02  1384   0.190E+01    0.229E+00
DAV:   2    -0.136549651266E+04   -0.90427E+00   -0.95052E+00  2288   0.727E+00    0.116E+00
DAV:   3    -0.136554443514E+04   -0.47922E-01   -0.72028E-01  2584   0.145E+00    0.929E-01
DAV:   4    -0.136553204214E+04    0.12393E-01   -0.82693E-02  2584   0.649E-01    0.606E-01
DAV:   5    -0.136552443307E+04    0.76091E-02   -0.31549E-02  2464   0.367E-01    0.259E-01
DAV:   6    -0.136552469846E+04   -0.26539E-03   -0.18161E-02  2424   0.257E-01    0.144E-01
DAV:   7    -0.136552498859E+04   -0.29013E-03   -0.70897E-03  2416   0.163E-01    0.121E-01
DAV:   8    -0.136552497715E+04    0.11443E-04   -0.24708E-03  2592   0.918E-02    0.692E-02
DAV:   9    -0.136552496379E+04    0.13352E-04   -0.65726E-04  2608   0.525E-02    0.464E-02
DAV:  10    -0.136552497567E+04   -0.11871E-04   -0.28420E-04  2624   0.322E-02    0.316E-02
DAV:  11    -0.136552496877E+04    0.69005E-05   -0.12123E-04  2528   0.225E-02    0.130E-02
DAV:  12    -0.136552497061E+04   -0.18453E-05   -0.45029E-05  2376   0.142E-02    0.108E-02
DAV:  13    -0.136552497025E+04    0.35715E-06   -0.20236E-05  2208   0.829E-03    0.601E-03
DAV:  14    -0.136552497022E+04    0.31316E-07   -0.56859E-06  1448   0.540E-03
  11 F= -.13655250E+04 E0= -.13655250E+04  d E =-.940540E+00
 BRION: g(F)=  0.281E+00 g(S)=  0.000E+00 retain N=  5 mean eig= 3.34
 eig:   5.290  5.290  4.275  1.076  0.788
 bond charge predicted
       N       E                     dE             d eps       ncg     rms          rms(c)
DAV:   1    -0.136563270548E+04   -0.10774E+00   -0.96254E+01  1392   0.141E+01    0.167E+00
DAV:   2    -0.136613107775E+04   -0.49837E+00   -0.52829E+00  2288   0.557E+00    0.835E-01
DAV:   3    -0.136616132803E+04   -0.30250E-01   -0.42301E-01  2592   0.108E+00    0.665E-01
DAV:   4    -0.136615544169E+04    0.58863E-02   -0.44994E-02  2600   0.496E-01    0.447E-01
DAV:   5    -0.136615149057E+04    0.39511E-02   -0.16760E-02  2448   0.271E-01    0.191E-01
DAV:   6    -0.136615165687E+04   -0.16630E-03   -0.10241E-02  2392   0.202E-01    0.110E-01
DAV:   7    -0.136615187867E+04   -0.22180E-03   -0.52684E-03  2392   0.135E-01    0.998E-02
DAV:   8    -0.136615185209E+04    0.26579E-04   -0.13753E-03  2616   0.729E-02    0.614E-02
DAV:   9    -0.136615183527E+04    0.16820E-04   -0.54484E-04  2576   0.452E-02    0.377E-02
DAV:  10    -0.136615184927E+04   -0.14002E-04   -0.22474E-04  2592   0.292E-02    0.302E-02
DAV:  11    -0.136615184126E+04    0.80139E-05   -0.96618E-05  2488   0.201E-02    0.136E-02
DAV:  12    -0.136615184154E+04   -0.28047E-06   -0.49396E-05  2216   0.142E-02    0.105E-02
DAV:  13    -0.136615184114E+04    0.39804E-06   -0.18440E-05  2088   0.859E-03    0.631E-03
DAV:  14    -0.136615184121E+04   -0.65076E-07   -0.90460E-06  1696   0.578E-03
  12 F= -.13661518E+04 E0= -.13661518E+04  d E =-.626871E+00
 BRION: g(F)=  0.207E+00 g(S)=  0.000E+00 retain N=  5 mean eig= 3.07
 eig:   5.721  5.721  1.947  1.947  0.011
 bond charge predicted
       N       E                     dE             d eps       ncg     rms          rms(c)
DAV:   1    -0.136630727640E+04   -0.15544E+00   -0.46600E+01  1384   0.984E+00    0.115E+00
DAV:   2    -0.136655203815E+04   -0.24476E+00   -0.26031E+00  2312   0.394E+00    0.580E-01
DAV:   3    -0.136656719216E+04   -0.15154E-01   -0.20825E-01  2576   0.756E-01    0.470E-01
DAV:   4    -0.136656471594E+04    0.24762E-02   -0.21047E-02  2600   0.341E-01    0.335E-01
DAV:   5    -0.136656231298E+04    0.24030E-02   -0.91893E-03  2376   0.193E-01    0.142E-01
DAV:   6    -0.136656240119E+04   -0.88210E-04   -0.58498E-03  2384   0.144E-01    0.924E-02
DAV:   7    -0.136656247642E+04   -0.75226E-04   -0.28556E-03  2440   0.989E-02    0.764E-02
DAV:   8    -0.136656245662E+04    0.19797E-04   -0.94877E-04  2608   0.609E-02    0.490E-02
DAV:   9    -0.136656244140E+04    0.15223E-04   -0.27526E-04  2544   0.330E-02    0.303E-02
DAV:  10    -0.136656244657E+04   -0.51745E-05   -0.10715E-04  2576   0.195E-02    0.193E-02
DAV:  11    -0.136656244689E+04   -0.32401E-06   -0.32459E-05  2464   0.127E-02    0.128E-02
DAV:  12    -0.136656244557E+04    0.13278E-05   -0.24636E-05  2184   0.101E-02    0.897E-03
DAV:  13    -0.136656244510E+04    0.46962E-06   -0.11210E-05  1760   0.688E-03    0.460E-03
DAV:  14    -0.136656244490E+04    0.19897E-06   -0.24126E-06  1040   0.478E-03
  13 F= -.13665624E+04 E0= -.13665624E+04  d E =-.410604E+00
 BRION: g(F)=  0.160E+00 g(S)=  0.000E+00 retain N=  4 mean eig= 4.34
 eig:   7.394  7.394  0.231  2.328
 bond charge predicted
       N       E                     dE             d eps       ncg     rms          rms(c)
DAV:   1    -0.136669121301E+04   -0.12877E+00   -0.44200E+01  1384   0.955E+00    0.111E+00
DAV:   2    -0.136692049190E+04   -0.22928E+00   -0.24247E+00  2296   0.380E+00    0.554E-01
DAV:   3    -0.136693426486E+04   -0.13773E-01   -0.19136E-01  2576   0.724E-01    0.451E-01
DAV:   4    -0.136693176556E+04    0.24993E-02   -0.18614E-02  2600   0.321E-01    0.326E-01
DAV:   5    -0.136692899288E+04    0.27727E-02   -0.87786E-03  2344   0.201E-01    0.134E-01
DAV:   6    -0.136692914183E+04   -0.14896E-03   -0.69854E-03  2368   0.160E-01    0.970E-02
DAV:   7    -0.136692919926E+04   -0.57425E-04   -0.29936E-03  2432   0.102E-01    0.801E-02
DAV:   8    -0.136692917376E+04    0.25503E-04   -0.90393E-04  2608   0.592E-02    0.446E-02
DAV:   9    -0.136692915709E+04    0.16664E-04   -0.28350E-04  2488   0.334E-02    0.272E-02
DAV:  10    -0.136692916455E+04   -0.74563E-05   -0.11128E-04  2512   0.202E-02    0.200E-02
DAV:  11    -0.136692916279E+04    0.17560E-05   -0.46776E-05  2416   0.147E-02    0.120E-02
DAV:  12    -0.136692916245E+04    0.34251E-06   -0.23350E-05  2216   0.105E-02    0.104E-02
DAV:  13    -0.136692916156E+04    0.88637E-06   -0.14250E-05  1784   0.720E-03    0.485E-03
DAV:  14    -0.136692916138E+04    0.17900E-06   -0.31422E-06  1152   0.505E-03
  14 F= -.13669292E+04 E0= -.13669292E+04  d E =-.366716E+00
 BRION: g(F)=  0.142E+00 g(S)=  0.000E+00 retain N=  4 mean eig= 3.47
 eig:   4.698  4.698  2.246  2.246
 bond charge predicted
       N       E                     dE             d eps       ncg     rms          rms(c)
DAV:   1    -0.136705952224E+04   -0.13036E+00   -0.19832E+01  1384   0.647E+00    0.754E-01
DAV:   2    -0.136716430531E+04   -0.10478E+00   -0.11206E+00  2304   0.259E+00    0.379E-01
DAV:   3    -0.136717105226E+04   -0.67469E-02   -0.92548E-02  2584   0.510E-01    0.315E-01
DAV:   4    -0.136716999560E+04    0.10567E-02   -0.88818E-03  2600   0.226E-01    0.231E-01
DAV:   5    -0.136716875958E+04    0.12360E-02   -0.46227E-03  2344   0.136E-01    0.995E-02
DAV:   6    -0.136716877540E+04   -0.15823E-04   -0.30819E-03  2320   0.110E-01    0.773E-02
DAV:   7    -0.136716880081E+04   -0.25407E-04   -0.18962E-03  2408   0.782E-02    0.610E-02
DAV:   8    -0.136716878568E+04    0.15132E-04   -0.55736E-04  2528   0.474E-02    0.389E-02
DAV:   9    -0.136716877474E+04    0.10942E-04   -0.16125E-04  2552   0.250E-02    0.228E-02
DAV:  10    -0.136716877723E+04   -0.24982E-05   -0.67592E-05  2568   0.151E-02    0.136E-02
DAV:  11    -0.136716877848E+04   -0.12469E-05   -0.22460E-05  2224   0.109E-02    0.108E-02
DAV:  12    -0.136716877732E+04    0.11607E-05   -0.15364E-05  1864   0.892E-03    0.891E-03
DAV:  13    -0.136716877669E+04    0.63209E-06   -0.98194E-06  1704   0.677E-03
  15 F= -.13671688E+04 E0= -.13671688E+04  d E =-.239615E+00
 BRION: g(F)=  0.134E+00 g(S)=  0.000E+00 retain N=  4 mean eig= 4.46
 eig:   6.948  6.948  1.972  1.972
 bond charge predicted
       N       E                     dE             d eps       ncg     rms          rms(c)
DAV:   1    -0.136720598894E+04   -0.37212E-01   -0.69585E+01  1384   0.120E+01    0.136E+00
DAV:   2    -0.136756575857E+04   -0.35977E+00   -0.37837E+00  2304   0.476E+00    0.683E-01
DAV:   3    -0.136758758264E+04   -0.21824E-01   -0.29454E-01  2576   0.896E-01    0.555E-01
DAV:   4    -0.136758433739E+04    0.32452E-02   -0.26675E-02  2600   0.386E-01    0.414E-01
DAV:   5    -0.136757989531E+04    0.44421E-02   -0.12727E-02  2328   0.241E-01    0.179E-01
DAV:   6    -0.136758000115E+04   -0.10583E-03   -0.11036E-02  2312   0.195E-01    0.117E-01
DAV:   7    -0.136758010717E+04   -0.10602E-03   -0.47081E-03  2472   0.127E-01    0.999E-02
DAV:   8    -0.136758006115E+04    0.46020E-04   -0.13550E-03  2576   0.756E-02    0.607E-02
DAV:   9    -0.136758002433E+04    0.36822E-04   -0.47219E-04  2472   0.419E-02    0.339E-02
DAV:  10    -0.136758003572E+04   -0.11392E-04   -0.18637E-04  2480   0.256E-02    0.221E-02
DAV:  11    -0.136758003558E+04    0.14188E-06   -0.50592E-05  2416   0.160E-02    0.145E-02
DAV:  12    -0.136758003510E+04    0.47882E-06   -0.38013E-05  2312   0.124E-02    0.128E-02
DAV:  13    -0.136758003367E+04    0.14252E-05   -0.17661E-05  1912   0.812E-03    0.704E-03
DAV:  14    -0.136758003344E+04    0.23177E-06   -0.76696E-06  1696   0.589E-03
  16 F= -.13675800E+04 E0= -.13675800E+04  d E =-.411257E+00
 BRION: g(F)=  0.114E+00 g(S)=  0.000E+00 retain N=  3 mean eig= 4.96
 eig:   6.717  6.717  1.455
 bond charge predicted
       N       E                     dE             d eps       ncg     rms          rms(c)
DAV:   1    -0.136768332257E+04   -0.10329E+00   -0.74798E+00  1376   0.392E+00    0.462E-01
DAV:   2    -0.136772244180E+04   -0.39119E-01   -0.41373E-01  2296   0.157E+00    0.234E-01
DAV:   3    -0.136772483136E+04   -0.23896E-02   -0.33373E-02  2592   0.303E-01    0.189E-01
DAV:   4    -0.136772435442E+04    0.47694E-03   -0.31692E-03  2592   0.135E-01    0.130E-01
DAV:   5    -0.136772397862E+04    0.37580E-03   -0.16728E-03  2336   0.808E-02    0.513E-02
DAV:   6    -0.136772402607E+04   -0.47446E-04   -0.94500E-04  2448   0.584E-02    0.420E-02
DAV:   7    -0.136772402407E+04    0.19965E-05   -0.42662E-04  2408   0.382E-02    0.289E-02
DAV:   8    -0.136772402272E+04    0.13508E-05   -0.15327E-04  2568   0.245E-02    0.174E-02
DAV:   9    -0.136772402101E+04    0.17084E-05   -0.32686E-05  2424   0.123E-02    0.125E-02
DAV:  10    -0.136772402117E+04   -0.15715E-06   -0.17951E-05  2016   0.801E-03    0.685E-03
DAV:  11    -0.136772402081E+04    0.36097E-06   -0.20768E-06  1008   0.624E-03
  17 F= -.13677240E+04 E0= -.13677240E+04  d E =-.143987E+00
 BRION: g(F)=  0.112E+00 g(S)=  0.000E+00 retain N=  3 mean eig= 2.55
 eig:   3.382  3.382  0.880
 bond charge predicted
       N       E                     dE             d eps       ncg     rms          rms(c)
DAV:   1    -0.136782540189E+04   -0.10138E+00   -0.32833E+01  1376   0.824E+00    0.933E-01
DAV:   2    -0.136799645181E+04   -0.17105E+00   -0.18029E+00  2304   0.327E+00    0.468E-01
DAV:   3    -0.136800721890E+04   -0.10767E-01   -0.14337E-01  2584   0.624E-01    0.376E-01
DAV:   4    -0.136800569482E+04    0.15241E-02   -0.12818E-02  2608   0.271E-01    0.279E-01
DAV:   5    -0.136800379808E+04    0.18967E-02   -0.58828E-03  2352   0.160E-01    0.122E-01
DAV:   6    -0.136800380716E+04   -0.90883E-05   -0.46181E-03  2312   0.128E-01    0.776E-02
DAV:   7    -0.136800387179E+04   -0.64623E-04   -0.23325E-03  2472   0.882E-02    0.666E-02
DAV:   8    -0.136800385315E+04    0.18638E-04   -0.62370E-04  2576   0.517E-02    0.442E-02
DAV:   9    -0.136800383560E+04    0.17549E-04   -0.22289E-04  2496   0.286E-02    0.243E-02
DAV:  10    -0.136800384020E+04   -0.46039E-05   -0.90992E-05  2512   0.179E-02    0.146E-02
DAV:  11    -0.136800384128E+04   -0.10798E-05   -0.21824E-05  2184   0.108E-02    0.105E-02
DAV:  12    -0.136800384053E+04    0.75006E-06   -0.20504E-05  2072   0.923E-03    0.901E-03
DAV:  13    -0.136800383998E+04    0.55801E-06   -0.93879E-06  1776   0.629E-03
  18 F= -.13680038E+04 E0= -.13680038E+04  d E =-.279819E+00
 BRION: g(F)=  0.987E-01 g(S)=  0.000E+00 retain N=  2 mean eig= 2.77
 eig:   1.532  4.008
 bond charge predicted
       N       E                     dE             d eps       ncg     rms          rms(c)
DAV:   1    -0.136805861950E+04   -0.54779E-01   -0.54382E+01  1384   0.106E+01    0.118E+00
DAV:   2    -0.136834058018E+04   -0.28196E+00   -0.29702E+00  2312   0.419E+00    0.593E-01
DAV:   3    -0.136835844460E+04   -0.17864E-01   -0.23672E-01  2568   0.790E-01    0.473E-01
DAV:   4    -0.136835608346E+04    0.23611E-02   -0.21301E-02  2608   0.345E-01    0.352E-01
DAV:   5    -0.136835313722E+04    0.29462E-02   -0.92578E-03  2368   0.198E-01    0.162E-01
DAV:   6    -0.136835302695E+04    0.11027E-03   -0.72828E-03  2280   0.161E-01    0.972E-02
DAV:   7    -0.136835315962E+04   -0.13267E-03   -0.41622E-03  2488   0.116E-01    0.879E-02
DAV:   8    -0.136835312879E+04    0.30834E-04   -0.10197E-03  2568   0.678E-02    0.633E-02
DAV:   9    -0.136835308805E+04    0.40737E-04   -0.42052E-04  2544   0.378E-02    0.329E-02
DAV:  10    -0.136835309581E+04   -0.77647E-05   -0.15929E-04  2512   0.238E-02    0.193E-02
DAV:  11    -0.136835309911E+04   -0.32968E-05   -0.33856E-05  2376   0.129E-02    0.149E-02
DAV:  12    -0.136835309628E+04    0.28336E-05   -0.37178E-05  2168   0.122E-02    0.112E-02
DAV:  13    -0.136835309590E+04    0.38143E-06   -0.19949E-05  2096   0.855E-03    0.808E-03
DAV:  14    -0.136835309519E+04    0.70459E-06   -0.42951E-06  1272   0.515E-03
  19 F= -.13683531E+04 E0= -.13683531E+04  d E =-.349255E+00
 BRION: g(F)=  0.876E-01 g(S)=  0.000E+00 retain N=  2 mean eig= 5.83
 eig:   5.829  5.829
 bond charge predicted
       N       E                     dE             d eps       ncg     rms          rms(c)
DAV:   1    -0.136844152548E+04   -0.88430E-01   -0.21363E+01  1384   0.664E+00    0.735E-01
DAV:   2    -0.136855143305E+04   -0.10991E+00   -0.11596E+00  2304   0.262E+00    0.374E-01
DAV:   3    -0.136855852304E+04   -0.70900E-02   -0.93982E-02  2584   0.497E-01    0.302E-01
DAV:   4    -0.136855757414E+04    0.94889E-03   -0.80634E-03  2600   0.216E-01    0.227E-01
DAV:   5    -0.136855631114E+04    0.12630E-02   -0.40695E-03  2352   0.128E-01    0.101E-01
DAV:   6    -0.136855628817E+04    0.22972E-04   -0.30908E-03  2296   0.106E-01    0.704E-02
DAV:   7    -0.136855632249E+04   -0.34320E-04   -0.18289E-03  2464   0.768E-02    0.581E-02
DAV:   8    -0.136855630691E+04    0.15574E-04   -0.48466E-04  2536   0.457E-02    0.393E-02
DAV:   9    -0.136855629279E+04    0.14124E-04   -0.17900E-04  2504   0.251E-02    0.214E-02
DAV:  10    -0.136855629573E+04   -0.29390E-05   -0.61215E-05  2512   0.149E-02    0.135E-02
DAV:  11    -0.136855629693E+04   -0.11992E-05   -0.16014E-05  2016   0.928E-03    0.107E-02
DAV:  12    -0.136855629577E+04    0.11555E-05   -0.18287E-05  1880   0.885E-03    0.872E-03
DAV:  13    -0.136855629536E+04    0.41039E-06   -0.94173E-06  1776   0.650E-03
  20 F= -.13685563E+04 E0= -.13685563E+04  d E =-.203200E+00
 BRION: g(F)=  0.822E-01 g(S)=  0.000E+00 retain N=  3 mean eig= 5.47
 eig:   7.002  7.002  2.417
