 running on  160 total cores
 distrk:  each k-point on  160 cores,    1 groups
 distr:  one band on   20 cores,    8 groups
 using from now: INCAR     
 vasp.5.4.4.18Apr17-6-g9f103f2a35 (build May 01 2020 14:22:42) gamma-only       
  
 POSCAR found type information on POSCAR  O  La Zr Li Al
 POSCAR found :  5 types and     190 ions
 scaLAPACK will be used
 LDA part: xc-table for Pade appr. of Perdew
 POSCAR, INCAR and KPOINTS ok, starting setup
 FFT: planning ...
 WAVECAR not read
 WARNING: random wavefunctions but no delay for mixing, default for NELMDL
 entering main loop
       N       E                     dE             d eps       ncg     rms          rms(c)
DAV:   1     0.252710874082E+05    0.25271E+05   -0.42339E+05  1608   0.253E+03
DAV:   2     0.951096653179E+04   -0.15760E+05   -0.14591E+05  1432   0.711E+02
DAV:   3     0.278337333572E+04   -0.67276E+04   -0.61211E+04  1488   0.354E+02
DAV:   4    -0.350064902238E+03   -0.31334E+04   -0.29212E+04  2040   0.223E+02
DAV:   5    -0.142106820456E+04   -0.10710E+04   -0.10328E+04  2536   0.144E+02    0.116E+02
DAV:   6    -0.130632730442E+04    0.11474E+03   -0.14193E+03  2392   0.653E+01    0.502E+01
DAV:   7    -0.132985411452E+04   -0.23527E+02   -0.39336E+02  2568   0.334E+01    0.247E+01
DAV:   8    -0.134135826836E+04   -0.11504E+02   -0.28708E+02  2512   0.273E+01    0.280E+01
DAV:   9    -0.133155887120E+04    0.97994E+01   -0.68546E+01  2440   0.161E+01    0.759E+00
DAV:  10    -0.133293714248E+04   -0.13783E+01   -0.15426E+01  2616   0.874E+00    0.827E+00
DAV:  11    -0.133297273143E+04   -0.35589E-01   -0.79414E+00  2624   0.478E+00    0.406E+00
DAV:  12    -0.133284812899E+04    0.12460E+00   -0.27472E+00  2584   0.376E+00    0.295E+00
DAV:  13    -0.133293155983E+04   -0.83431E-01   -0.86901E-01  2600   0.181E+00    0.215E+00
DAV:  14    -0.133290548768E+04    0.26072E-01   -0.35759E-01  2608   0.119E+00    0.120E+00
DAV:  15    -0.133291649596E+04   -0.11008E-01   -0.11597E-01  2536   0.695E-01    0.115E+00
DAV:  16    -0.133291647571E+04    0.20247E-04   -0.42290E-02  2624   0.390E-01    0.752E-01
DAV:  17    -0.133291153433E+04    0.49414E-02   -0.29437E-02  2440   0.349E-01    0.338E-01
DAV:  18    -0.133291197492E+04   -0.44059E-03   -0.64638E-03  2488   0.175E-01    0.198E-01
DAV:  19    -0.133291173702E+04    0.23790E-03   -0.31203E-03  2504   0.107E-01    0.121E-01
DAV:  20    -0.133291177350E+04   -0.36483E-04   -0.70230E-04  2592   0.566E-02    0.422E-02
DAV:  21    -0.133291178869E+04   -0.15184E-04   -0.14813E-04  2616   0.263E-02    0.329E-02
DAV:  22    -0.133291180074E+04   -0.12057E-04   -0.44928E-05  2496   0.141E-02    0.142E-02
DAV:  23    -0.133291180074E+04    0.16880E-08   -0.17268E-05  2024   0.842E-03    0.634E-03
DAV:  24    -0.133291180265E+04   -0.19062E-05   -0.48909E-06  1160   0.600E-03    0.354E-03
DAV:  25    -0.133291180280E+04   -0.15047E-06   -0.28381E-06  1032   0.492E-03
   1 F= -.13329118E+04 E0= -.13329118E+04  d E =-.133291E+04
 BRION: g(F)=  0.562E+02 g(S)=  0.000E+00
 bond charge predicted
       N       E                     dE             d eps       ncg     rms          rms(c)
DAV:   1    -0.131282497142E+04    0.20087E+02   -0.56245E+03  1608   0.110E+02    0.239E+01
DAV:   2    -0.135337366327E+04   -0.40549E+02   -0.47138E+02  2568   0.499E+01    0.125E+01
DAV:   3    -0.135224906427E+04    0.11246E+01   -0.28701E+01  2616   0.134E+01    0.847E+00
DAV:   4    -0.135086888845E+04    0.13802E+01   -0.93966E+00  2440   0.614E+00    0.413E+00
DAV:   5    -0.135068482611E+04    0.18406E+00   -0.26239E+00  2528   0.360E+00    0.263E+00
DAV:   6    -0.135063907631E+04    0.45750E-01   -0.20086E+00  2584   0.261E+00    0.150E+00
DAV:   7    -0.135063909869E+04   -0.22379E-04   -0.40757E-01  2512   0.143E+00    0.104E+00
DAV:   8    -0.135063555331E+04    0.35454E-02   -0.23808E-01  2608   0.810E-01    0.473E-01
DAV:   9    -0.135063656417E+04   -0.10109E-02   -0.33674E-02  2608   0.419E-01    0.349E-01
DAV:  10    -0.135063531849E+04    0.12457E-02   -0.17595E-02  2608   0.260E-01    0.138E-01
DAV:  11    -0.135063596397E+04   -0.64549E-03   -0.77947E-03  2576   0.171E-01    0.120E-01
DAV:  12    -0.135063598204E+04   -0.18072E-04   -0.14267E-03  2608   0.756E-02    0.700E-02
DAV:  13    -0.135063594275E+04    0.39298E-04   -0.88490E-04  2536   0.561E-02    0.174E-02
DAV:  14    -0.135063596445E+04   -0.21701E-04   -0.22281E-04  2536   0.309E-02    0.129E-02
DAV:  15    -0.135063596988E+04   -0.54283E-05   -0.47361E-05  2528   0.138E-02    0.102E-02
DAV:  16    -0.135063596955E+04    0.32474E-06   -0.15357E-05  1864   0.812E-03    0.634E-03
DAV:  17    -0.135063597082E+04   -0.12679E-05   -0.16174E-05  1920   0.723E-03    0.403E-03
DAV:  18    -0.135063597055E+04    0.27292E-06   -0.17413E-06  1104   0.461E-03
   2 F= -.13506360E+04 E0= -.13506360E+04  d E =-.177242E+02
 BRION: g(F)=  0.438E+02 g(S)=  0.000E+00 retain N=  1 mean eig= 0.55
 eig:   0.545
 bond charge predicted
       N       E                     dE             d eps       ncg     rms          rms(c)
DAV:   1    -0.133422389504E+04    0.16412E+02   -0.25657E+03  1368   0.668E+01    0.166E+01
DAV:   2    -0.136064130138E+04   -0.26417E+02   -0.32178E+02  2528   0.320E+01    0.165E+01
DAV:   3    -0.135954461493E+04    0.10967E+01   -0.22931E+01  2600   0.109E+01    0.129E+01
DAV:   4    -0.135811933659E+04    0.14253E+01   -0.17001E+01  2208   0.538E+00    0.651E+00
DAV:   5    -0.135840447174E+04   -0.28514E+00   -0.46949E+00  2504   0.381E+00    0.622E+00
DAV:   6    -0.135773731615E+04    0.66716E+00   -0.56311E+00  2456   0.387E+00    0.151E+00
DAV:   7    -0.135781189595E+04   -0.74580E-01   -0.12632E+00  2208   0.227E+00    0.144E+00
DAV:   8    -0.135780063230E+04    0.11264E-01   -0.38086E-01  2440   0.984E-01    0.754E-01
DAV:   9    -0.135779751271E+04    0.31196E-02   -0.12295E-01  2496   0.610E-01    0.424E-01
DAV:  10    -0.135779826563E+04   -0.75293E-03   -0.30269E-02  2432   0.352E-01    0.198E-01
DAV:  11    -0.135779819149E+04    0.74147E-04   -0.81572E-03  2568   0.189E-01    0.139E-01
DAV:  12    -0.135779822093E+04   -0.29444E-04   -0.44884E-03  2608   0.111E-01    0.631E-02
DAV:  13    -0.135779825487E+04   -0.33937E-04   -0.74951E-04  2616   0.581E-02    0.480E-02
DAV:  14    -0.135779825019E+04    0.46760E-05   -0.33735E-04  2504   0.318E-02    0.298E-02
DAV:  15    -0.135779825060E+04   -0.40287E-06   -0.15826E-04  2576   0.232E-02    0.169E-02
DAV:  16    -0.135779825017E+04    0.42631E-06   -0.49502E-05  2496   0.130E-02    0.725E-03
DAV:  17    -0.135779825128E+04   -0.11067E-05   -0.90826E-06  1552   0.686E-03    0.446E-03
DAV:  18    -0.135779825122E+04    0.51150E-07   -0.27932E-06  1072   0.460E-03
   3 F= -.13577983E+04 E0= -.13577983E+04  d E =-.716228E+01
 BRION: g(F)=  0.633E+01 g(S)=  0.000E+00 retain N=  2 mean eig= 0.97
 eig:   0.339  1.595
 bond charge predicted
       N       E                     dE             d eps       ncg     rms          rms(c)
DAV:   1    -0.135897690146E+04   -0.11787E+01   -0.34615E+02  1360   0.259E+01    0.459E+00
DAV:   2    -0.136085497620E+04   -0.18781E+01   -0.20827E+01  2288   0.100E+01    0.235E+00
DAV:   3    -0.136089318461E+04   -0.38208E-01   -0.15487E+00  2544   0.244E+00    0.197E+00
DAV:   4    -0.136083395232E+04    0.59232E-01   -0.41192E-01  2512   0.129E+00    0.995E-01
DAV:   5    -0.136082122327E+04    0.12729E-01   -0.13566E-01  2416   0.755E-01    0.640E-01
DAV:   6    -0.136081988354E+04    0.13397E-02   -0.71585E-02  2552   0.535E-01    0.430E-01
DAV:   7    -0.136081914076E+04    0.74278E-03   -0.40024E-02  2336   0.359E-01    0.265E-01
DAV:   8    -0.136081932428E+04   -0.18352E-03   -0.11422E-02  2384   0.193E-01    0.146E-01
DAV:   9    -0.136081919158E+04    0.13270E-03   -0.32057E-03  2584   0.106E-01    0.945E-02
DAV:  10    -0.136081923749E+04   -0.45913E-04   -0.18394E-03  2576   0.809E-02    0.856E-02
DAV:  11    -0.136081917202E+04    0.65472E-04   -0.10259E-03  2520   0.593E-02    0.292E-02
DAV:  12    -0.136081918420E+04   -0.12181E-04   -0.22767E-04  2480   0.342E-02    0.173E-02
DAV:  13    -0.136081918874E+04   -0.45424E-05   -0.73218E-05  2520   0.151E-02    0.127E-02
DAV:  14    -0.136081918852E+04    0.22681E-06   -0.17564E-05  2160   0.872E-03    0.797E-03
DAV:  15    -0.136081918905E+04   -0.52950E-06   -0.11201E-05  1816   0.645E-03    0.553E-03
DAV:  16    -0.136081918861E+04    0.43525E-06   -0.16354E-06  1024   0.501E-03
   4 F= -.13608192E+04 E0= -.13608192E+04  d E =-.302094E+01
 BRION: g(F)=  0.262E+01 g(S)=  0.000E+00 retain N=  3 mean eig= 0.99
 eig:   2.091  0.268  0.623
 bond charge predicted
       N       E                     dE             d eps       ncg     rms          rms(c)
DAV:   1    -0.136151227375E+04   -0.69308E+00   -0.17415E+02  1360   0.184E+01    0.337E+00
DAV:   2    -0.136236542020E+04   -0.85315E+00   -0.92663E+00  2328   0.691E+00    0.162E+00
DAV:   3    -0.136237360362E+04   -0.81834E-02   -0.62557E-01  2600   0.150E+00    0.136E+00
DAV:   4    -0.136234491647E+04    0.28687E-01   -0.19884E-01  2488   0.842E-01    0.636E-01
DAV:   5    -0.136234264325E+04    0.22732E-02   -0.54775E-02  2448   0.498E-01    0.459E-01
DAV:   6    -0.136234150996E+04    0.11333E-02   -0.41413E-02  2552   0.359E-01    0.223E-01
DAV:   7    -0.136234142094E+04    0.89026E-04   -0.12254E-02  2336   0.202E-01    0.181E-01
DAV:   8    -0.136234136767E+04    0.53266E-04   -0.40152E-03  2352   0.108E-01    0.102E-01
DAV:   9    -0.136234125063E+04    0.11704E-03   -0.14797E-03  2592   0.682E-02    0.506E-02
DAV:  10    -0.136234131316E+04   -0.62529E-04   -0.93801E-04  2512   0.514E-02    0.630E-02
DAV:  11    -0.136234125898E+04    0.54173E-04   -0.34210E-04  2536   0.350E-02    0.229E-02
DAV:  12    -0.136234126254E+04   -0.35593E-05   -0.13492E-04  2408   0.209E-02    0.112E-02
DAV:  13    -0.136234126481E+04   -0.22683E-05   -0.26813E-05  2400   0.101E-02    0.806E-03
DAV:  14    -0.136234126432E+04    0.49516E-06   -0.32947E-06  1160   0.516E-03
   5 F= -.13623413E+04 E0= -.13623413E+04  d E =-.152208E+01
 BRION: g(F)=  0.132E+01 g(S)=  0.000E+00 retain N=  4 mean eig= 1.02
 eig:   1.424  1.424  0.607  0.607
 bond charge predicted
       N       E                     dE             d eps       ncg     rms          rms(c)
DAV:   1    -0.136262317799E+04   -0.28191E+00   -0.22135E+02  1368   0.209E+01    0.292E+00
DAV:   2    -0.136369839290E+04   -0.10752E+01   -0.11384E+01  2296   0.781E+00    0.150E+00
DAV:   3    -0.136373740740E+04   -0.39014E-01   -0.82566E-01  2608   0.156E+00    0.123E+00
DAV:   4    -0.136371153432E+04    0.25873E-01   -0.14235E-01  2552   0.787E-01    0.672E-01
DAV:   5    -0.136370439537E+04    0.71389E-02   -0.56653E-02  2456   0.475E-01    0.343E-01
DAV:   6    -0.136370501944E+04   -0.62407E-03   -0.24677E-02  2552   0.311E-01    0.241E-01
DAV:   7    -0.136370463858E+04    0.38086E-03   -0.11721E-02  2384   0.205E-01    0.145E-01
DAV:   8    -0.136370480254E+04   -0.16396E-03   -0.47788E-03  2456   0.120E-01    0.927E-02
DAV:   9    -0.136370471610E+04    0.86443E-04   -0.81962E-04  2496   0.633E-02    0.671E-02
DAV:  10    -0.136370473722E+04   -0.21119E-04   -0.11530E-03  2328   0.529E-02    0.516E-02
DAV:  11    -0.136370470539E+04    0.31826E-04   -0.39128E-04  2528   0.416E-02    0.164E-02
DAV:  12    -0.136370471291E+04   -0.75203E-05   -0.11412E-04  2384   0.224E-02    0.145E-02
DAV:  13    -0.136370471264E+04    0.27483E-06   -0.44015E-05  2344   0.123E-02    0.917E-03
DAV:  14    -0.136370471238E+04    0.26017E-06   -0.13458E-05  1800   0.732E-03    0.619E-03
DAV:  15    -0.136370471220E+04    0.17666E-06   -0.37400E-06  1240   0.513E-03
   6 F= -.13637047E+04 E0= -.13637047E+04  d E =-.136345E+01
 BRION: g(F)=  0.656E+00 g(S)=  0.000E+00 retain N=  5 mean eig= 1.35
 eig:   2.170  2.170  1.456  0.734  0.222
 bond charge predicted
       N       E                     dE             d eps       ncg     rms          rms(c)
DAV:   1    -0.136395558182E+04   -0.25087E+00   -0.91450E+01  1352   0.136E+01    0.191E+00
DAV:   2    -0.136438893287E+04   -0.43335E+00   -0.45789E+00  2280   0.509E+00    0.941E-01
DAV:   3    -0.136440861574E+04   -0.19683E-01   -0.34691E-01  2608   0.100E+00    0.732E-01
DAV:   4    -0.136439893073E+04    0.96850E-02   -0.53870E-02  2520   0.503E-01    0.376E-01
DAV:   5    -0.136439761722E+04    0.13135E-02   -0.21041E-02  2432   0.303E-01    0.198E-01
DAV:   6    -0.136439797339E+04   -0.35617E-03   -0.10359E-02  2592   0.187E-01    0.123E-01
DAV:   7    -0.136439792048E+04    0.52912E-04   -0.21763E-03  2472   0.100E-01    0.869E-02
DAV:   8    -0.136439792736E+04   -0.68834E-05   -0.11185E-03  2520   0.582E-02    0.478E-02
DAV:   9    -0.136439790663E+04    0.20730E-04   -0.24231E-04  2584   0.354E-02    0.280E-02
DAV:  10    -0.136439791592E+04   -0.92874E-05   -0.18430E-04  2496   0.236E-02    0.222E-02
DAV:  11    -0.136439791197E+04    0.39498E-05   -0.52598E-05  2448   0.156E-02    0.976E-03
DAV:  12    -0.136439791229E+04   -0.32278E-06   -0.16890E-05  1968   0.853E-03    0.624E-03
DAV:  13    -0.136439791212E+04    0.16652E-06   -0.43378E-06  1264   0.591E-03
   7 F= -.13643979E+04 E0= -.13643979E+04  d E =-.693200E+00
 BRION: g(F)=  0.414E+00 g(S)=  0.000E+00 retain N=  6 mean eig= 1.74
 eig:   3.650  3.650  1.537  0.028  0.781  0.781
 bond charge predicted
       N       E                     dE             d eps       ncg     rms          rms(c)
DAV:   1    -0.136457084993E+04   -0.17294E+00   -0.75196E+01  1376   0.124E+01    0.158E+00
DAV:   2    -0.136494190905E+04   -0.37106E+00   -0.39182E+00  2280   0.474E+00    0.825E-01
DAV:   3    -0.136496175647E+04   -0.19847E-01   -0.30420E-01  2616   0.948E-01    0.658E-01
DAV:   4    -0.136495529887E+04    0.64576E-02   -0.36962E-02  2592   0.440E-01    0.395E-01
DAV:   5    -0.136495273595E+04    0.25629E-02   -0.17769E-02  2368   0.281E-01    0.165E-01
DAV:   6    -0.136495335727E+04   -0.62132E-03   -0.94139E-03  2600   0.186E-01    0.144E-01
DAV:   7    -0.136495322153E+04    0.13574E-03   -0.33139E-03  2400   0.113E-01    0.943E-02
DAV:   8    -0.136495321074E+04    0.10789E-04   -0.15268E-03  2496   0.702E-02    0.486E-02
DAV:   9    -0.136495319467E+04    0.16073E-04   -0.23776E-04  2480   0.356E-02    0.356E-02
DAV:  10    -0.136495320133E+04   -0.66615E-05   -0.28367E-04  2272   0.287E-02    0.266E-02
DAV:  11    -0.136495319474E+04    0.65915E-05   -0.77527E-05  2464   0.207E-02    0.114E-02
DAV:  12    -0.136495319781E+04   -0.30713E-05   -0.48315E-05  2352   0.118E-02    0.120E-02
DAV:  13    -0.136495319584E+04    0.19724E-05   -0.14221E-05  1864   0.804E-03    0.467E-03
DAV:  14    -0.136495319584E+04   -0.52387E-09   -0.39625E-06  1240   0.546E-03
   8 F= -.13649532E+04 E0= -.13649532E+04  d E =-.555284E+00
 BRION: g(F)=  0.272E+00 g(S)=  0.000E+00 retain N=  7 mean eig= 2.38
 eig:   5.685  5.685  1.542  1.371  1.371  0.127  0.869
 bond charge predicted
       N       E                     dE             d eps       ncg     rms          rms(c)
DAV:   1    -0.136500066906E+04   -0.47473E-01   -0.98881E+01  1368   0.142E+01    0.168E+00
DAV:   2    -0.136549269804E+04   -0.49203E+00   -0.51830E+00  2296   0.546E+00    0.840E-01
DAV:   3    -0.136552154559E+04   -0.28848E-01   -0.40489E-01  2600   0.106E+00    0.665E-01
DAV:   4    -0.136551545829E+04    0.60873E-02   -0.40348E-02  2600   0.470E-01    0.444E-01
DAV:   5    -0.136551130381E+04    0.41545E-02   -0.18304E-02  2416   0.275E-01    0.175E-01
DAV:   6    -0.136551179932E+04   -0.49551E-03   -0.99735E-03  2480   0.188E-01    0.127E-01
DAV:   7    -0.136551184253E+04   -0.43211E-04   -0.39310E-03  2480   0.121E-01    0.919E-02
DAV:   8    -0.136551183970E+04    0.28333E-05   -0.15192E-03  2592   0.743E-02    0.538E-02
DAV:   9    -0.136551182457E+04    0.15128E-04   -0.32994E-04  2544   0.390E-02    0.384E-02
DAV:  10    -0.136551182831E+04   -0.37381E-05   -0.18536E-04  2576   0.249E-02    0.228E-02
DAV:  11    -0.136551182752E+04    0.79148E-06   -0.71208E-05  2472   0.176E-02    0.119E-02
DAV:  12    -0.136551182722E+04    0.29556E-06   -0.25425E-05  2272   0.117E-02    0.933E-03
DAV:  13    -0.136551182704E+04    0.17756E-06   -0.16713E-05  1920   0.749E-03    0.505E-03
DAV:  14    -0.136551182678E+04    0.26269E-06   -0.18412E-06   992   0.493E-03
   9 F= -.13655118E+04 E0= -.13655118E+04  d E =-.558631E+00
 BRION: g(F)=  0.201E+00 g(S)=  0.000E+00 retain N=  8 mean eig= 2.82
 eig:   7.218  7.218  1.587  2.240  2.240  0.035  1.019  1.019
 bond charge predicted
       N       E                     dE             d eps       ncg     rms          rms(c)
DAV:   1    -0.136560031784E+04   -0.88491E-01   -0.59682E+01  1368   0.109E+01    0.127E+00
DAV:   2    -0.136590081321E+04   -0.30050E+00   -0.31743E+00  2296   0.426E+00    0.635E-01
DAV:   3    -0.136591854967E+04   -0.17736E-01   -0.24770E-01  2592   0.820E-01    0.516E-01
DAV:   4    -0.136591536067E+04    0.31890E-02   -0.22262E-02  2600   0.352E-01    0.373E-01
DAV:   5    -0.136591167118E+04    0.36895E-02   -0.11472E-02  2360   0.223E-01    0.151E-01
DAV:   6    -0.136591188731E+04   -0.21613E-03   -0.89255E-03  2344   0.176E-01    0.114E-01
DAV:   7    -0.136591192616E+04   -0.38844E-04   -0.35074E-03  2440   0.110E-01    0.880E-02
DAV:   8    -0.136591190187E+04    0.24282E-04   -0.12341E-03  2584   0.661E-02    0.477E-02
DAV:   9    -0.136591188155E+04    0.20327E-04   -0.32769E-04  2384   0.367E-02    0.309E-02
DAV:  10    -0.136591188701E+04   -0.54619E-05   -0.11112E-04  2480   0.203E-02    0.214E-02
DAV:  11    -0.136591188449E+04    0.25231E-05   -0.49825E-05  2448   0.145E-02    0.114E-02
DAV:  12    -0.136591188498E+04   -0.49538E-06   -0.23252E-05  2216   0.102E-02    0.102E-02
DAV:  13    -0.136591188408E+04    0.90219E-06   -0.11863E-05  1760   0.662E-03    0.512E-03
DAV:  14    -0.136591188392E+04    0.15453E-06   -0.43976E-06  1280   0.504E-03
  10 F= -.13659119E+04 E0= -.13659119E+04  d E =-.400057E+00
 BRION: g(F)=  0.149E+00 g(S)=  0.000E+00 retain N=  7 mean eig= 3.21
 eig:   6.395  6.395  2.903  2.903  1.377  1.377  1.112
 bond charge predicted
       N       E                     dE             d eps       ncg     rms          rms(c)
DAV:   1    -0.136592993535E+04   -0.18051E-01   -0.71316E+01  1376   0.120E+01    0.141E+00
DAV:   2    -0.136630059455E+04   -0.37066E+00   -0.39214E+00  2312   0.477E+00    0.697E-01
DAV:   3    -0.136632233324E+04   -0.21739E-01   -0.30430E-01  2592   0.901E-01    0.567E-01
DAV:   4    -0.136631837128E+04    0.39620E-02   -0.27606E-02  2600   0.397E-01    0.414E-01
DAV:   5    -0.136631376576E+04    0.46055E-02   -0.13805E-02  2368   0.244E-01    0.172E-01
DAV:   6    -0.136631393336E+04   -0.16760E-03   -0.10993E-02  2368   0.193E-01    0.122E-01
DAV:   7    -0.136631401566E+04   -0.82297E-04   -0.46558E-03  2456   0.125E-01    0.998E-02
DAV:   8    -0.136631397971E+04    0.35952E-04   -0.14730E-03  2592   0.751E-02    0.565E-02
DAV:   9    -0.136631394457E+04    0.35143E-04   -0.45093E-04  2400   0.413E-02    0.339E-02
DAV:  10    -0.136631395599E+04   -0.11428E-04   -0.18130E-04  2472   0.249E-02    0.237E-02
DAV:  11    -0.136631395372E+04    0.22718E-05   -0.70294E-05  2424   0.175E-02    0.145E-02
DAV:  12    -0.136631395363E+04    0.95504E-07   -0.35604E-05  2304   0.127E-02    0.133E-02
DAV:  13    -0.136631395196E+04    0.16699E-05   -0.22161E-05  1960   0.853E-03    0.643E-03
DAV:  14    -0.136631395183E+04    0.12403E-06   -0.74155E-06  1680   0.583E-03
  11 F= -.13663140E+04 E0= -.13663140E+04  d E =-.402068E+00
 BRION: g(F)=  0.116E+00 g(S)=  0.000E+00 retain N=  6 mean eig= 4.15
 eig:   7.682  7.682  3.204  3.204  1.552  1.552
 bond charge predicted
       N       E                     dE             d eps       ncg     rms          rms(c)
DAV:   1    -0.136636422400E+04   -0.50272E-01   -0.45757E+01  1368   0.960E+00    0.112E+00
DAV:   2    -0.136660149183E+04   -0.23727E+00   -0.25169E+00  2288   0.382E+00    0.562E-01
DAV:   3    -0.136661562574E+04   -0.14134E-01   -0.19800E-01  2592   0.740E-01    0.465E-01
DAV:   4    -0.136661331644E+04    0.23093E-02   -0.17655E-02  2624   0.312E-01    0.350E-01
DAV:   5    -0.136660995253E+04    0.33639E-02   -0.93756E-03  2352   0.199E-01    0.150E-01
DAV:   6    -0.136661002234E+04   -0.69808E-04   -0.81144E-03  2312   0.165E-01    0.104E-01
DAV:   7    -0.136661006340E+04   -0.41064E-04   -0.32735E-03  2440   0.103E-01    0.845E-02
DAV:   8    -0.136661003525E+04    0.28156E-04   -0.10556E-03  2592   0.641E-02    0.498E-02
DAV:   9    -0.136661001095E+04    0.24298E-04   -0.32945E-04  2440   0.348E-02    0.283E-02
DAV:  10    -0.136661001931E+04   -0.83572E-05   -0.11527E-04  2504   0.203E-02    0.193E-02
DAV:  11    -0.136661001868E+04    0.62291E-06   -0.38730E-05  2376   0.132E-02    0.131E-02
DAV:  12    -0.136661001816E+04    0.52668E-06   -0.25833E-05  2144   0.105E-02    0.115E-02
DAV:  13    -0.136661001688E+04    0.12777E-05   -0.13532E-05  1776   0.735E-03    0.605E-03
DAV:  14    -0.136661001666E+04    0.21607E-06   -0.57898E-06  1496   0.521E-03
  12 F= -.13666100E+04 E0= -.13666100E+04  d E =-.296065E+00
 BRION: g(F)=  0.992E-01 g(S)=  0.000E+00 retain N=  3 mean eig= 5.18
 eig:   2.479  6.531  6.531
 bond charge predicted
       N       E                     dE             d eps       ncg     rms          rms(c)
DAV:   1    -0.136666051333E+04   -0.50496E-01   -0.37725E+01  1368   0.870E+00    0.103E+00
DAV:   2    -0.136685653561E+04   -0.19602E+00   -0.20761E+00  2296   0.348E+00    0.511E-01
DAV:   3    -0.136686788525E+04   -0.11350E-01   -0.16168E-01  2592   0.665E-01    0.414E-01
DAV:   4    -0.136686558589E+04    0.22994E-02   -0.14481E-02  2608   0.286E-01    0.302E-01
DAV:   5    -0.136686294701E+04    0.26389E-02   -0.79478E-03  2344   0.185E-01    0.120E-01
DAV:   6    -0.136686312127E+04   -0.17426E-03   -0.61135E-03  2360   0.144E-01    0.934E-02
DAV:   7    -0.136686314238E+04   -0.21111E-04   -0.23050E-03  2448   0.875E-02    0.740E-02
DAV:   8    -0.136686311856E+04    0.23827E-04   -0.78986E-04  2600   0.542E-02    0.396E-02
DAV:   9    -0.136686310019E+04    0.18368E-04   -0.22699E-04  2336   0.298E-02    0.242E-02
DAV:  10    -0.136686310557E+04   -0.53864E-05   -0.82412E-05  2440   0.173E-02    0.170E-02
DAV:  11    -0.136686310348E+04    0.20952E-05   -0.31171E-05  2344   0.117E-02    0.848E-03
DAV:  12    -0.136686310396E+04   -0.48015E-06   -0.13197E-05  1824   0.814E-03    0.775E-03
DAV:  13    -0.136686310336E+04    0.59561E-06   -0.72948E-06  1536   0.584E-03
  13 F= -.13668631E+04 E0= -.13668631E+04  d E =-.253087E+00
 BRION: g(F)=  0.871E-01 g(S)=  0.000E+00 retain N=  2 mean eig= 4.51
 eig:   4.511  4.511
 bond charge predicted
       N       E                     dE             d eps       ncg     rms          rms(c)
DAV:   1    -0.136694014552E+04   -0.77042E-01   -0.17095E+01  1376   0.587E+00    0.681E-01
DAV:   2    -0.136702803245E+04   -0.87887E-01   -0.93205E-01  2280   0.235E+00    0.345E-01
DAV:   3    -0.136703326739E+04   -0.52349E-02   -0.74236E-02  2584   0.454E-01    0.283E-01
DAV:   4    -0.136703226578E+04    0.10016E-02   -0.67439E-03  2608   0.194E-01    0.208E-01
DAV:   5    -0.136703105160E+04    0.12142E-02   -0.38543E-03  2304   0.127E-01    0.846E-02
DAV:   6    -0.136703111942E+04   -0.67817E-04   -0.28902E-03  2344   0.102E-01    0.690E-02
DAV:   7    -0.136703112472E+04   -0.53032E-05   -0.12628E-03  2448   0.648E-02    0.529E-02
DAV:   8    -0.136703111040E+04    0.14322E-04   -0.41432E-04  2552   0.400E-02    0.293E-02
DAV:   9    -0.136703110371E+04    0.66887E-05   -0.10775E-04  2416   0.209E-02    0.182E-02
DAV:  10    -0.136703110591E+04   -0.21962E-05   -0.44009E-05  2464   0.123E-02    0.113E-02
DAV:  11    -0.136703110568E+04    0.23190E-06   -0.14566E-05  1976   0.896E-03    0.714E-03
DAV:  12    -0.136703110556E+04    0.11653E-06   -0.84485E-06  1632   0.666E-03
  14 F= -.13670311E+04 E0= -.13670311E+04  d E =-.168002E+00
 BRION: g(F)=  0.793E-01 g(S)=  0.000E+00 retain N=  3 mean eig= 5.60
 eig:   7.396  7.396  2.004
 bond charge predicted
       N       E                     dE             d eps       ncg     rms          rms(c)
DAV:   1    -0.136710751755E+04   -0.76412E-01   -0.16929E+01  1376   0.586E+00    0.675E-01
DAV:   2    -0.136719274399E+04   -0.85226E-01   -0.90200E-01  2296   0.230E+00    0.340E-01
DAV:   3    -0.136719781561E+04   -0.50716E-02   -0.71552E-02  2592   0.442E-01    0.275E-01
DAV:   4    -0.136719684146E+04    0.97416E-03   -0.64401E-03  2608   0.188E-01    0.199E-01
DAV:   5    -0.136719571528E+04    0.11262E-02   -0.37306E-03  2288   0.124E-01    0.788E-02
DAV:   6    -0.136719581134E+04   -0.96065E-04   -0.26198E-03  2376   0.956E-02    0.667E-02
DAV:   7    -0.136719580638E+04    0.49634E-05   -0.99177E-04  2440   0.579E-02    0.484E-02
DAV:   8    -0.136719579534E+04    0.11041E-04   -0.37565E-04  2552   0.370E-02    0.258E-02
DAV:   9    -0.136719579080E+04    0.45416E-05   -0.84654E-05  2368   0.191E-02    0.171E-02
DAV:  10    -0.136719579176E+04   -0.96281E-06   -0.32744E-05  2392   0.110E-02    0.992E-03
DAV:  11    -0.136719579120E+04    0.56293E-06   -0.60467E-06  1344   0.721E-03
  15 F= -.13671958E+04 E0= -.13671958E+04  d E =-.164686E+00
 BRION: g(F)=  0.731E-01 g(S)=  0.000E+00 retain N=  3 mean eig= 4.94
 eig:   6.539  6.539  1.744
 bond charge predicted
       N       E                     dE             d eps       ncg     rms          rms(c)
DAV:   1    -0.136725298940E+04   -0.57198E-01   -0.27263E+01  1376   0.741E+00    0.845E-01
DAV:   2    -0.136739045095E+04   -0.13746E+00   -0.14515E+00  2288   0.290E+00    0.428E-01
DAV:   3    -0.136739860192E+04   -0.81510E-02   -0.11520E-01  2568   0.562E-01    0.341E-01
DAV:   4    -0.136739697744E+04    0.16245E-02   -0.10504E-02  2576   0.241E-01    0.246E-01
DAV:   5    -0.136739525139E+04    0.17260E-02   -0.57513E-03  2320   0.155E-01    0.971E-02
DAV:   6    -0.136739536594E+04   -0.11455E-03   -0.39410E-03  2392   0.118E-01    0.768E-02
DAV:   7    -0.136739537924E+04   -0.13303E-04   -0.15199E-03  2448   0.725E-02    0.578E-02
DAV:   8    -0.136739536364E+04    0.15594E-04   -0.53261E-04  2592   0.449E-02    0.316E-02
DAV:   9    -0.136739535756E+04    0.60860E-05   -0.12760E-04  2424   0.234E-02    0.207E-02
DAV:  10    -0.136739535938E+04   -0.18194E-05   -0.53307E-05  2456   0.140E-02    0.124E-02
DAV:  11    -0.136739535906E+04    0.32136E-06   -0.17608E-05  2184   0.957E-03    0.644E-03
DAV:  12    -0.136739535934E+04   -0.28321E-06   -0.94390E-06  1728   0.658E-03
  16 F= -.13673954E+04 E0= -.13673954E+04  d E =-.199568E+00
 BRION: g(F)=  0.660E-01 g(S)=  0.000E+00 retain N=  3 mean eig= 5.00
 eig:   6.674  6.674  1.656
 bond charge predicted
       N       E                     dE             d eps       ncg     rms          rms(c)
DAV:   1    -0.136746138553E+04   -0.66026E-01   -0.16787E+01  1376   0.582E+00    0.664E-01
DAV:   2    -0.136754637793E+04   -0.84992E-01   -0.89638E-01  2304   0.227E+00    0.339E-01
DAV:   3    -0.136755135561E+04   -0.49777E-02   -0.69729E-02  2560   0.446E-01    0.270E-01
DAV:   4    -0.136755045670E+04    0.89890E-03   -0.67873E-03  2584   0.189E-01    0.194E-01
DAV:   5    -0.136754949674E+04    0.95997E-03   -0.34180E-03  2368   0.120E-01    0.798E-02
DAV:   6    -0.136754955393E+04   -0.57195E-04   -0.22636E-03  2384   0.900E-02    0.599E-02
DAV:   7    -0.136754956097E+04   -0.70350E-05   -0.95087E-04  2480   0.583E-02    0.458E-02
DAV:   8    -0.136754955228E+04    0.86839E-05   -0.34684E-04  2552   0.364E-02    0.273E-02
DAV:   9    -0.136754954788E+04    0.44042E-05   -0.88995E-05  2504   0.188E-02    0.171E-02
DAV:  10    -0.136754954880E+04   -0.91897E-06   -0.32782E-05  2528   0.111E-02    0.105E-02
DAV:  11    -0.136754954854E+04    0.25812E-06   -0.83984E-06  1488   0.773E-03
  17 F= -.13675495E+04 E0= -.13675495E+04  d E =-.154189E+00
 BRION: g(F)=  0.607E-01 g(S)=  0.000E+00 retain N=  3 mean eig= 4.91
 eig:   6.526  6.526  1.693
 bond charge predicted
       N       E                     dE             d eps       ncg     rms          rms(c)
DAV:   1    -0.136761443688E+04   -0.64888E-01   -0.10788E+01  1376   0.467E+00    0.523E-01
DAV:   2    -0.136766822925E+04   -0.53792E-01   -0.56453E-01  2304   0.177E+00    0.265E-01
DAV:   3    -0.136767122898E+04   -0.29997E-02   -0.42625E-02  2584   0.355E-01    0.206E-01
DAV:   4    -0.136767058447E+04    0.64451E-03   -0.41099E-03  2584   0.149E-01    0.143E-01
DAV:   5    -0.136767005015E+04    0.53431E-03   -0.20585E-03  2360   0.926E-02    0.549E-02
DAV:   6    -0.136767009888E+04   -0.48724E-04   -0.11914E-03  2464   0.645E-02    0.414E-02
DAV:   7    -0.136767010398E+04   -0.51061E-05   -0.41022E-04  2480   0.389E-02    0.303E-02
DAV:   8    -0.136767010115E+04    0.28338E-05   -0.16009E-04  2568   0.243E-02    0.177E-02
DAV:   9    -0.136767009978E+04    0.13661E-05   -0.35902E-05  2448   0.127E-02    0.121E-02
DAV:  10    -0.136767009956E+04    0.22810E-06   -0.15890E-05  2016   0.825E-03    0.648E-03
DAV:  11    -0.136767009921E+04    0.34623E-06   -0.19633E-06   992   0.601E-03
  18 F= -.13676701E+04 E0= -.13676701E+04  d E =-.120551E+00
 BRION: g(F)=  0.565E-01 g(S)=  0.000E+00 retain N=  3 mean eig= 5.63
 eig:   7.595  7.595  1.700
 bond charge predicted
       N       E                     dE             d eps       ncg     rms          rms(c)
DAV:   1    -0.136772688059E+04   -0.56781E-01   -0.19758E+01  1384   0.631E+00    0.699E-01
DAV:   2    -0.136782559684E+04   -0.98716E-01   -0.10360E+00  2296   0.242E+00    0.356E-01
DAV:   3    -0.136783160764E+04   -0.60108E-02   -0.82331E-02  2576   0.473E-01    0.282E-01
DAV:   4    -0.136783062187E+04    0.98577E-03   -0.73577E-03  2600   0.201E-01    0.207E-01
DAV:   5    -0.136782941553E+04    0.12063E-02   -0.34779E-03  2352   0.124E-01    0.917E-02
DAV:   6    -0.136782938186E+04    0.33669E-04   -0.28365E-03  2288   0.103E-01    0.586E-02
DAV:   7    -0.136782942791E+04   -0.46045E-04   -0.14129E-03  2464   0.686E-02    0.526E-02
DAV:   8    -0.136782941149E+04    0.16419E-04   -0.34094E-04  2520   0.387E-02    0.328E-02
DAV:   9    -0.136782940157E+04    0.99205E-05   -0.14957E-04  2480   0.226E-02    0.169E-02
DAV:  10    -0.136782940505E+04   -0.34796E-05   -0.52737E-05  2496   0.142E-02    0.127E-02
DAV:  11    -0.136782940414E+04    0.90932E-06   -0.15183E-05  1848   0.906E-03    0.756E-03
DAV:  12    -0.136782940393E+04    0.21367E-06   -0.12382E-05  1704   0.801E-03    0.645E-03
DAV:  13    -0.136782940354E+04    0.38263E-06   -0.45736E-06  1344   0.553E-03
  19 F= -.13678294E+04 E0= -.13678294E+04  d E =-.159304E+00
 BRION: g(F)=  0.516E-01 g(S)=  0.000E+00 retain N=  2 mean eig= 3.93
 eig:   3.929  3.929
 bond charge predicted
       N       E                     dE             d eps       ncg     rms          rms(c)
DAV:   1    -0.136786636698E+04   -0.36963E-01   -0.25346E+01  1376   0.715E+00    0.793E-01
DAV:   2    -0.136799361893E+04   -0.12725E+00   -0.13359E+00  2288   0.272E+00    0.404E-01
DAV:   3    -0.136800145737E+04   -0.78384E-02   -0.10639E-01  2576   0.540E-01    0.324E-01
DAV:   4    -0.136800034455E+04    0.11128E-02   -0.95541E-03  2600   0.228E-01    0.242E-01
DAV:   5    -0.136799877007E+04    0.15745E-02   -0.43510E-03  2360   0.138E-01    0.114E-01
DAV:   6    -0.136799867008E+04    0.99988E-04   -0.39309E-03  2256   0.121E-01    0.686E-02
DAV:   7    -0.136799873446E+04   -0.64374E-04   -0.19874E-03  2424   0.816E-02    0.643E-02
DAV:   8    -0.136799871411E+04    0.20344E-04   -0.48568E-04  2576   0.459E-02    0.448E-02
DAV:   9    -0.136799869019E+04    0.23927E-04   -0.22948E-04  2456   0.276E-02    0.215E-02
DAV:  10    -0.136799869606E+04   -0.58708E-05   -0.96619E-05  2400   0.180E-02    0.146E-02
DAV:  11    -0.136799869637E+04   -0.31090E-06   -0.20899E-05  2096   0.104E-02    0.107E-02
DAV:  12    -0.136799869522E+04    0.11439E-05   -0.21670E-05  1824   0.941E-03    0.912E-03
DAV:  13    -0.136799869463E+04    0.59461E-06   -0.11255E-05  1744   0.731E-03    0.600E-03
DAV:  14    -0.136799869415E+04    0.47844E-06   -0.22387E-06   992   0.478E-03
  20 F= -.13679987E+04 E0= -.13679987E+04  d E =-.169291E+00
 BRION: g(F)=  0.465E-01 g(S)=  0.000E+00 retain N=  3 mean eig= 5.98
 eig:   7.970  7.970  1.990
