 running on  160 total cores
 distrk:  each k-point on  160 cores,    1 groups
 distr:  one band on   20 cores,    8 groups
 using from now: INCAR     
 vasp.5.4.4.18Apr17-6-g9f103f2a35 (build May 01 2020 14:22:42) gamma-only       
  
 POSCAR found type information on POSCAR  O  La Zr Li Al
 POSCAR found :  5 types and     190 ions
 scaLAPACK will be used
 LDA part: xc-table for Pade appr. of Perdew
 POSCAR, INCAR and KPOINTS ok, starting setup
 FFT: planning ...
 WAVECAR not read
 WARNING: random wavefunctions but no delay for mixing, default for NELMDL
 entering main loop
       N       E                     dE             d eps       ncg     rms          rms(c)
DAV:   1     0.252699750943E+05    0.25270E+05   -0.42398E+05  1624   0.253E+03
DAV:   2     0.958759458472E+04   -0.15682E+05   -0.14423E+05  1424   0.716E+02
DAV:   3     0.279127065210E+04   -0.67963E+04   -0.61959E+04  1512   0.356E+02
DAV:   4    -0.330018706620E+03   -0.31213E+04   -0.29182E+04  2056   0.224E+02
DAV:   5    -0.140248171944E+04   -0.10725E+04   -0.10360E+04  2520   0.144E+02    0.116E+02
DAV:   6    -0.129608139140E+04    0.10640E+03   -0.14516E+03  2448   0.671E+01    0.506E+01
DAV:   7    -0.132031011165E+04   -0.24229E+02   -0.43021E+02  2568   0.349E+01    0.289E+01
DAV:   8    -0.132260133553E+04   -0.22912E+01   -0.20204E+02  2560   0.254E+01    0.207E+01
DAV:   9    -0.132537360036E+04   -0.27723E+01   -0.40080E+01  2584   0.132E+01    0.150E+01
DAV:  10    -0.132198504451E+04    0.33886E+01   -0.20762E+01  2592   0.795E+00    0.708E+00
DAV:  11    -0.132177529751E+04    0.20975E+00   -0.64575E+00  2624   0.502E+00    0.494E+00
DAV:  12    -0.132176143770E+04    0.13860E-01   -0.29320E+00  2560   0.313E+00    0.460E+00
DAV:  13    -0.132180932026E+04   -0.47883E-01   -0.12876E+00  2536   0.206E+00    0.393E+00
DAV:  14    -0.132172354419E+04    0.85776E-01   -0.16194E+00  2552   0.131E+00    0.282E+00
DAV:  15    -0.132165152735E+04    0.72017E-01   -0.54159E-01  2448   0.112E+00    0.950E-01
DAV:  16    -0.132165132745E+04    0.19989E-03   -0.19348E-01  2456   0.741E-01    0.927E-01
DAV:  17    -0.132164093379E+04    0.10394E-01   -0.39073E-02  2464   0.501E-01    0.504E-01
DAV:  18    -0.132163800192E+04    0.29319E-02   -0.26052E-02  2448   0.247E-01    0.198E-01
DAV:  19    -0.132163811994E+04   -0.11802E-03   -0.47372E-03  2616   0.159E-01    0.117E-01
DAV:  20    -0.132163812978E+04   -0.98451E-05   -0.13448E-03  2520   0.650E-02    0.622E-02
DAV:  21    -0.132163820175E+04   -0.71970E-04   -0.54424E-04  2576   0.465E-02    0.858E-02
DAV:  22    -0.132163812543E+04    0.76319E-04   -0.30060E-04  2536   0.372E-02    0.220E-02
DAV:  23    -0.132163814302E+04   -0.17588E-04   -0.15703E-04  2552   0.229E-02    0.282E-02
DAV:  24    -0.132163813200E+04    0.11019E-04   -0.42976E-05  2416   0.144E-02    0.896E-03
DAV:  25    -0.132163813273E+04   -0.73331E-06   -0.23001E-05  2192   0.880E-03    0.539E-03
DAV:  26    -0.132163813362E+04   -0.88483E-06   -0.17728E-06  1064   0.469E-03
   1 F= -.13216381E+04 E0= -.13215701E+04  d E =-.132164E+04
 BRION: g(F)=  0.655E+02 g(S)=  0.000E+00
 bond charge predicted
       N       E                     dE             d eps       ncg     rms          rms(c)
DAV:   1    -0.127408285323E+04    0.47555E+02   -0.88993E+03  1752   0.146E+02    0.303E+01
DAV:   2    -0.134806845881E+04   -0.73986E+02   -0.86294E+02  2584   0.668E+01    0.162E+01
DAV:   3    -0.134707539282E+04    0.99307E+00   -0.52879E+01  2616   0.182E+01    0.109E+01
DAV:   4    -0.134472291882E+04    0.23525E+01   -0.16186E+01  2504   0.823E+00    0.525E+00
DAV:   5    -0.134432410834E+04    0.39881E+00   -0.41182E+00  2552   0.484E+00    0.345E+00
DAV:   6    -0.134419380740E+04    0.13030E+00   -0.37435E+00  2528   0.376E+00    0.187E+00
DAV:   7    -0.134423248122E+04   -0.38674E-01   -0.10356E+00  2512   0.214E+00    0.161E+00
DAV:   8    -0.134421839486E+04    0.14086E-01   -0.33755E-01  2624   0.105E+00    0.867E-01
DAV:   9    -0.134421736170E+04    0.10332E-02   -0.94620E-02  2608   0.566E-01    0.402E-01
DAV:  10    -0.134421527716E+04    0.20845E-02   -0.18816E-02  2576   0.382E-01    0.224E-01
DAV:  11    -0.134421683775E+04   -0.15606E-02   -0.24659E-02  2624   0.292E-01    0.218E-01
DAV:  12    -0.134421660654E+04    0.23120E-03   -0.58009E-03  2528   0.158E-01    0.110E-01
DAV:  13    -0.134421671139E+04   -0.10484E-03   -0.30074E-03  2608   0.100E-01    0.481E-02
DAV:  14    -0.134421675491E+04   -0.43524E-04   -0.42264E-04  2624   0.458E-02    0.390E-02
DAV:  15    -0.134421674212E+04    0.12792E-04   -0.19495E-04  2624   0.253E-02    0.157E-02
DAV:  16    -0.134421674669E+04   -0.45749E-05   -0.68100E-05  2624   0.174E-02    0.835E-03
DAV:  17    -0.134421674710E+04   -0.40127E-06   -0.16031E-05  2160   0.854E-03    0.719E-03
DAV:  18    -0.134421674731E+04   -0.21771E-06   -0.33811E-06  1168   0.501E-03
   2 F= -.13442167E+04 E0= -.13442167E+04  d E =-.225786E+02
 BRION: g(F)=  0.502E+02 g(S)=  0.000E+00 retain N=  1 mean eig= 0.55
 eig:   0.546
 bond charge predicted
       N       E                     dE             d eps       ncg     rms          rms(c)
DAV:   1    -0.132912863193E+04    0.15088E+02   -0.26076E+03  1416   0.676E+01    0.186E+01
DAV:   2    -0.135315547527E+04   -0.24027E+02   -0.29285E+02  2560   0.322E+01    0.172E+01
DAV:   3    -0.135227149248E+04    0.88398E+00   -0.19627E+01  2608   0.106E+01    0.130E+01
DAV:   4    -0.135134586256E+04    0.92563E+00   -0.15917E+01  2184   0.567E+00    0.622E+00
DAV:   5    -0.135141124461E+04   -0.65382E-01   -0.32020E+00  2328   0.361E+00    0.530E+00
DAV:   6    -0.135099415470E+04    0.41709E+00   -0.52206E+00  2328   0.368E+00    0.155E+00
DAV:   7    -0.135101585449E+04   -0.21700E-01   -0.98380E-01  2336   0.211E+00    0.127E+00
DAV:   8    -0.135101262663E+04    0.32279E-02   -0.36904E-01  2528   0.996E-01    0.586E-01
DAV:   9    -0.135101189353E+04    0.73310E-03   -0.71462E-02  2560   0.508E-01    0.359E-01
DAV:  10    -0.135101215924E+04   -0.26571E-03   -0.24342E-02  2552   0.305E-01    0.166E-01
DAV:  11    -0.135101223207E+04   -0.72828E-04   -0.70044E-03  2568   0.179E-01    0.139E-01
DAV:  12    -0.135101221045E+04    0.21620E-04   -0.28011E-03  2616   0.919E-02    0.600E-02
DAV:  13    -0.135101222838E+04   -0.17934E-04   -0.85053E-04  2600   0.570E-02    0.345E-02
DAV:  14    -0.135101222974E+04   -0.13529E-05   -0.21187E-04  2512   0.317E-02    0.241E-02
DAV:  15    -0.135101223272E+04   -0.29792E-05   -0.96457E-05  2592   0.184E-02    0.126E-02
DAV:  16    -0.135101223409E+04   -0.13779E-05   -0.35905E-05  2432   0.110E-02    0.592E-03
DAV:  17    -0.135101223477E+04   -0.67527E-06   -0.57437E-06  1376   0.635E-03
   3 F= -.13510122E+04 E0= -.13510122E+04  d E =-.679549E+01
 BRION: g(F)=  0.879E+01 g(S)=  0.000E+00 retain N=  2 mean eig= 0.96
 eig:   0.355  1.565
 bond charge predicted
       N       E                     dE             d eps       ncg     rms          rms(c)
DAV:   1    -0.135199380404E+04   -0.98157E+00   -0.44850E+02  1384   0.285E+01    0.672E+00
DAV:   2    -0.135438921085E+04   -0.23954E+01   -0.27109E+01  2280   0.116E+01    0.296E+00
DAV:   3    -0.135442637086E+04   -0.37160E-01   -0.20978E+00  2600   0.288E+00    0.251E+00
DAV:   4    -0.135434868722E+04    0.77684E-01   -0.56371E-01  2568   0.149E+00    0.127E+00
DAV:   5    -0.135434343439E+04    0.52528E-02   -0.19620E-01  2464   0.872E-01    0.799E-01
DAV:   6    -0.135433874140E+04    0.46930E-02   -0.95908E-02  2568   0.594E-01    0.478E-01
DAV:   7    -0.135433794362E+04    0.79778E-03   -0.43157E-02  2520   0.365E-01    0.320E-01
DAV:   8    -0.135433751816E+04    0.42546E-03   -0.10019E-02  2608   0.192E-01    0.194E-01
DAV:   9    -0.135433720892E+04    0.30924E-03   -0.45045E-03  2624   0.121E-01    0.855E-02
DAV:  10    -0.135433730594E+04   -0.97017E-04   -0.15908E-03  2272   0.768E-02    0.751E-02
DAV:  11    -0.135433726111E+04    0.44824E-04   -0.52479E-04  2616   0.430E-02    0.351E-02
DAV:  12    -0.135433726486E+04   -0.37459E-05   -0.25915E-04  2608   0.280E-02    0.209E-02
DAV:  13    -0.135433726675E+04   -0.18921E-05   -0.47451E-05  2592   0.151E-02    0.112E-02
DAV:  14    -0.135433726752E+04   -0.76709E-06   -0.26871E-05  2456   0.888E-03    0.725E-03
DAV:  15    -0.135433726716E+04    0.36100E-06   -0.33699E-06  1152   0.568E-03
   4 F= -.13543373E+04 E0= -.13543373E+04  d E =-.332503E+01
 BRION: g(F)=  0.352E+01 g(S)=  0.000E+00 retain N=  3 mean eig= 1.22
 eig:   2.800  0.425  0.425
 bond charge predicted
       N       E                     dE             d eps       ncg     rms          rms(c)
DAV:   1    -0.135525472890E+04   -0.91746E+00   -0.18366E+02  1376   0.184E+01    0.317E+00
DAV:   2    -0.135616661243E+04   -0.91188E+00   -0.97943E+00  2288   0.684E+00    0.162E+00
DAV:   3    -0.135617700073E+04   -0.10388E-01   -0.67320E-01  2624   0.147E+00    0.130E+00
DAV:   4    -0.135614305511E+04    0.33946E-01   -0.20615E-01  2496   0.874E-01    0.584E-01
DAV:   5    -0.135614089909E+04    0.21560E-02   -0.54108E-02  2488   0.491E-01    0.410E-01
DAV:   6    -0.135614054944E+04    0.34965E-03   -0.46493E-02  2472   0.364E-01    0.201E-01
DAV:   7    -0.135614047892E+04    0.70524E-04   -0.96810E-03  2280   0.197E-01    0.173E-01
DAV:   8    -0.135614034476E+04    0.13416E-03   -0.33785E-03  2424   0.944E-02    0.764E-02
DAV:   9    -0.135614037032E+04   -0.25560E-04   -0.15454E-03  2520   0.662E-02    0.552E-02
DAV:  10    -0.135614033557E+04    0.34748E-04   -0.39403E-04  2440   0.451E-02    0.347E-02
DAV:  11    -0.135614034804E+04   -0.12468E-04   -0.32909E-04  2424   0.294E-02    0.173E-02
DAV:  12    -0.135614034627E+04    0.17744E-05   -0.51976E-05  2416   0.139E-02    0.797E-03
DAV:  13    -0.135614034750E+04   -0.12307E-05   -0.19411E-05  2200   0.825E-03    0.584E-03
DAV:  14    -0.135614034722E+04    0.27988E-06   -0.30881E-06  1088   0.526E-03
   5 F= -.13561403E+04 E0= -.13561403E+04  d E =-.180308E+01
 BRION: g(F)=  0.167E+01 g(S)=  0.000E+00 retain N=  4 mean eig= 1.12
 eig:   1.675  1.675  0.563  0.563
 bond charge predicted
       N       E                     dE             d eps       ncg     rms          rms(c)
DAV:   1    -0.135656798792E+04   -0.42764E+00   -0.21108E+02  1368   0.200E+01    0.301E+00
DAV:   2    -0.135758200733E+04   -0.10140E+01   -0.10710E+01  2288   0.744E+00    0.153E+00
DAV:   3    -0.135760500480E+04   -0.22997E-01   -0.72021E-01  2616   0.151E+00    0.120E+00
DAV:   4    -0.135757324091E+04    0.31764E-01   -0.17625E-01  2496   0.853E-01    0.561E-01
DAV:   5    -0.135757136597E+04    0.18749E-02   -0.52358E-02  2496   0.473E-01    0.365E-01
DAV:   6    -0.135757126753E+04    0.98445E-04   -0.31667E-02  2600   0.302E-01    0.166E-01
DAV:   7    -0.135757122636E+04    0.41162E-04   -0.57930E-03  2424   0.163E-01    0.128E-01
DAV:   8    -0.135757119108E+04    0.35288E-04   -0.26546E-03  2456   0.864E-02    0.554E-02
DAV:   9    -0.135757121665E+04   -0.25577E-04   -0.71566E-04  2624   0.540E-02    0.466E-02
DAV:  10    -0.135757120026E+04    0.16395E-04   -0.30365E-04  2600   0.342E-02    0.213E-02
DAV:  11    -0.135757120789E+04   -0.76367E-05   -0.15864E-04  2544   0.232E-02    0.161E-02
DAV:  12    -0.135757120702E+04    0.87469E-06   -0.25565E-05  2376   0.105E-02    0.104E-02
DAV:  13    -0.135757120617E+04    0.85255E-06   -0.15101E-05  1728   0.780E-03    0.428E-03
DAV:  14    -0.135757120623E+04   -0.60827E-07   -0.32975E-06  1104   0.605E-03
   6 F= -.13575712E+04 E0= -.13575712E+04  d E =-.143086E+01
 BRION: g(F)=  0.815E+00 g(S)=  0.000E+00 retain N=  5 mean eig= 1.24
 eig:   2.145  2.145  0.634  0.634  0.648
 bond charge predicted
       N       E                     dE             d eps       ncg     rms          rms(c)
DAV:   1    -0.135779833664E+04   -0.22713E+00   -0.13801E+02  1400   0.166E+01    0.248E+00
DAV:   2    -0.135846925641E+04   -0.67092E+00   -0.70771E+00  2288   0.620E+00    0.117E+00
DAV:   3    -0.135849959911E+04   -0.30343E-01   -0.54129E-01  2624   0.127E+00    0.913E-01
DAV:   4    -0.135848429425E+04    0.15305E-01   -0.84473E-02  2528   0.655E-01    0.477E-01
DAV:   5    -0.135848215389E+04    0.21404E-02   -0.34001E-02  2456   0.376E-01    0.239E-01
DAV:   6    -0.135848271396E+04   -0.56007E-03   -0.14174E-02  2584   0.224E-01    0.146E-01
DAV:   7    -0.135848262949E+04    0.84473E-04   -0.31976E-03  2552   0.120E-01    0.101E-01
DAV:   8    -0.135848265843E+04   -0.28947E-04   -0.16733E-03  2616   0.737E-02    0.592E-02
DAV:   9    -0.135848261660E+04    0.41832E-04   -0.37367E-04  2592   0.451E-02    0.336E-02
DAV:  10    -0.135848263175E+04   -0.15147E-04   -0.33829E-04  2520   0.313E-02    0.267E-02
DAV:  11    -0.135848262425E+04    0.74957E-05   -0.77593E-05  2480   0.194E-02    0.119E-02
DAV:  12    -0.135848262682E+04   -0.25682E-05   -0.50587E-05  2400   0.121E-02    0.102E-02
DAV:  13    -0.135848262573E+04    0.10878E-05   -0.74583E-06  1528   0.738E-03    0.559E-03
DAV:  14    -0.135848262599E+04   -0.25154E-06   -0.94211E-06  1608   0.611E-03
   7 F= -.13584826E+04 E0= -.13584826E+04  d E =-.911420E+00
 BRION: g(F)=  0.589E+00 g(S)=  0.000E+00 retain N=  6 mean eig= 1.54
 eig:   2.777  2.777  2.248  0.129  0.651  0.651
 bond charge predicted
       N       E                     dE             d eps       ncg     rms          rms(c)
DAV:   1    -0.135876458761E+04   -0.28196E+00   -0.49446E+01  1392   0.101E+01    0.139E+00
DAV:   2    -0.135901401644E+04   -0.24943E+00   -0.26581E+00  2296   0.385E+00    0.683E-01
DAV:   3    -0.135902687143E+04   -0.12855E-01   -0.21212E-01  2616   0.795E-01    0.554E-01
DAV:   4    -0.135902211933E+04    0.47521E-02   -0.28524E-02  2608   0.389E-01    0.340E-01
DAV:   5    -0.135901998796E+04    0.21314E-02   -0.14193E-02  2344   0.249E-01    0.152E-01
DAV:   6    -0.135902034288E+04   -0.35492E-03   -0.74584E-03  2568   0.172E-01    0.129E-01
DAV:   7    -0.135902025625E+04    0.86635E-04   -0.29103E-03  2488   0.101E-01    0.847E-02
DAV:   8    -0.135902023991E+04    0.16330E-04   -0.11060E-03  2592   0.620E-02    0.428E-02
DAV:   9    -0.135902022997E+04    0.99478E-05   -0.18066E-04  2568   0.301E-02    0.312E-02
DAV:  10    -0.135902023419E+04   -0.42245E-05   -0.18181E-04  2280   0.233E-02    0.225E-02
DAV:  11    -0.135902022912E+04    0.50732E-05   -0.56060E-05  2424   0.172E-02    0.966E-03
DAV:  12    -0.135902023170E+04   -0.25857E-05   -0.40313E-05  2288   0.108E-02    0.102E-02
DAV:  13    -0.135902023009E+04    0.16135E-05   -0.89257E-06  1608   0.688E-03    0.416E-03
DAV:  14    -0.135902023018E+04   -0.91692E-07   -0.31921E-06  1152   0.540E-03
   8 F= -.13590202E+04 E0= -.13590202E+04  d E =-.537604E+00
 BRION: g(F)=  0.373E+00 g(S)=  0.000E+00 retain N=  7 mean eig= 1.79
 eig:   3.532  3.532  1.723  1.723  0.696  0.696  0.663
 bond charge predicted
       N       E                     dE             d eps       ncg     rms          rms(c)
DAV:   1    -0.135921264810E+04   -0.19242E+00   -0.81581E+01  1400   0.131E+01    0.159E+00
DAV:   2    -0.135962899498E+04   -0.41635E+00   -0.44364E+00  2296   0.508E+00    0.814E-01
DAV:   3    -0.135965663323E+04   -0.27638E-01   -0.36823E-01  2600   0.104E+00    0.670E-01
DAV:   4    -0.135965216454E+04    0.44687E-02   -0.37231E-02  2608   0.472E-01    0.475E-01
DAV:   5    -0.135964839758E+04    0.37670E-02   -0.22851E-02  2352   0.292E-01    0.199E-01
DAV:   6    -0.135964903707E+04   -0.63949E-03   -0.11253E-02  2488   0.211E-01    0.181E-01
DAV:   7    -0.135964884548E+04    0.19158E-03   -0.62012E-03  2504   0.148E-01    0.112E-01
DAV:   8    -0.135964881777E+04    0.27708E-04   -0.23875E-03  2552   0.943E-02    0.640E-02
DAV:   9    -0.135964879519E+04    0.22585E-04   -0.37257E-04  2544   0.435E-02    0.439E-02
DAV:  10    -0.135964879865E+04   -0.34635E-05   -0.23671E-04  2608   0.267E-02    0.204E-02
DAV:  11    -0.135964880118E+04   -0.25278E-05   -0.56010E-05  2480   0.175E-02    0.115E-02
DAV:  12    -0.135964880135E+04   -0.16413E-06   -0.23257E-05  2336   0.112E-02    0.986E-03
DAV:  13    -0.135964880082E+04    0.52864E-06   -0.15575E-05  1960   0.729E-03    0.571E-03
DAV:  14    -0.135964880047E+04    0.35063E-06   -0.18952E-06  1024   0.476E-03
   9 F= -.13596488E+04 E0= -.13596488E+04  d E =-.628570E+00
 BRION: g(F)=  0.277E+00 g(S)=  0.000E+00 retain N=  8 mean eig= 2.19
 eig:   5.669  5.669  1.546  1.252  1.252  0.470  0.831  0.831
 bond charge predicted
       N       E                     dE             d eps       ncg     rms          rms(c)
DAV:   1    -0.135976713065E+04   -0.11833E+00   -0.10401E+02  1392   0.146E+01    0.172E+00
DAV:   2    -0.136030558891E+04   -0.53846E+00   -0.56828E+00  2296   0.572E+00    0.858E-01
DAV:   3    -0.136033866362E+04   -0.33075E-01   -0.45241E-01  2592   0.112E+00    0.690E-01
DAV:   4    -0.136033294450E+04    0.57191E-02   -0.43071E-02  2608   0.508E-01    0.498E-01
DAV:   5    -0.136032702016E+04    0.59243E-02   -0.21183E-02  2344   0.310E-01    0.210E-01
DAV:   6    -0.136032743809E+04   -0.41793E-03   -0.16357E-02  2400   0.246E-01    0.155E-01
DAV:   7    -0.136032750628E+04   -0.68189E-04   -0.70173E-03  2440   0.158E-01    0.122E-01
DAV:   8    -0.136032747120E+04    0.35082E-04   -0.24103E-03  2616   0.938E-02    0.701E-02
DAV:   9    -0.136032742003E+04    0.51167E-04   -0.64440E-04  2512   0.511E-02    0.431E-02
DAV:  10    -0.136032743001E+04   -0.99803E-05   -0.26647E-04  2520   0.312E-02    0.282E-02
DAV:  11    -0.136032743051E+04   -0.50034E-06   -0.10546E-04  2464   0.218E-02    0.172E-02
DAV:  12    -0.136032742949E+04    0.10248E-05   -0.43639E-05  2368   0.152E-02    0.150E-02
DAV:  13    -0.136032742816E+04    0.13269E-05   -0.38510E-05  2176   0.106E-02    0.771E-03
DAV:  14    -0.136032742811E+04    0.52823E-07   -0.97153E-06  1776   0.607E-03
  10 F= -.13603274E+04 E0= -.13603274E+04  d E =-.678628E+00
 BRION: g(F)=  0.229E+00 g(S)=  0.000E+00 retain N=  9 mean eig= 3.02
 eig:   7.860  7.860  2.749  2.749  1.742  1.742  0.873  0.873  0.751
 bond charge predicted
       N       E                     dE             d eps       ncg     rms          rms(c)
DAV:   1    -0.136053475850E+04   -0.20733E+00   -0.46121E+01  1400   0.978E+00    0.114E+00
DAV:   2    -0.136078187826E+04   -0.24712E+00   -0.26271E+00  2304   0.394E+00    0.574E-01
DAV:   3    -0.136079764065E+04   -0.15762E-01   -0.21232E-01  2584   0.767E-01    0.475E-01
DAV:   4    -0.136079529368E+04    0.23470E-02   -0.19672E-02  2616   0.344E-01    0.354E-01
DAV:   5    -0.136079230781E+04    0.29859E-02   -0.10345E-02  2336   0.207E-01    0.148E-01
DAV:   6    -0.136079253194E+04   -0.22413E-03   -0.79825E-03  2368   0.165E-01    0.116E-01
DAV:   7    -0.136079251680E+04    0.15147E-04   -0.34669E-03  2456   0.109E-01    0.862E-02
DAV:   8    -0.136079249298E+04    0.23816E-04   -0.12851E-03  2600   0.696E-02    0.486E-02
DAV:   9    -0.136079247448E+04    0.18498E-04   -0.29107E-04  2424   0.347E-02    0.310E-02
DAV:  10    -0.136079247942E+04   -0.49369E-05   -0.10425E-04  2464   0.191E-02    0.188E-02
DAV:  11    -0.136079248119E+04   -0.17730E-05   -0.42482E-05  2424   0.138E-02    0.134E-02
DAV:  12    -0.136079247998E+04    0.12133E-05   -0.20811E-05  2248   0.104E-02    0.109E-02
DAV:  13    -0.136079247911E+04    0.86914E-06   -0.16443E-05  1848   0.735E-03    0.526E-03
DAV:  14    -0.136079247885E+04    0.26105E-06   -0.22002E-06  1032   0.486E-03
  11 F= -.13607925E+04 E0= -.13607925E+04  d E =-.465051E+00
 BRION: g(F)=  0.205E+00 g(S)=  0.000E+00 retain N=  8 mean eig= 3.21
 eig:   7.388  7.388  2.520  2.520  1.995  1.995  0.919  0.919
 bond charge predicted
       N       E                     dE             d eps       ncg     rms          rms(c)
DAV:   1    -0.136101441780E+04   -0.22194E+00   -0.32794E+01  1408   0.823E+00    0.969E-01
DAV:   2    -0.136119142463E+04   -0.17701E+00   -0.18849E+00  2304   0.335E+00    0.490E-01
DAV:   3    -0.136120294153E+04   -0.11517E-01   -0.15399E-01  2584   0.650E-01    0.404E-01
DAV:   4    -0.136120118680E+04    0.17547E-02   -0.14087E-02  2608   0.291E-01    0.301E-01
DAV:   5    -0.136119901782E+04    0.21690E-02   -0.77337E-03  2320   0.180E-01    0.120E-01
DAV:   6    -0.136119925880E+04   -0.24098E-03   -0.57752E-03  2384   0.140E-01    0.103E-01
DAV:   7    -0.136119922325E+04    0.35554E-04   -0.23340E-03  2464   0.898E-02    0.738E-02
DAV:   8    -0.136119920312E+04    0.20124E-04   -0.92533E-04  2568   0.577E-02    0.392E-02
DAV:   9    -0.136119919020E+04    0.12922E-04   -0.17868E-04  2344   0.283E-02    0.262E-02
DAV:  10    -0.136119919214E+04   -0.19394E-05   -0.71034E-05  2408   0.159E-02    0.141E-02
DAV:  11    -0.136119919308E+04   -0.93674E-06   -0.20547E-05  2272   0.103E-02    0.909E-03
DAV:  12    -0.136119919309E+04   -0.10696E-07   -0.11952E-05  1832   0.760E-03    0.807E-03
DAV:  13    -0.136119919258E+04    0.51015E-06   -0.83341E-06  1696   0.580E-03
  12 F= -.13611992E+04 E0= -.13611992E+04  d E =-.406714E+00
 BRION: g(F)=  0.194E+00 g(S)=  0.000E+00 retain N=  5 mean eig= 4.07
 eig:   7.204  7.204  1.109  2.416  2.416
 bond charge predicted
       N       E                     dE             d eps       ncg     rms          rms(c)
DAV:   1    -0.136141444550E+04   -0.21525E+00   -0.17508E+01  1408   0.593E+00    0.687E-01
DAV:   2    -0.136150875215E+04   -0.94307E-01   -0.99975E-01  2296   0.240E+00    0.350E-01
DAV:   3    -0.136151478169E+04   -0.60295E-02   -0.81039E-02  2584   0.460E-01    0.289E-01
DAV:   4    -0.136151383436E+04    0.94733E-03   -0.72347E-03  2608   0.206E-01    0.215E-01
DAV:   5    -0.136151257009E+04    0.12643E-02   -0.38561E-03  2304   0.126E-01    0.839E-02
DAV:   6    -0.136151267736E+04   -0.10727E-03   -0.30478E-03  2352   0.980E-02    0.668E-02
DAV:   7    -0.136151267190E+04    0.54598E-05   -0.10952E-03  2456   0.605E-02    0.499E-02
DAV:   8    -0.136151266240E+04    0.95028E-05   -0.40388E-04  2576   0.383E-02    0.267E-02
DAV:   9    -0.136151265591E+04    0.64817E-05   -0.90982E-05  2304   0.197E-02    0.177E-02
DAV:  10    -0.136151265730E+04   -0.13834E-05   -0.30201E-05  2392   0.105E-02    0.107E-02
DAV:  11    -0.136151265699E+04    0.31132E-06   -0.81951E-06  1584   0.715E-03
  13 F= -.13615127E+04 E0= -.13615127E+04  d E =-.313464E+00
 BRION: g(F)=  0.191E+00 g(S)=  0.000E+00 retain N=  5 mean eig= 4.39
 eig:   7.844  7.844  2.380  2.380  1.517
 bond charge predicted
       N       E                     dE             d eps       ncg     rms          rms(c)
DAV:   1    -0.136167670654E+04   -0.16405E+00   -0.90316E+00  1392   0.423E+00    0.480E-01
DAV:   2    -0.136172360833E+04   -0.46902E-01   -0.49348E-01  2288   0.165E+00    0.245E-01
DAV:   3    -0.136172658909E+04   -0.29808E-02   -0.39782E-02  2584   0.325E-01    0.201E-01
DAV:   4    -0.136172614452E+04    0.44457E-03   -0.33608E-03  2616   0.139E-01    0.151E-01
DAV:   5    -0.136172546490E+04    0.67962E-03   -0.19338E-03  2200   0.892E-02    0.564E-02
DAV:   6    -0.136172553568E+04   -0.70781E-04   -0.15618E-03  2304   0.675E-02    0.494E-02
DAV:   7    -0.136172552960E+04    0.60795E-05   -0.45550E-04  2472   0.386E-02    0.364E-02
DAV:   8    -0.136172552139E+04    0.82136E-05   -0.17189E-04  2560   0.250E-02    0.188E-02
DAV:   9    -0.136172551694E+04    0.44461E-05   -0.41297E-05  2136   0.130E-02    0.118E-02
DAV:  10    -0.136172551743E+04   -0.49389E-06   -0.12323E-05  2072   0.698E-03    0.637E-03
DAV:  11    -0.136172551705E+04    0.38622E-06   -0.14981E-06  1016   0.441E-03
  14 F= -.13617255E+04 E0= -.13617255E+04  d E =-.212860E+00
 BRION: g(F)=  0.191E+00 g(S)=  0.000E+00 retain N=  5 mean eig= 3.67
 eig:   7.036  7.036  1.773  1.773  0.710
 bond charge predicted
       N       E                     dE             d eps       ncg     rms          rms(c)
DAV:   1    -0.136179902431E+04   -0.73507E-01   -0.93914E-01  1424   0.138E+00    0.163E-01
DAV:   2    -0.136180411007E+04   -0.50858E-02   -0.54095E-02  2296   0.556E-01    0.839E-02
DAV:   3    -0.136180443686E+04   -0.32679E-03   -0.44604E-03  2584   0.109E-01    0.687E-02
DAV:   4    -0.136180437342E+04    0.63438E-04   -0.40758E-04  2584   0.491E-02    0.490E-02
DAV:   5    -0.136180430971E+04    0.63707E-04   -0.25677E-04  2272   0.317E-02    0.169E-02
DAV:   6    -0.136180432047E+04   -0.10758E-04   -0.14984E-04  2480   0.222E-02    0.174E-02
DAV:   7    -0.136180431874E+04    0.17342E-05   -0.49055E-05  2464   0.130E-02    0.110E-02
DAV:   8    -0.136180431790E+04    0.83161E-06   -0.16034E-05  2272   0.808E-03    0.549E-03
DAV:   9    -0.136180431765E+04    0.25125E-06   -0.12875E-06   984   0.413E-03
  15 F= -.13618043E+04 E0= -.13618043E+04  d E =-.788006E-01
 BRION: g(F)=  0.191E+00 g(S)=  0.000E+00 retain N=  5 mean eig= 1.80
 eig:   3.179  3.179  1.650  0.494  0.489
 bond charge predicted
       N       E                     dE             d eps       ncg     rms          rms(c)
DAV:   1    -0.136183302730E+04   -0.28709E-01   -0.10493E-01  1448   0.461E-01    0.554E-02
DAV:   2    -0.136183362169E+04   -0.59440E-03   -0.63545E-03  2296   0.192E-01    0.289E-02
DAV:   3    -0.136183366041E+04   -0.38713E-04   -0.53878E-04  2584   0.379E-02    0.233E-02
DAV:   4    -0.136183365256E+04    0.78475E-05   -0.50955E-05  2536   0.175E-02    0.165E-02
DAV:   5    -0.136183364561E+04    0.69476E-05   -0.29524E-05  2264   0.107E-02    0.605E-03
DAV:   6    -0.136183364654E+04   -0.93308E-06   -0.16257E-05  2216   0.745E-03    0.546E-03
DAV:   7    -0.136183364613E+04    0.41650E-06   -0.32231E-06  1152   0.480E-03
  16 F= -.13618336E+04 E0= -.13618336E+04  d E =-.293285E-01
 BRION: g(F)=  0.191E+00 g(S)=  0.000E+00 retain N=  6 mean eig= 1.91
 eig:   3.312  3.312  1.634  1.539  1.539  0.100
 bond charge predicted
       N       E                     dE             d eps       ncg     rms          rms(c)
DAV:   1    -0.136177286567E+04    0.60781E-01   -0.58848E-01  1424   0.109E+00    0.125E-01
DAV:   2    -0.136177605220E+04   -0.31865E-02   -0.33548E-02  2296   0.434E-01    0.629E-02
DAV:   3    -0.136177625545E+04   -0.20325E-03   -0.26993E-03  2576   0.857E-02    0.508E-02
DAV:   4    -0.136177622173E+04    0.33711E-04   -0.23715E-04  2592   0.370E-02    0.364E-02
DAV:   5    -0.136177618675E+04    0.34980E-04   -0.13799E-04  2256   0.227E-02    0.126E-02
DAV:   6    -0.136177619268E+04   -0.59278E-05   -0.80268E-05  2424   0.159E-02    0.122E-02
DAV:   7    -0.136177619200E+04    0.68705E-06   -0.26798E-05  2344   0.965E-03    0.788E-03
DAV:   8    -0.136177619123E+04    0.76086E-06   -0.57758E-06  1432   0.629E-03
  17 F= -.13617762E+04 E0= -.13617762E+04  d E =0.574549E-01
 BRION: g(F)=  0.190E+00 g(S)=  0.000E+00 retain N=  7 mean eig= 2.69
 eig:   4.623  4.623  3.606  3.606  0.288  1.205  0.908
 bond charge predicted
       N       E                     dE             d eps       ncg     rms          rms(c)
DAV:   1    -0.136128256867E+04    0.49362E+00   -0.18641E+01  1400   0.609E+00    0.726E-01
DAV:   2    -0.136138902571E+04   -0.10646E+00   -0.11297E+00  2312   0.251E+00    0.364E-01
DAV:   3    -0.136139584800E+04   -0.68223E-02   -0.92103E-02  2560   0.500E-01    0.292E-01
DAV:   4    -0.136139459829E+04    0.12497E-02   -0.86152E-03  2560   0.222E-01    0.205E-01
DAV:   5    -0.136139352210E+04    0.10762E-02   -0.47142E-03  2296   0.132E-01    0.701E-02
DAV:   6    -0.136139371305E+04   -0.19096E-03   -0.25320E-03  2520   0.875E-02    0.645E-02
DAV:   7    -0.136139370466E+04    0.83987E-05   -0.86272E-04  2568   0.541E-02    0.416E-02
DAV:   8    -0.136139369571E+04    0.89412E-05   -0.27285E-04  2576   0.335E-02    0.229E-02
DAV:   9    -0.136139369467E+04    0.10459E-05   -0.51762E-05  2464   0.160E-02    0.168E-02
DAV:  10    -0.136139369574E+04   -0.10706E-05   -0.22590E-05  2488   0.958E-03    0.733E-03
DAV:  11    -0.136139369549E+04    0.24767E-06   -0.28705E-06  1152   0.598E-03
  18 F= -.13613937E+04 E0= -.13613937E+04  d E =0.382496E+00
 BRION: g(F)=  0.181E+00 g(S)=  0.000E+00 retain N=  2 mean eig= 3.29
 eig:   0.368  6.204
 bond charge predicted
       N       E                     dE             d eps       ncg     rms          rms(c)
DAV:   1    -0.136018220929E+04    0.12115E+01   -0.85115E+01  1400   0.130E+01    0.153E+00
DAV:   2    -0.136066157949E+04   -0.47937E+00   -0.50786E+00  2304   0.528E+00    0.779E-01
DAV:   3    -0.136069223909E+04   -0.30660E-01   -0.41920E-01  2568   0.105E+00    0.627E-01
DAV:   4    -0.136068669113E+04    0.55480E-02   -0.37784E-02  2568   0.468E-01    0.447E-01
DAV:   5    -0.136068115808E+04    0.55330E-02   -0.19325E-02  2288   0.269E-01    0.165E-01
DAV:   6    -0.136068173102E+04   -0.57293E-03   -0.12474E-02  2416   0.195E-01    0.132E-01
DAV:   7    -0.136068173889E+04   -0.78783E-05   -0.46296E-03  2512   0.122E-01    0.937E-02
DAV:   8    -0.136068171506E+04    0.23835E-04   -0.15532E-03  2616   0.784E-02    0.536E-02
DAV:   9    -0.136068169817E+04    0.16889E-04   -0.32991E-04  2368   0.386E-02    0.388E-02
DAV:  10    -0.136068170069E+04   -0.25211E-05   -0.13132E-04  2440   0.218E-02    0.203E-02
DAV:  11    -0.136068170059E+04    0.10246E-06   -0.47884E-05  2472   0.147E-02    0.926E-03
DAV:  12    -0.136068170162E+04   -0.10284E-05   -0.21685E-05  2360   0.998E-03    0.914E-03
DAV:  13    -0.136068170075E+04    0.86447E-06   -0.84668E-06  1600   0.594E-03
  19 F= -.13606817E+04 E0= -.13606817E+04  d E =0.711995E+00
 BRION: g(F)=  0.174E+00 g(S)=  0.000E+00 retain N=  2 mean eig= 5.97
 eig:   5.966  5.966
 bond charge predicted
       N       E                     dE             d eps       ncg     rms          rms(c)
DAV:   1    -0.136035865916E+04    0.32304E+00   -0.12389E+01  1408   0.502E+00    0.616E-01
DAV:   2    -0.136043038708E+04   -0.71728E-01   -0.76878E-01  2320   0.211E+00    0.318E-01
DAV:   3    -0.136043480703E+04   -0.44200E-02   -0.63325E-02  2576   0.417E-01    0.258E-01
DAV:   4    -0.136043386457E+04    0.94247E-03   -0.61232E-03  2568   0.189E-01    0.179E-01
DAV:   5    -0.136043310806E+04    0.75651E-03   -0.32750E-03  2320   0.110E-01    0.678E-02
DAV:   6    -0.136043320770E+04   -0.99644E-04   -0.18698E-03  2424   0.783E-02    0.582E-02
DAV:   7    -0.136043320009E+04    0.76160E-05   -0.87736E-04  2448   0.533E-02    0.397E-02
DAV:   8    -0.136043320135E+04   -0.12686E-05   -0.33213E-04  2560   0.346E-02    0.248E-02
DAV:   9    -0.136043319680E+04    0.45507E-05   -0.59943E-05  2408   0.172E-02    0.183E-02
DAV:  10    -0.136043319665E+04    0.15470E-06   -0.33471E-05  2344   0.105E-02    0.964E-03
DAV:  11    -0.136043319672E+04   -0.72207E-07   -0.11390E-05  1880   0.773E-03    0.527E-03
DAV:  12    -0.136043319644E+04    0.27672E-06   -0.43371E-06  1312   0.556E-03
  20 F= -.13604332E+04 E0= -.13604332E+04  d E =0.248504E+00
 BRION: g(F)=  0.178E+00 g(S)=  0.000E+00 retain N=  3 mean eig= 4.64
 eig:   6.573  6.573  0.775
