 running on  160 total cores
 distrk:  each k-point on  160 cores,    1 groups
 distr:  one band on   20 cores,    8 groups
 using from now: INCAR     
 vasp.5.4.4.18Apr17-6-g9f103f2a35 (build May 01 2020 14:22:42) gamma-only       
  
 POSCAR found type information on POSCAR  O  La Zr Li Al
 POSCAR found :  5 types and     190 ions
 scaLAPACK will be used
 LDA part: xc-table for Pade appr. of Perdew
 POSCAR, INCAR and KPOINTS ok, starting setup
 FFT: planning ...
 WAVECAR not read
 WARNING: random wavefunctions but no delay for mixing, default for NELMDL
 entering main loop
       N       E                     dE             d eps       ncg     rms          rms(c)
DAV:   1     0.253763321188E+05    0.25376E+05   -0.42160E+05  1576   0.253E+03
DAV:   2     0.945980591684E+04   -0.15917E+05   -0.14707E+05  1424   0.707E+02
DAV:   3     0.270449043138E+04   -0.67553E+04   -0.61570E+04  1504   0.357E+02
DAV:   4    -0.388557785757E+03   -0.30930E+04   -0.28820E+04  2056   0.224E+02
DAV:   5    -0.142656959867E+04   -0.10380E+04   -0.10057E+04  2528   0.142E+02    0.117E+02
DAV:   6    -0.130822019266E+04    0.11835E+03   -0.14202E+03  2432   0.659E+01    0.503E+01
DAV:   7    -0.133155463632E+04   -0.23334E+02   -0.38352E+02  2568   0.336E+01    0.243E+01
DAV:   8    -0.134126813299E+04   -0.97135E+01   -0.25512E+02  2528   0.266E+01    0.261E+01
DAV:   9    -0.133387351830E+04    0.73946E+01   -0.58891E+01  2488   0.151E+01    0.750E+00
DAV:  10    -0.133508055147E+04   -0.12070E+01   -0.15819E+01  2624   0.840E+00    0.801E+00
DAV:  11    -0.133528326705E+04   -0.20272E+00   -0.71955E+00  2616   0.459E+00    0.425E+00
DAV:  12    -0.133511384996E+04    0.16942E+00   -0.30816E+00  2528   0.382E+00    0.300E+00
DAV:  13    -0.133520474979E+04   -0.90900E-01   -0.90754E-01  2544   0.184E+00    0.223E+00
DAV:  14    -0.133517713236E+04    0.27617E-01   -0.37691E-01  2608   0.122E+00    0.114E+00
DAV:  15    -0.133518784569E+04   -0.10713E-01   -0.11447E-01  2560   0.697E-01    0.108E+00
DAV:  16    -0.133518766759E+04    0.17810E-03   -0.38549E-02  2616   0.376E-01    0.698E-01
DAV:  17    -0.133518413787E+04    0.35297E-02   -0.28525E-02  2464   0.333E-01    0.334E-01
DAV:  18    -0.133518459076E+04   -0.45289E-03   -0.61277E-03  2472   0.170E-01    0.198E-01
DAV:  19    -0.133518444048E+04    0.15028E-03   -0.25956E-03  2544   0.100E-01    0.145E-01
DAV:  20    -0.133518446504E+04   -0.24567E-04   -0.74449E-04  2616   0.532E-02    0.550E-02
DAV:  21    -0.133518447802E+04   -0.12979E-04   -0.19297E-04  2624   0.284E-02    0.405E-02
DAV:  22    -0.133518449123E+04   -0.13204E-04   -0.63414E-05  2464   0.168E-02    0.213E-02
DAV:  23    -0.133518449367E+04   -0.24463E-05   -0.18830E-05  1560   0.857E-03    0.118E-02
DAV:  24    -0.133518449686E+04   -0.31851E-05   -0.12414E-05  1488   0.714E-03    0.624E-03
DAV:  25    -0.133518449699E+04   -0.13474E-06   -0.29864E-06  1024   0.489E-03
   1 F= -.13351845E+04 E0= -.13351845E+04  d E =-.133518E+04
 BRION: g(F)=  0.425E+02 g(S)=  0.000E+00
 bond charge predicted
       N       E                     dE             d eps       ncg     rms          rms(c)
DAV:   1    -0.131779685460E+04    0.17388E+02   -0.55302E+03  1592   0.112E+02    0.217E+01
DAV:   2    -0.135481279730E+04   -0.37016E+02   -0.43076E+02  2544   0.478E+01    0.110E+01
DAV:   3    -0.135405361966E+04    0.75918E+00   -0.26599E+01  2608   0.134E+01    0.792E+00
DAV:   4    -0.135258837839E+04    0.14652E+01   -0.74098E+00  2496   0.574E+00    0.395E+00
DAV:   5    -0.135225356082E+04    0.33482E+00   -0.23751E+00  2512   0.373E+00    0.258E+00
DAV:   6    -0.135219836616E+04    0.55195E-01   -0.23434E+00  2552   0.293E+00    0.128E+00
DAV:   7    -0.135221376937E+04   -0.15403E-01   -0.52483E-01  2488   0.154E+00    0.112E+00
DAV:   8    -0.135220986752E+04    0.39018E-02   -0.20902E-01  2624   0.749E-01    0.480E-01
DAV:   9    -0.135220878709E+04    0.10804E-02   -0.27827E-02  2624   0.440E-01    0.310E-01
DAV:  10    -0.135220816634E+04    0.62075E-03   -0.17174E-02  2568   0.290E-01    0.149E-01
DAV:  11    -0.135220889597E+04   -0.72963E-03   -0.96891E-03  2576   0.197E-01    0.144E-01
DAV:  12    -0.135220887047E+04    0.25504E-04   -0.22358E-03  2592   0.890E-02    0.855E-02
DAV:  13    -0.135220878787E+04    0.82603E-04   -0.13411E-03  2528   0.732E-02    0.243E-02
DAV:  14    -0.135220881534E+04   -0.27478E-04   -0.41797E-04  2480   0.423E-02    0.241E-02
DAV:  15    -0.135220882297E+04   -0.76245E-05   -0.90133E-05  2624   0.192E-02    0.219E-02
DAV:  16    -0.135220881758E+04    0.53898E-05   -0.29231E-05  2552   0.116E-02    0.132E-02
DAV:  17    -0.135220881859E+04   -0.10098E-05   -0.30963E-05  2400   0.993E-03    0.668E-03
DAV:  18    -0.135220881761E+04    0.97354E-06   -0.20060E-06  1040   0.570E-03
   2 F= -.13522088E+04 E0= -.13522088E+04  d E =-.170243E+02
 BRION: g(F)=  0.210E+02 g(S)=  0.000E+00 retain N=  1 mean eig= 0.63
 eig:   0.631
 bond charge predicted
       N       E                     dE             d eps       ncg     rms          rms(c)
DAV:   1    -0.134657539042E+04    0.56334E+01   -0.17095E+03  1384   0.580E+01    0.122E+01
DAV:   2    -0.135767120869E+04   -0.11096E+02   -0.13427E+02  2528   0.257E+01    0.107E+01
DAV:   3    -0.135797753717E+04   -0.30633E+00   -0.98583E+00  2584   0.774E+00    0.851E+00
DAV:   4    -0.135758593067E+04    0.39161E+00   -0.33489E+00  2376   0.364E+00    0.472E+00
DAV:   5    -0.135749624742E+04    0.89683E-01   -0.13311E+00  2304   0.284E+00    0.314E+00
DAV:   6    -0.135738546936E+04    0.11078E+00   -0.15290E+00  2432   0.230E+00    0.136E+00
DAV:   7    -0.135739843061E+04   -0.12961E-01   -0.39300E-01  2440   0.123E+00    0.801E-01
DAV:   8    -0.135739637511E+04    0.20555E-02   -0.69576E-02  2608   0.544E-01    0.454E-01
DAV:   9    -0.135739733470E+04   -0.95959E-03   -0.19231E-02  2616   0.291E-01    0.364E-01
DAV:  10    -0.135739599139E+04    0.13433E-02   -0.77393E-03  2504   0.193E-01    0.189E-01
DAV:  11    -0.135739608303E+04   -0.91646E-04   -0.63047E-03  2496   0.141E-01    0.782E-02
DAV:  12    -0.135739605976E+04    0.23272E-04   -0.11423E-03  2560   0.731E-02    0.344E-02
DAV:  13    -0.135739608819E+04   -0.28423E-04   -0.27952E-04  2560   0.345E-02    0.246E-02
DAV:  14    -0.135739608947E+04   -0.12847E-05   -0.10479E-04  2592   0.210E-02    0.963E-03
DAV:  15    -0.135739609407E+04   -0.45993E-05   -0.46853E-05  2520   0.134E-02    0.103E-02
DAV:  16    -0.135739609323E+04    0.84276E-06   -0.46811E-06  1200   0.683E-03
   3 F= -.13573961E+04 E0= -.13573961E+04  d E =-.518728E+01
 BRION: g(F)=  0.486E+01 g(S)=  0.000E+00 retain N=  2 mean eig= 1.00
 eig:   0.438  1.570
 bond charge predicted
       N       E                     dE             d eps       ncg     rms          rms(c)
DAV:   1    -0.135861430289E+04   -0.12182E+01   -0.32337E+02  1352   0.263E+01    0.531E+00
DAV:   2    -0.136018208475E+04   -0.15678E+01   -0.17560E+01  2280   0.100E+01    0.244E+00
DAV:   3    -0.136021545029E+04   -0.33366E-01   -0.14291E+00  2608   0.227E+00    0.201E+00
DAV:   4    -0.136016287007E+04    0.52580E-01   -0.42202E-01  2520   0.132E+00    0.940E-01
DAV:   5    -0.136015874088E+04    0.41292E-02   -0.10988E-01  2408   0.746E-01    0.636E-01
DAV:   6    -0.136015685677E+04    0.18841E-02   -0.79392E-02  2568   0.516E-01    0.304E-01
DAV:   7    -0.136015687684E+04   -0.20069E-04   -0.21380E-02  2336   0.279E-01    0.239E-01
DAV:   8    -0.136015688521E+04   -0.83734E-05   -0.75707E-03  2384   0.152E-01    0.143E-01
DAV:   9    -0.136015667017E+04    0.21505E-03   -0.24173E-03  2624   0.988E-02    0.780E-02
DAV:  10    -0.136015680558E+04   -0.13541E-03   -0.22111E-03  2512   0.800E-02    0.941E-02
DAV:  11    -0.136015669265E+04    0.11292E-03   -0.94083E-04  2528   0.580E-02    0.306E-02
DAV:  12    -0.136015670254E+04   -0.98834E-05   -0.23668E-04  2384   0.326E-02    0.159E-02
DAV:  13    -0.136015670816E+04   -0.56272E-05   -0.74787E-05  2488   0.148E-02    0.110E-02
DAV:  14    -0.136015670791E+04    0.25990E-06   -0.14232E-05  2144   0.849E-03    0.716E-03
DAV:  15    -0.136015670829E+04   -0.38544E-06   -0.75781E-06  1592   0.596E-03
   4 F= -.13601567E+04 E0= -.13601567E+04  d E =-.276062E+01
 BRION: g(F)=  0.153E+01 g(S)=  0.000E+00 retain N=  3 mean eig= 1.10
 eig:   0.634  1.339  1.339
 bond charge predicted
       N       E                     dE             d eps       ncg     rms          rms(c)
DAV:   1    -0.136074517936E+04   -0.58847E+00   -0.16166E+02  1360   0.183E+01    0.258E+00
DAV:   2    -0.136153879458E+04   -0.79362E+00   -0.85245E+00  2288   0.695E+00    0.131E+00
DAV:   3    -0.136157007046E+04   -0.31276E-01   -0.64872E-01  2584   0.144E+00    0.109E+00
DAV:   4    -0.136155124282E+04    0.18828E-01   -0.10648E-01  2584   0.695E-01    0.626E-01
DAV:   5    -0.136154460695E+04    0.66359E-02   -0.49635E-02  2360   0.446E-01    0.314E-01
DAV:   6    -0.136154519743E+04   -0.59049E-03   -0.22640E-02  2552   0.303E-01    0.261E-01
DAV:   7    -0.136154470800E+04    0.48943E-03   -0.13513E-02  2392   0.211E-01    0.154E-01
DAV:   8    -0.136154476908E+04   -0.61080E-04   -0.41697E-03  2504   0.122E-01    0.863E-02
DAV:   9    -0.136154472562E+04    0.43467E-04   -0.76423E-04  2560   0.584E-02    0.603E-02
DAV:  10    -0.136154476066E+04   -0.35039E-04   -0.71808E-04  2336   0.440E-02    0.506E-02
DAV:  11    -0.136154472544E+04    0.35213E-04   -0.33489E-04  2512   0.378E-02    0.179E-02
DAV:  12    -0.136154473335E+04   -0.79038E-05   -0.13862E-04  2416   0.230E-02    0.178E-02
DAV:  13    -0.136154473042E+04    0.29253E-05   -0.41471E-05  2312   0.127E-02    0.790E-03
DAV:  14    -0.136154473061E+04   -0.18915E-06   -0.13115E-05  1760   0.750E-03    0.369E-03
DAV:  15    -0.136154473095E+04   -0.34302E-06   -0.19854E-06  1032   0.483E-03
   5 F= -.13615447E+04 E0= -.13615447E+04  d E =-.138802E+01
 BRION: g(F)=  0.997E+00 g(S)=  0.000E+00 retain N=  4 mean eig= 1.80
 eig:   2.839  2.839  0.753  0.753
 bond charge predicted
       N       E                     dE             d eps       ncg     rms          rms(c)
DAV:   1    -0.136197685714E+04   -0.43213E+00   -0.99277E+01  1352   0.143E+01    0.191E+00
DAV:   2    -0.136246748090E+04   -0.49062E+00   -0.52110E+00  2296   0.546E+00    0.103E+00
DAV:   3    -0.136248751068E+04   -0.20030E-01   -0.38499E-01  2592   0.110E+00    0.811E-01
DAV:   4    -0.136247608363E+04    0.11427E-01   -0.63487E-02  2528   0.542E-01    0.440E-01
DAV:   5    -0.136247397556E+04    0.21081E-02   -0.26892E-02  2440   0.337E-01    0.232E-01
DAV:   6    -0.136247433383E+04   -0.35826E-03   -0.12170E-02  2576   0.210E-01    0.145E-01
DAV:   7    -0.136247426509E+04    0.68738E-04   -0.35505E-03  2448   0.123E-01    0.971E-02
DAV:   8    -0.136247428360E+04   -0.18516E-04   -0.14711E-03  2512   0.687E-02    0.548E-02
DAV:   9    -0.136247425983E+04    0.23775E-04   -0.30844E-04  2616   0.388E-02    0.346E-02
DAV:  10    -0.136247427362E+04   -0.13793E-04   -0.28297E-04  2480   0.287E-02    0.297E-02
DAV:  11    -0.136247426378E+04    0.98379E-05   -0.10889E-04  2480   0.218E-02    0.995E-03
DAV:  12    -0.136247426591E+04   -0.21260E-05   -0.36575E-05  2192   0.124E-02    0.883E-03
DAV:  13    -0.136247426540E+04    0.50715E-06   -0.10413E-05  1712   0.691E-03    0.426E-03
DAV:  14    -0.136247426534E+04    0.68059E-07   -0.21075E-06  1048   0.510E-03
   6 F= -.13624743E+04 E0= -.13624743E+04  d E =-.929534E+00
 BRION: g(F)=  0.595E+00 g(S)=  0.000E+00 retain N=  5 mean eig= 2.23
 eig:   4.358  4.358  0.852  0.852  0.728
 bond charge predicted
       N       E                     dE             d eps       ncg     rms          rms(c)
DAV:   1    -0.136280434304E+04   -0.33008E+00   -0.67991E+01  1384   0.118E+01    0.152E+00
DAV:   2    -0.136315896045E+04   -0.35462E+00   -0.37624E+00  2296   0.477E+00    0.785E-01
DAV:   3    -0.136317696586E+04   -0.18005E-01   -0.29171E-01  2584   0.926E-01    0.636E-01
DAV:   4    -0.136317069299E+04    0.62729E-02   -0.36573E-02  2576   0.438E-01    0.400E-01
DAV:   5    -0.136316755769E+04    0.31353E-02   -0.17989E-02  2360   0.275E-01    0.166E-01
DAV:   6    -0.136316810291E+04   -0.54522E-03   -0.97100E-03  2496   0.194E-01    0.144E-01
DAV:   7    -0.136316801157E+04    0.91334E-04   -0.41739E-03  2440   0.123E-01    0.100E-01
DAV:   8    -0.136316800233E+04    0.92456E-05   -0.18813E-03  2560   0.785E-02    0.545E-02
DAV:   9    -0.136316798249E+04    0.19842E-04   -0.30493E-04  2544   0.393E-02    0.408E-02
DAV:  10    -0.136316798551E+04   -0.30215E-05   -0.29312E-04  2320   0.295E-02    0.274E-02
DAV:  11    -0.136316798033E+04    0.51771E-05   -0.92035E-05  2408   0.219E-02    0.122E-02
DAV:  12    -0.136316798330E+04   -0.29661E-05   -0.49819E-05  2336   0.133E-02    0.128E-02
DAV:  13    -0.136316798125E+04    0.20522E-05   -0.18017E-05  1904   0.882E-03    0.528E-03
DAV:  14    -0.136316798145E+04   -0.20405E-06   -0.64632E-06  1512   0.598E-03
   7 F= -.13631680E+04 E0= -.13631680E+04  d E =-.693716E+00
 BRION: g(F)=  0.361E+00 g(S)=  0.000E+00 retain N=  6 mean eig= 2.97
 eig:   6.532  6.532  1.561  1.561  0.806  0.806
 bond charge predicted
       N       E                     dE             d eps       ncg     rms          rms(c)
DAV:   1    -0.136335816493E+04   -0.19018E+00   -0.93061E+01  1384   0.138E+01    0.171E+00
DAV:   2    -0.136385394752E+04   -0.49578E+00   -0.52641E+00  2280   0.569E+00    0.875E-01
DAV:   3    -0.136388277646E+04   -0.28829E-01   -0.41366E-01  2592   0.109E+00    0.723E-01
DAV:   4    -0.136387610829E+04    0.66682E-02   -0.43092E-02  2600   0.494E-01    0.494E-01
DAV:   5    -0.136387068263E+04    0.54257E-02   -0.24164E-02  2312   0.323E-01    0.191E-01
DAV:   6    -0.136387167028E+04   -0.98764E-03   -0.15358E-02  2448   0.234E-01    0.185E-01
DAV:   7    -0.136387149433E+04    0.17595E-03   -0.58473E-03  2464   0.144E-01    0.129E-01
DAV:   8    -0.136387140619E+04    0.88136E-04   -0.26501E-03  2576   0.951E-02    0.608E-02
DAV:   9    -0.136387138105E+04    0.25145E-04   -0.45784E-04  2328   0.467E-02    0.439E-02
DAV:  10    -0.136387138600E+04   -0.49555E-05   -0.21861E-04  2384   0.274E-02    0.250E-02
DAV:  11    -0.136387138447E+04    0.15283E-05   -0.62739E-05  2472   0.181E-02    0.136E-02
DAV:  12    -0.136387138687E+04   -0.23978E-05   -0.42367E-05  2344   0.124E-02    0.139E-02
DAV:  13    -0.136387138462E+04    0.22526E-05   -0.19550E-05  1904   0.856E-03    0.629E-03
DAV:  14    -0.136387138456E+04    0.57204E-07   -0.47910E-06  1312   0.576E-03
   8 F= -.13638714E+04 E0= -.13638714E+04  d E =-.703403E+00
 BRION: g(F)=  0.247E+00 g(S)=  0.000E+00 retain N=  6 mean eig= 3.07
 eig:   6.875  6.875  1.439  1.439  0.898  0.898
 bond charge predicted
       N       E                     dE             d eps       ncg     rms          rms(c)
DAV:   1    -0.136399259905E+04   -0.12121E+00   -0.82387E+01  1384   0.130E+01    0.159E+00
DAV:   2    -0.136443765460E+04   -0.44506E+00   -0.47302E+00  2296   0.538E+00    0.793E-01
DAV:   3    -0.136446373184E+04   -0.26077E-01   -0.37132E-01  2592   0.101E+00    0.656E-01
DAV:   4    -0.136445817900E+04    0.55528E-02   -0.36509E-02  2608   0.459E-01    0.460E-01
DAV:   5    -0.136445290756E+04    0.52714E-02   -0.19298E-02  2312   0.291E-01    0.180E-01
DAV:   6    -0.136445360109E+04   -0.69353E-03   -0.13731E-02  2376   0.217E-01    0.157E-01
DAV:   7    -0.136445354163E+04    0.59455E-04   -0.52913E-03  2456   0.135E-01    0.116E-01
DAV:   8    -0.136445348644E+04    0.55190E-04   -0.20282E-03  2568   0.851E-02    0.587E-02
DAV:   9    -0.136445344994E+04    0.36501E-04   -0.50160E-04  2304   0.456E-02    0.390E-02
DAV:  10    -0.136445345951E+04   -0.95706E-05   -0.20213E-04  2384   0.269E-02    0.255E-02
DAV:  11    -0.136445345550E+04    0.40161E-05   -0.70198E-05  2440   0.184E-02    0.135E-02
DAV:  12    -0.136445345745E+04   -0.19510E-05   -0.41677E-05  2336   0.130E-02    0.132E-02
DAV:  13    -0.136445345568E+04    0.17666E-05   -0.20088E-05  1888   0.857E-03    0.609E-03
DAV:  14    -0.136445345573E+04   -0.45460E-07   -0.66145E-06  1520   0.599E-03
   9 F= -.13644535E+04 E0= -.13644535E+04  d E =-.582071E+00
 BRION: g(F)=  0.184E+00 g(S)=  0.000E+00 retain N=  5 mean eig= 4.17
 eig:   7.696  7.696  2.129  2.129  1.204
 bond charge predicted
       N       E                     dE             d eps       ncg     rms          rms(c)
DAV:   1    -0.136457481869E+04   -0.12136E+00   -0.56426E+01  1384   0.109E+01    0.131E+00
DAV:   2    -0.136488318283E+04   -0.30836E+00   -0.33068E+00  2296   0.447E+00    0.657E-01
DAV:   3    -0.136490244984E+04   -0.19267E-01   -0.27015E-01  2592   0.873E-01    0.550E-01
DAV:   4    -0.136489889698E+04    0.35529E-02   -0.25883E-02  2608   0.395E-01    0.398E-01
DAV:   5    -0.136489517118E+04    0.37258E-02   -0.14313E-02  2312   0.238E-01    0.159E-01
DAV:   6    -0.136489551409E+04   -0.34291E-03   -0.90459E-03  2400   0.174E-01    0.133E-01
DAV:   7    -0.136489546675E+04    0.47334E-04   -0.40969E-03  2440   0.118E-01    0.912E-02
DAV:   8    -0.136489544773E+04    0.19023E-04   -0.15679E-03  2576   0.770E-02    0.558E-02
DAV:   9    -0.136489542640E+04    0.21331E-04   -0.32926E-04  2432   0.385E-02    0.371E-02
DAV:  10    -0.136489543106E+04   -0.46596E-05   -0.15770E-04  2472   0.228E-02    0.193E-02
DAV:  11    -0.136489543359E+04   -0.25337E-05   -0.43729E-05  2416   0.149E-02    0.133E-02
DAV:  12    -0.136489543271E+04    0.88665E-06   -0.25813E-05  2296   0.111E-02    0.106E-02
DAV:  13    -0.136489543198E+04    0.72790E-06   -0.16934E-05  1832   0.767E-03    0.530E-03
DAV:  14    -0.136489543181E+04    0.16837E-06   -0.36163E-06  1192   0.539E-03
  10 F= -.13648954E+04 E0= -.13648954E+04  d E =-.441976E+00
 BRION: g(F)=  0.153E+00 g(S)=  0.000E+00 retain N=  4 mean eig= 4.07
 eig:   6.376  6.376  1.755  1.755
 bond charge predicted
       N       E                     dE             d eps       ncg     rms          rms(c)
DAV:   1    -0.136504131496E+04   -0.14588E+00   -0.27412E+01  1376   0.753E+00    0.909E-01
DAV:   2    -0.136518860126E+04   -0.14729E+00   -0.15789E+00  2288   0.305E+00    0.457E-01
DAV:   3    -0.136519728583E+04   -0.86846E-02   -0.12732E-01  2584   0.601E-01    0.375E-01
DAV:   4    -0.136519523601E+04    0.20498E-02   -0.12578E-02  2592   0.271E-01    0.265E-01
DAV:   5    -0.136519319794E+04    0.20381E-02   -0.70192E-03  2304   0.176E-01    0.102E-01
DAV:   6    -0.136519339557E+04   -0.19763E-03   -0.50212E-03  2384   0.132E-01    0.918E-02
DAV:   7    -0.136519339303E+04    0.25408E-05   -0.18851E-03  2432   0.805E-02    0.674E-02
DAV:   8    -0.136519337357E+04    0.19458E-04   -0.69575E-04  2592   0.492E-02    0.338E-02
DAV:   9    -0.136519336313E+04    0.10440E-04   -0.16073E-04  2312   0.267E-02    0.228E-02
DAV:  10    -0.136519336580E+04   -0.26712E-05   -0.62035E-05  2336   0.152E-02    0.150E-02
DAV:  11    -0.136519336451E+04    0.12880E-05   -0.23582E-05  2272   0.105E-02    0.764E-03
DAV:  12    -0.136519336505E+04   -0.53120E-06   -0.11727E-05  1768   0.739E-03    0.728E-03
DAV:  13    -0.136519336445E+04    0.59590E-06   -0.50037E-06  1376   0.545E-03
  11 F= -.13651934E+04 E0= -.13651934E+04  d E =-.297933E+00
 BRION: g(F)=  0.139E+00 g(S)=  0.000E+00 retain N=  3 mean eig= 4.76
 eig:   6.227  6.227  1.829
 bond charge predicted
       N       E                     dE             d eps       ncg     rms          rms(c)
DAV:   1    -0.136533013629E+04   -0.13677E+00   -0.25558E+01  1376   0.726E+00    0.864E-01
DAV:   2    -0.136546624002E+04   -0.13610E+00   -0.14589E+00  2296   0.288E+00    0.432E-01
DAV:   3    -0.136547464716E+04   -0.84071E-02   -0.11922E-01  2576   0.576E-01    0.360E-01
DAV:   4    -0.136547304749E+04    0.15997E-02   -0.11560E-02  2608   0.258E-01    0.258E-01
DAV:   5    -0.136547128145E+04    0.17660E-02   -0.60954E-03  2328   0.158E-01    0.104E-01
DAV:   6    -0.136547139606E+04   -0.11460E-03   -0.40695E-03  2384   0.118E-01    0.856E-02
DAV:   7    -0.136547138191E+04    0.14152E-04   -0.17815E-03  2440   0.790E-02    0.606E-02
DAV:   8    -0.136547137342E+04    0.84826E-05   -0.66663E-04  2544   0.500E-02    0.371E-02
DAV:   9    -0.136547136448E+04    0.89417E-05   -0.14883E-04  2456   0.256E-02    0.248E-02
DAV:  10    -0.136547136601E+04   -0.15303E-05   -0.69164E-05  2472   0.149E-02    0.133E-02
DAV:  11    -0.136547136729E+04   -0.12801E-05   -0.20607E-05  2184   0.106E-02    0.955E-03
DAV:  12    -0.136547136657E+04    0.71824E-06   -0.12076E-05  1792   0.802E-03    0.771E-03
DAV:  13    -0.136547136629E+04    0.28752E-06   -0.99159E-06  1712   0.628E-03
  12 F= -.13654714E+04 E0= -.13654714E+04  d E =-.278002E+00
 BRION: g(F)=  0.126E+00 g(S)=  0.000E+00 retain N=  3 mean eig= 4.44
 eig:   5.904  5.904  1.501
 bond charge predicted
       N       E                     dE             d eps       ncg     rms          rms(c)
DAV:   1    -0.136559904369E+04   -0.12768E+00   -0.13723E+01  1376   0.531E+00    0.621E-01
DAV:   2    -0.136567041588E+04   -0.71372E-01   -0.76261E-01  2296   0.208E+00    0.316E-01
DAV:   3    -0.136567465009E+04   -0.42342E-02   -0.61545E-02  2576   0.417E-01    0.258E-01
DAV:   4    -0.136567369454E+04    0.95556E-03   -0.59734E-03  2584   0.183E-01    0.182E-01
DAV:   5    -0.136567276176E+04    0.93277E-03   -0.32451E-03  2312   0.114E-01    0.704E-02
DAV:   6    -0.136567282766E+04   -0.65901E-04   -0.20381E-03  2424   0.825E-02    0.592E-02
DAV:   7    -0.136567282603E+04    0.16339E-05   -0.80515E-04  2448   0.530E-02    0.418E-02
DAV:   8    -0.136567281888E+04    0.71535E-05   -0.30515E-04  2568   0.338E-02    0.232E-02
DAV:   9    -0.136567281665E+04    0.22233E-05   -0.61657E-05  2408   0.169E-02    0.164E-02
DAV:  10    -0.136567281707E+04   -0.41894E-06   -0.29814E-05  2408   0.102E-02    0.886E-03
DAV:  11    -0.136567281681E+04    0.26402E-06   -0.55255E-06  1336   0.726E-03
  13 F= -.13656728E+04 E0= -.13656728E+04  d E =-.201451E+00
 BRION: g(F)=  0.117E+00 g(S)=  0.000E+00 retain N=  3 mean eig= 3.57
 eig:   4.737  4.737  1.250
 bond charge predicted
       N       E                     dE             d eps       ncg     rms          rms(c)
DAV:   1    -0.136580276651E+04   -0.12995E+00   -0.20725E+01  1376   0.650E+00    0.744E-01
DAV:   2    -0.136590886891E+04   -0.10610E+00   -0.11282E+00  2304   0.252E+00    0.375E-01
DAV:   3    -0.136591519901E+04   -0.63301E-02   -0.90068E-02  2584   0.496E-01    0.302E-01
DAV:   4    -0.136591384409E+04    0.13549E-02   -0.81573E-03  2600   0.215E-01    0.215E-01
DAV:   5    -0.136591245434E+04    0.13897E-02   -0.45115E-03  2240   0.135E-01    0.807E-02
DAV:   6    -0.136591257667E+04   -0.12233E-03   -0.29908E-03  2424   0.976E-02    0.695E-02
DAV:   7    -0.136591257146E+04    0.52053E-05   -0.10326E-03  2416   0.599E-02    0.489E-02
DAV:   8    -0.136591256158E+04    0.98774E-05   -0.40605E-04  2584   0.386E-02    0.268E-02
DAV:   9    -0.136591255778E+04    0.38045E-05   -0.78438E-05  2384   0.193E-02    0.187E-02
DAV:  10    -0.136591255826E+04   -0.48286E-06   -0.37607E-05  2424   0.116E-02    0.874E-03
DAV:  11    -0.136591255836E+04   -0.95039E-07   -0.54675E-06  1376   0.723E-03
  14 F= -.13659126E+04 E0= -.13659126E+04  d E =-.239742E+00
 BRION: g(F)=  0.109E+00 g(S)=  0.000E+00 retain N=  3 mean eig= 4.32
 eig:   5.807  5.807  1.349
 bond charge predicted
       N       E                     dE             d eps       ncg     rms          rms(c)
DAV:   1    -0.136604005841E+04   -0.12750E+00   -0.22474E+01  1376   0.671E+00    0.763E-01
DAV:   2    -0.136615402483E+04   -0.11397E+00   -0.12057E+00  2304   0.260E+00    0.386E-01
DAV:   3    -0.136616087201E+04   -0.68472E-02   -0.95714E-02  2568   0.505E-01    0.314E-01
DAV:   4    -0.136615956465E+04    0.13074E-02   -0.86159E-03  2608   0.217E-01    0.225E-01
DAV:   5    -0.136615803268E+04    0.15320E-02   -0.44992E-03  2240   0.140E-01    0.869E-02
DAV:   6    -0.136615814995E+04   -0.11727E-03   -0.34156E-03  2328   0.105E-01    0.734E-02
DAV:   7    -0.136615814772E+04    0.22304E-05   -0.12282E-03  2440   0.641E-02    0.550E-02
DAV:   8    -0.136615813162E+04    0.16099E-04   -0.44490E-04  2544   0.407E-02    0.295E-02
DAV:   9    -0.136615812524E+04    0.63808E-05   -0.10874E-04  2312   0.216E-02    0.195E-02
DAV:  10    -0.136615812688E+04   -0.16346E-05   -0.45069E-05  2360   0.126E-02    0.111E-02
DAV:  11    -0.136615812634E+04    0.54123E-06   -0.78317E-06  1568   0.811E-03
  15 F= -.13661581E+04 E0= -.13661581E+04  d E =-.245568E+00
 BRION: g(F)=  0.103E+00 g(S)=  0.000E+00 retain N=  3 mean eig= 4.25
 eig:   5.677  5.677  1.385
 bond charge predicted
       N       E                     dE             d eps       ncg     rms          rms(c)
DAV:   1    -0.136627686664E+04   -0.11874E+00   -0.23161E+01  1368   0.685E+00    0.776E-01
DAV:   2    -0.136639359564E+04   -0.11673E+00   -0.12368E+00  2296   0.266E+00    0.395E-01
DAV:   3    -0.136640062204E+04   -0.70264E-02   -0.98831E-02  2568   0.518E-01    0.314E-01
DAV:   4    -0.136639911775E+04    0.15043E-02   -0.88872E-03  2584   0.221E-01    0.221E-01
DAV:   5    -0.136639773546E+04    0.13823E-02   -0.50574E-03  2216   0.139E-01    0.812E-02
DAV:   6    -0.136639788670E+04   -0.15124E-03   -0.29307E-03  2464   0.969E-02    0.728E-02
DAV:   7    -0.136639787568E+04    0.11023E-04   -0.11187E-03  2480   0.618E-02    0.481E-02
DAV:   8    -0.136639786588E+04    0.98041E-05   -0.39274E-04  2576   0.389E-02    0.280E-02
DAV:   9    -0.136639786332E+04    0.25538E-05   -0.69931E-05  2528   0.187E-02    0.196E-02
DAV:  10    -0.136639786350E+04   -0.17883E-06   -0.41484E-05  2544   0.117E-02    0.802E-03
DAV:  11    -0.136639786375E+04   -0.25204E-06   -0.53197E-06  1344   0.744E-03
  16 F= -.13663979E+04 E0= -.13663979E+04  d E =-.239737E+00
 BRION: g(F)=  0.964E-01 g(S)=  0.000E+00 retain N=  3 mean eig= 5.23
 eig:   6.944  6.944  1.801
 bond charge predicted
       N       E                     dE             d eps       ncg     rms          rms(c)
DAV:   1    -0.136651223094E+04   -0.11437E+00   -0.22549E+01  1368   0.670E+00    0.750E-01
DAV:   2    -0.136662512196E+04   -0.11289E+00   -0.11882E+00  2312   0.259E+00    0.382E-01
DAV:   3    -0.136663190883E+04   -0.67869E-02   -0.93559E-02  2568   0.492E-01    0.305E-01
DAV:   4    -0.136663061267E+04    0.12962E-02   -0.82257E-03  2576   0.210E-01    0.217E-01
DAV:   5    -0.136662922311E+04    0.13896E-02   -0.43349E-03  2232   0.135E-01    0.802E-02
DAV:   6    -0.136662936590E+04   -0.14279E-03   -0.30589E-03  2384   0.982E-02    0.694E-02
DAV:   7    -0.136662935909E+04    0.68071E-05   -0.98179E-04  2432   0.585E-02    0.503E-02
DAV:   8    -0.136662934646E+04    0.12630E-04   -0.39066E-04  2552   0.374E-02    0.268E-02
DAV:   9    -0.136662934196E+04    0.44979E-05   -0.80426E-05  2344   0.194E-02    0.186E-02
DAV:  10    -0.136662934238E+04   -0.42096E-06   -0.36416E-05  2384   0.116E-02    0.913E-03
DAV:  11    -0.136662934225E+04    0.12902E-06   -0.53236E-06  1368   0.731E-03
  17 F= -.13666293E+04 E0= -.13666293E+04  d E =-.231478E+00
 BRION: g(F)=  0.914E-01 g(S)=  0.000E+00 retain N=  3 mean eig= 5.05
 eig:   6.576  6.576  2.008
 bond charge predicted
       N       E                     dE             d eps       ncg     rms          rms(c)
DAV:   1    -0.136673846790E+04   -0.10913E+00   -0.18610E+01  1360   0.611E+00    0.687E-01
DAV:   2    -0.136683198161E+04   -0.93514E-01   -0.98625E-01  2296   0.238E+00    0.355E-01
DAV:   3    -0.136683755494E+04   -0.55733E-02   -0.78252E-02  2576   0.454E-01    0.281E-01
DAV:   4    -0.136683634065E+04    0.12143E-02   -0.69902E-03  2576   0.195E-01    0.195E-01
DAV:   5    -0.136683528127E+04    0.10594E-02   -0.37785E-03  2224   0.121E-01    0.715E-02
DAV:   6    -0.136683539482E+04   -0.11356E-03   -0.22609E-03  2448   0.850E-02    0.614E-02
DAV:   7    -0.136683539016E+04    0.46662E-05   -0.82704E-04  2464   0.530E-02    0.414E-02
DAV:   8    -0.136683538337E+04    0.67915E-05   -0.29186E-04  2560   0.337E-02    0.239E-02
DAV:   9    -0.136683538161E+04    0.17521E-05   -0.56931E-05  2504   0.166E-02    0.170E-02
DAV:  10    -0.136683538170E+04   -0.87166E-07   -0.30325E-05  2480   0.102E-02    0.793E-03
DAV:  11    -0.136683538165E+04    0.49302E-07   -0.43460E-06  1224   0.696E-03
  18 F= -.13668354E+04 E0= -.13668354E+04  d E =-.206039E+00
 BRION: g(F)=  0.873E-01 g(S)=  0.000E+00 retain N=  3 mean eig= 4.61
 eig:   6.082  6.082  1.666
 bond charge predicted
       N       E                     dE             d eps       ncg     rms          rms(c)
DAV:   1    -0.136693048699E+04   -0.95105E-01   -0.27402E+01  1360   0.739E+00    0.827E-01
DAV:   2    -0.136706795745E+04   -0.13747E+00   -0.14453E+00  2296   0.287E+00    0.426E-01
DAV:   3    -0.136707616564E+04   -0.82082E-02   -0.11389E-01  2568   0.545E-01    0.333E-01
DAV:   4    -0.136707445201E+04    0.17136E-02   -0.10093E-02  2568   0.232E-01    0.232E-01
DAV:   5    -0.136707295264E+04    0.14994E-02   -0.52104E-03  2280   0.143E-01    0.853E-02
DAV:   6    -0.136707309699E+04   -0.14435E-03   -0.30707E-03  2432   0.993E-02    0.682E-02
DAV:   7    -0.136707309683E+04    0.16857E-06   -0.10971E-03  2448   0.615E-02    0.471E-02
DAV:   8    -0.136707309175E+04    0.50733E-05   -0.40035E-04  2584   0.391E-02    0.293E-02
DAV:   9    -0.136707308783E+04    0.39199E-05   -0.81735E-05  2504   0.197E-02    0.202E-02
DAV:  10    -0.136707308746E+04    0.37689E-06   -0.42493E-05  2560   0.121E-02    0.882E-03
DAV:  11    -0.136707308794E+04   -0.48429E-06   -0.61604E-06  1440   0.741E-03
  19 F= -.13670731E+04 E0= -.13670731E+04  d E =-.237706E+00
 BRION: g(F)=  0.789E-01 g(S)=  0.000E+00 retain N=  3 mean eig= 5.71
 eig:   7.777  7.777  1.562
 bond charge predicted
       N       E                     dE             d eps       ncg     rms          rms(c)
DAV:   1    -0.136716554242E+04   -0.92455E-01   -0.22544E+01  1360   0.667E+00    0.744E-01
DAV:   2    -0.136727870898E+04   -0.11317E+00   -0.11881E+00  2296   0.260E+00    0.384E-01
DAV:   3    -0.136728552926E+04   -0.68203E-02   -0.94122E-02  2568   0.492E-01    0.303E-01
DAV:   4    -0.136728420427E+04    0.13250E-02   -0.83438E-03  2592   0.210E-01    0.213E-01
DAV:   5    -0.136728291641E+04    0.12879E-02   -0.40800E-03  2288   0.129E-01    0.824E-02
DAV:   6    -0.136728300695E+04   -0.90544E-04   -0.27271E-03  2400   0.935E-02    0.631E-02
DAV:   7    -0.136728300869E+04   -0.17413E-05   -0.10748E-03  2424   0.602E-02    0.455E-02
DAV:   8    -0.136728300285E+04    0.58442E-05   -0.35978E-04  2568   0.373E-02    0.281E-02
DAV:   9    -0.136728299832E+04    0.45293E-05   -0.86977E-05  2464   0.194E-02    0.191E-02
DAV:  10    -0.136728299851E+04   -0.18722E-06   -0.42520E-05  2456   0.120E-02    0.990E-03
DAV:  11    -0.136728299878E+04   -0.27010E-06   -0.96709E-06  1648   0.827E-03
  20 F= -.13672830E+04 E0= -.13672830E+04  d E =-.209911E+00
 BRION: g(F)=  0.727E-01 g(S)=  0.000E+00 retain N=  3 mean eig= 5.60
 eig:   7.629  7.629  1.547
