 running on  160 total cores
 distrk:  each k-point on  160 cores,    1 groups
 distr:  one band on   20 cores,    8 groups
 using from now: INCAR     
 vasp.5.4.4.18Apr17-6-g9f103f2a35 (build May 01 2020 14:22:42) gamma-only       
  
 POSCAR found type information on POSCAR  O  La Zr Li Al
 POSCAR found :  5 types and     190 ions
 scaLAPACK will be used
 LDA part: xc-table for Pade appr. of Perdew
 POSCAR, INCAR and KPOINTS ok, starting setup
 FFT: planning ...
 WAVECAR not read
 WARNING: random wavefunctions but no delay for mixing, default for NELMDL
 entering main loop
       N       E                     dE             d eps       ncg     rms          rms(c)
DAV:   1     0.252702312671E+05    0.25270E+05   -0.42183E+05  1576   0.253E+03
DAV:   2     0.935445032526E+04   -0.15916E+05   -0.14687E+05  1416   0.705E+02
DAV:   3     0.266365844832E+04   -0.66908E+04   -0.60903E+04  1496   0.356E+02
DAV:   4    -0.390893269598E+03   -0.30546E+04   -0.28536E+04  2032   0.224E+02
DAV:   5    -0.142885188860E+04   -0.10380E+04   -0.99736E+03  2528   0.141E+02    0.117E+02
DAV:   6    -0.131071843213E+04    0.11813E+03   -0.14313E+03  2456   0.650E+01    0.503E+01
DAV:   7    -0.133401427354E+04   -0.23296E+02   -0.38123E+02  2568   0.336E+01    0.242E+01
DAV:   8    -0.134444765550E+04   -0.10433E+02   -0.26253E+02  2536   0.262E+01    0.267E+01
DAV:   9    -0.133614303222E+04    0.83046E+01   -0.61844E+01  2448   0.154E+01    0.770E+00
DAV:  10    -0.133742426029E+04   -0.12812E+01   -0.15670E+01  2616   0.845E+00    0.835E+00
DAV:  11    -0.133747807201E+04   -0.53812E-01   -0.75700E+00  2624   0.470E+00    0.427E+00
DAV:  12    -0.133732996038E+04    0.14811E+00   -0.25973E+00  2568   0.367E+00    0.296E+00
DAV:  13    -0.133741312406E+04   -0.83164E-01   -0.95919E-01  2584   0.184E+00    0.216E+00
DAV:  14    -0.133738897505E+04    0.24149E-01   -0.35362E-01  2608   0.119E+00    0.113E+00
DAV:  15    -0.133740008164E+04   -0.11107E-01   -0.11474E-01  2544   0.681E-01    0.107E+00
DAV:  16    -0.133739946083E+04    0.62081E-03   -0.42024E-02  2608   0.384E-01    0.673E-01
DAV:  17    -0.133739557793E+04    0.38829E-02   -0.30002E-02  2480   0.343E-01    0.288E-01
DAV:  18    -0.133739598355E+04   -0.40562E-03   -0.62389E-03  2456   0.171E-01    0.164E-01
DAV:  19    -0.133739585579E+04    0.12776E-03   -0.31486E-03  2464   0.105E-01    0.107E-01
DAV:  20    -0.133739591777E+04   -0.61982E-04   -0.72494E-04  2600   0.545E-02    0.237E-02
DAV:  21    -0.133739592799E+04   -0.10218E-04   -0.17794E-04  2616   0.282E-02    0.340E-02
DAV:  22    -0.133739594643E+04   -0.18434E-04   -0.62995E-05  2488   0.161E-02    0.146E-02
DAV:  23    -0.133739594185E+04    0.45773E-05   -0.33169E-05  2144   0.111E-02    0.657E-03
DAV:  24    -0.133739594535E+04   -0.35002E-05   -0.11073E-05  1472   0.874E-03    0.160E-03
DAV:  25    -0.133739594507E+04    0.27686E-06   -0.38744E-06  1040   0.541E-03
   1 F= -.13373959E+04 E0= -.13373959E+04  d E =-.133740E+04
 BRION: g(F)=  0.461E+02 g(S)=  0.000E+00
 bond charge predicted
       N       E                     dE             d eps       ncg     rms          rms(c)
DAV:   1    -0.131674861053E+04    0.20647E+02   -0.52154E+03  1592   0.109E+02    0.203E+01
DAV:   2    -0.135254267183E+04   -0.35794E+02   -0.42210E+02  2560   0.475E+01    0.115E+01
DAV:   3    -0.135205852318E+04    0.48415E+00   -0.27488E+01  2624   0.133E+01    0.808E+00
DAV:   4    -0.135086205088E+04    0.11965E+01   -0.68834E+00  2536   0.536E+00    0.426E+00
DAV:   5    -0.135051639292E+04    0.34566E+00   -0.18268E+00  2520   0.328E+00    0.246E+00
DAV:   6    -0.135043318750E+04    0.83205E-01   -0.18174E+00  2456   0.279E+00    0.102E+00
DAV:   7    -0.135047902590E+04   -0.45838E-01   -0.62831E-01  2352   0.162E+00    0.116E+00
DAV:   8    -0.135047391299E+04    0.51129E-02   -0.12036E-01  2608   0.618E-01    0.747E-01
DAV:   9    -0.135047103350E+04    0.28795E-02   -0.89851E-02  2568   0.535E-01    0.346E-01
DAV:  10    -0.135047085064E+04    0.18286E-03   -0.19359E-02  2496   0.338E-01    0.246E-01
DAV:  11    -0.135047079229E+04    0.58352E-04   -0.14991E-02  2560   0.231E-01    0.136E-01
DAV:  12    -0.135047097134E+04   -0.17905E-03   -0.36675E-03  2520   0.121E-01    0.103E-01
DAV:  13    -0.135047093992E+04    0.31423E-04   -0.16427E-03  2576   0.715E-02    0.428E-02
DAV:  14    -0.135047095187E+04   -0.11957E-04   -0.41158E-04  2624   0.423E-02    0.276E-02
DAV:  15    -0.135047095356E+04   -0.16872E-05   -0.14483E-04  2624   0.245E-02    0.159E-02
DAV:  16    -0.135047095495E+04   -0.13945E-05   -0.66417E-05  2624   0.149E-02    0.102E-02
DAV:  17    -0.135047095406E+04    0.89141E-06   -0.11558E-05  1976   0.894E-03    0.619E-03
DAV:  18    -0.135047095447E+04   -0.41141E-06   -0.94040E-06  1592   0.559E-03
   2 F= -.13504710E+04 E0= -.13504710E+04  d E =-.130750E+02
 BRION: g(F)=  0.920E+02 g(S)=  0.000E+00 retain N=  1 mean eig= 0.38
 eig:   0.378
 bond charge predicted
       N       E                     dE             d eps       ncg     rms          rms(c)
DAV:   1    -0.133955025968E+04    0.10921E+02   -0.15710E+03  1360   0.492E+01    0.167E+01
DAV:   2    -0.136010020443E+04   -0.20550E+02   -0.26471E+02  2528   0.254E+01    0.148E+01
DAV:   3    -0.135788976863E+04    0.22104E+01   -0.27662E+01  2496   0.973E+00    0.106E+01
DAV:   4    -0.135612948508E+04    0.17603E+01   -0.20027E+01  2200   0.485E+00    0.376E+00
DAV:   5    -0.135648446464E+04   -0.35498E+00   -0.42975E+00  2488   0.292E+00    0.484E+00
DAV:   6    -0.135603352324E+04    0.45094E+00   -0.38555E+00  2520   0.242E+00    0.105E+00
DAV:   7    -0.135609539548E+04   -0.61872E-01   -0.67603E-01  2456   0.158E+00    0.125E+00
DAV:   8    -0.135606657607E+04    0.28819E-01   -0.17968E-01  2536   0.799E-01    0.561E-01
DAV:   9    -0.135606635171E+04    0.22436E-03   -0.72146E-02  2512   0.440E-01    0.213E-01
DAV:  10    -0.135606732757E+04   -0.97586E-03   -0.12045E-02  2560   0.221E-01    0.141E-01
DAV:  11    -0.135606710005E+04    0.22752E-03   -0.24670E-03  2544   0.110E-01    0.106E-01
DAV:  12    -0.135606707908E+04    0.20972E-04   -0.29418E-03  2568   0.795E-02    0.405E-02
DAV:  13    -0.135606709524E+04   -0.16164E-04   -0.38570E-04  2448   0.435E-02    0.257E-02
DAV:  14    -0.135606710316E+04   -0.79189E-05   -0.13150E-04  2544   0.208E-02    0.153E-02
DAV:  15    -0.135606710332E+04   -0.16061E-06   -0.30595E-05  2584   0.118E-02    0.752E-03
DAV:  16    -0.135606710368E+04   -0.36373E-06   -0.16017E-05  2280   0.774E-03    0.309E-03
DAV:  17    -0.135606710412E+04   -0.43071E-06   -0.32302E-06  1312   0.489E-03
   3 F= -.13560671E+04 E0= -.13560671E+04  d E =-.559615E+01
 BRION: g(F)=  0.112E+02 g(S)=  0.000E+00 retain N=  2 mean eig= 1.65
 eig:   0.204  3.104
 bond charge predicted
       N       E                     dE             d eps       ncg     rms          rms(c)
DAV:   1    -0.135628893355E+04   -0.22183E+00   -0.54356E+02  1392   0.320E+01    0.620E+00
DAV:   2    -0.135927181661E+04   -0.29829E+01   -0.35642E+01  2264   0.132E+01    0.302E+00
DAV:   3    -0.135936366738E+04   -0.91851E-01   -0.33875E+00  2584   0.377E+00    0.282E+00
DAV:   4    -0.135925308150E+04    0.11059E+00   -0.60736E-01  2528   0.170E+00    0.168E+00
DAV:   5    -0.135919725231E+04    0.55829E-01   -0.52393E-01  2168   0.133E+00    0.107E+00
DAV:   6    -0.135919678338E+04    0.46893E-03   -0.22423E-01  2496   0.950E-01    0.109E+00
DAV:   7    -0.135918415013E+04    0.12633E-01   -0.20969E-01  2304   0.762E-01    0.494E-01
DAV:   8    -0.135918390134E+04    0.24878E-03   -0.32922E-02  2520   0.384E-01    0.331E-01
DAV:   9    -0.135918338497E+04    0.51638E-03   -0.10206E-02  2616   0.184E-01    0.165E-01
DAV:  10    -0.135918345300E+04   -0.68028E-04   -0.49221E-03  2536   0.124E-01    0.939E-02
DAV:  11    -0.135918332332E+04    0.12967E-03   -0.11970E-03  2488   0.860E-02    0.399E-02
DAV:  12    -0.135918337142E+04   -0.48102E-04   -0.90773E-04  2504   0.537E-02    0.343E-02
DAV:  13    -0.135918335820E+04    0.13224E-04   -0.17804E-04  2560   0.281E-02    0.115E-02
DAV:  14    -0.135918336249E+04   -0.42948E-05   -0.59959E-05  2568   0.143E-02    0.879E-03
DAV:  15    -0.135918336293E+04   -0.44002E-06   -0.97543E-06  1680   0.716E-03
   4 F= -.13591834E+04 E0= -.13591834E+04  d E =-.311626E+01
 BRION: g(F)=  0.389E+01 g(S)=  0.000E+00 retain N=  3 mean eig= 2.64
 eig:   7.137  0.386  0.386
 bond charge predicted
       N       E                     dE             d eps       ncg     rms          rms(c)
DAV:   1    -0.136007467058E+04   -0.89131E+00   -0.21041E+02  1352   0.201E+01    0.310E+00
DAV:   2    -0.136112530363E+04   -0.10506E+01   -0.11286E+01  2296   0.783E+00    0.162E+00
DAV:   3    -0.136114148510E+04   -0.16181E-01   -0.74302E-01  2608   0.158E+00    0.133E+00
DAV:   4    -0.136110287029E+04    0.38615E-01   -0.19696E-01  2528   0.898E-01    0.658E-01
DAV:   5    -0.136109690106E+04    0.59692E-02   -0.76326E-02  2432   0.575E-01    0.460E-01
DAV:   6    -0.136109629049E+04    0.61056E-03   -0.52789E-02  2536   0.424E-01    0.251E-01
DAV:   7    -0.136109620793E+04    0.82561E-04   -0.13940E-02  2392   0.226E-01    0.207E-01
DAV:   8    -0.136109604480E+04    0.16313E-03   -0.47509E-03  2320   0.118E-01    0.101E-01
DAV:   9    -0.136109597976E+04    0.65037E-04   -0.18419E-03  2464   0.752E-02    0.616E-02
DAV:  10    -0.136109601990E+04   -0.40137E-04   -0.72466E-04  2368   0.526E-02    0.635E-02
DAV:  11    -0.136109597705E+04    0.42847E-04   -0.36759E-04  2456   0.363E-02    0.279E-02
DAV:  12    -0.136109598164E+04   -0.45874E-05   -0.23003E-04  2336   0.267E-02    0.169E-02
DAV:  13    -0.136109598189E+04   -0.25003E-06   -0.41949E-05  2304   0.139E-02    0.118E-02
DAV:  14    -0.136109598129E+04    0.59613E-06   -0.16729E-05  1896   0.723E-03    0.486E-03
DAV:  15    -0.136109598137E+04   -0.77664E-07   -0.24433E-06  1072   0.511E-03
   5 F= -.13610960E+04 E0= -.13610960E+04  d E =-.191262E+01
 BRION: g(F)=  0.211E+01 g(S)=  0.000E+00 retain N=  4 mean eig= 2.13
 eig:   6.768  0.657  0.543  0.543
 bond charge predicted
       N       E                     dE             d eps       ncg     rms          rms(c)
DAV:   1    -0.136172035492E+04   -0.62437E+00   -0.18474E+02  1328   0.189E+01    0.261E+00
DAV:   2    -0.136263489208E+04   -0.91454E+00   -0.97526E+00  2328   0.713E+00    0.140E+00
DAV:   3    -0.136266091344E+04   -0.26021E-01   -0.63517E-01  2608   0.152E+00    0.121E+00
DAV:   4    -0.136264069302E+04    0.20220E-01   -0.10291E-01  2568   0.666E-01    0.732E-01
DAV:   5    -0.136263047967E+04    0.10213E-01   -0.69704E-02  2184   0.483E-01    0.349E-01
DAV:   6    -0.136263189646E+04   -0.14168E-02   -0.29375E-02  2512   0.313E-01    0.357E-01
DAV:   7    -0.136263061750E+04    0.12790E-02   -0.14882E-02  2504   0.216E-01    0.184E-01
DAV:   8    -0.136263046310E+04    0.15441E-03   -0.42196E-03  2536   0.117E-01    0.857E-02
DAV:   9    -0.136263047965E+04   -0.16554E-04   -0.59073E-04  2592   0.539E-02    0.564E-02
DAV:  10    -0.136263050721E+04   -0.27561E-04   -0.37727E-04  2304   0.318E-02    0.367E-02
DAV:  11    -0.136263048511E+04    0.22096E-04   -0.11665E-04  2496   0.251E-02    0.164E-02
DAV:  12    -0.136263049172E+04   -0.66032E-05   -0.13237E-04  2400   0.180E-02    0.167E-02
DAV:  13    -0.136263048721E+04    0.45035E-05   -0.27834E-05  2144   0.110E-02    0.610E-03
DAV:  14    -0.136263048758E+04   -0.36562E-06   -0.71069E-06  1600   0.593E-03
   6 F= -.13626305E+04 E0= -.13626305E+04  d E =-.153451E+01
 BRION: g(F)=  0.138E+01 g(S)=  0.000E+00 retain N=  5 mean eig= 1.95
 eig:   6.768  0.689  0.699  0.699  0.881
 bond charge predicted
       N       E                     dE             d eps       ncg     rms          rms(c)
DAV:   1    -0.136305617541E+04   -0.42569E+00   -0.14443E+02  1360   0.165E+01    0.222E+00
DAV:   2    -0.136378989106E+04   -0.73372E+00   -0.76515E+00  2312   0.636E+00    0.117E+00
DAV:   3    -0.136381213091E+04   -0.22240E-01   -0.51101E-01  2616   0.122E+00    0.939E-01
DAV:   4    -0.136379261988E+04    0.19511E-01   -0.84479E-02  2536   0.611E-01    0.516E-01
DAV:   5    -0.136378718568E+04    0.54342E-02   -0.36517E-02  2440   0.379E-01    0.241E-01
DAV:   6    -0.136378781684E+04   -0.63116E-03   -0.16814E-02  2544   0.238E-01    0.155E-01
DAV:   7    -0.136378766470E+04    0.15214E-03   -0.42181E-03  2264   0.134E-01    0.110E-01
DAV:   8    -0.136378773991E+04   -0.75208E-04   -0.29275E-03  2320   0.838E-02    0.698E-02
DAV:   9    -0.136378769040E+04    0.49508E-04   -0.44000E-04  2592   0.465E-02    0.483E-02
DAV:  10    -0.136378767939E+04    0.11013E-04   -0.48064E-04  2528   0.372E-02    0.288E-02
DAV:  11    -0.136378767622E+04    0.31705E-05   -0.12126E-04  2408   0.225E-02    0.120E-02
DAV:  12    -0.136378767908E+04   -0.28641E-05   -0.43089E-05  2328   0.128E-02    0.834E-03
DAV:  13    -0.136378767921E+04   -0.12871E-06   -0.11463E-05  1832   0.725E-03    0.552E-03
DAV:  14    -0.136378767923E+04   -0.24491E-07   -0.55162E-06  1432   0.538E-03
   7 F= -.13637877E+04 E0= -.13637877E+04  d E =-.115719E+01
 BRION: g(F)=  0.549E+00 g(S)=  0.000E+00 retain N=  5 mean eig= 1.17
 eig:   2.159  2.159  0.500  0.500  0.516
 bond charge predicted
       N       E                     dE             d eps       ncg     rms          rms(c)
DAV:   1    -0.136407302504E+04   -0.28535E+00   -0.95803E+01  1376   0.137E+01    0.183E+00
DAV:   2    -0.136456733361E+04   -0.49431E+00   -0.51915E+00  2288   0.543E+00    0.932E-01
DAV:   3    -0.136458949699E+04   -0.22163E-01   -0.38102E-01  2592   0.104E+00    0.740E-01
DAV:   4    -0.136457969674E+04    0.98002E-02   -0.47470E-02  2512   0.496E-01    0.437E-01
DAV:   5    -0.136457633862E+04    0.33581E-02   -0.24422E-02  2336   0.307E-01    0.176E-01
DAV:   6    -0.136457707752E+04   -0.73890E-03   -0.10444E-02  2512   0.189E-01    0.138E-01
DAV:   7    -0.136457699751E+04    0.80008E-04   -0.31960E-03  2560   0.112E-01    0.919E-02
DAV:   8    -0.136457698807E+04    0.94407E-05   -0.14434E-03  2600   0.697E-02    0.505E-02
DAV:   9    -0.136457697172E+04    0.16346E-04   -0.23864E-04  2512   0.361E-02    0.352E-02
DAV:  10    -0.136457698043E+04   -0.87086E-05   -0.25005E-04  2464   0.275E-02    0.232E-02
DAV:  11    -0.136457697538E+04    0.50548E-05   -0.58227E-05  2400   0.178E-02    0.102E-02
DAV:  12    -0.136457697777E+04   -0.23939E-05   -0.33987E-05  2296   0.103E-02    0.889E-03
DAV:  13    -0.136457697659E+04    0.11841E-05   -0.44383E-06  1272   0.637E-03    0.452E-03
DAV:  14    -0.136457697752E+04   -0.92974E-06   -0.14636E-05  1592   0.737E-03    0.494E-03
DAV:  15    -0.136457697700E+04    0.51669E-06   -0.13676E-06  1008   0.515E-03
   8 F= -.13645770E+04 E0= -.13645770E+04  d E =-.789298E+00
 BRION: g(F)=  0.441E+00 g(S)=  0.000E+00 retain N=  6 mean eig= 1.15
 eig:   1.711  1.711  0.633  0.633  0.295  1.939
 bond charge predicted
       N       E                     dE             d eps       ncg     rms          rms(c)
DAV:   1    -0.136489651957E+04   -0.31954E+00   -0.56419E+01  1376   0.107E+01    0.138E+00
DAV:   2    -0.136519141279E+04   -0.29489E+00   -0.31149E+00  2288   0.432E+00    0.679E-01
DAV:   3    -0.136520768995E+04   -0.16277E-01   -0.23940E-01  2600   0.812E-01    0.549E-01
DAV:   4    -0.136520303999E+04    0.46500E-02   -0.25436E-02  2568   0.379E-01    0.350E-01
DAV:   5    -0.136520069997E+04    0.23400E-02   -0.15756E-02  2296   0.250E-01    0.135E-01
DAV:   6    -0.136520133521E+04   -0.63524E-03   -0.73969E-03  2536   0.164E-01    0.135E-01
DAV:   7    -0.136520122976E+04    0.10545E-03   -0.25047E-03  2616   0.961E-02    0.876E-02
DAV:   8    -0.136520115650E+04    0.73262E-04   -0.98901E-04  2600   0.619E-02    0.402E-02
DAV:   9    -0.136520115658E+04   -0.84503E-07   -0.16077E-04  2544   0.296E-02    0.281E-02
DAV:  10    -0.136520116168E+04   -0.50941E-05   -0.10298E-04  2480   0.190E-02    0.157E-02
DAV:  11    -0.136520116028E+04    0.13967E-05   -0.22585E-05  2312   0.116E-02    0.858E-03
DAV:  12    -0.136520116156E+04   -0.12853E-05   -0.18829E-05  1992   0.762E-03    0.742E-03
DAV:  13    -0.136520116048E+04    0.10805E-05   -0.20113E-06  1008   0.588E-03    0.436E-03
DAV:  14    -0.136520116220E+04   -0.17182E-05   -0.23382E-05  1584   0.853E-03    0.714E-03
DAV:  15    -0.136520116152E+04    0.67760E-06   -0.15912E-06   976   0.560E-03
   9 F= -.13652012E+04 E0= -.13652012E+04  d E =-.624185E+00
 BRION: g(F)=  0.347E+00 g(S)=  0.000E+00 retain N=  7 mean eig= 1.27
 eig:   2.296  2.296  1.340  1.340  0.555  0.555  0.492
 bond charge predicted
       N       E                     dE             d eps       ncg     rms          rms(c)
DAV:   1    -0.136549429708E+04   -0.29313E+00   -0.61127E+01  1384   0.112E+01    0.138E+00
DAV:   2    -0.136582500298E+04   -0.33071E+00   -0.35122E+00  2288   0.466E+00    0.686E-01
DAV:   3    -0.136584470002E+04   -0.19697E-01   -0.27876E-01  2584   0.879E-01    0.563E-01
DAV:   4    -0.136584045057E+04    0.42495E-02   -0.26716E-02  2592   0.401E-01    0.393E-01
DAV:   5    -0.136583673942E+04    0.37112E-02   -0.16921E-02  2296   0.269E-01    0.153E-01
DAV:   6    -0.136583741176E+04   -0.67234E-03   -0.10922E-02  2456   0.200E-01    0.158E-01
DAV:   7    -0.136583729427E+04    0.11749E-03   -0.43854E-03  2504   0.124E-01    0.111E-01
DAV:   8    -0.136583721092E+04    0.83354E-04   -0.17643E-03  2600   0.802E-02    0.501E-02
DAV:   9    -0.136583718998E+04    0.20940E-04   -0.31031E-04  2264   0.380E-02    0.345E-02
DAV:  10    -0.136583719550E+04   -0.55223E-05   -0.15483E-04  2336   0.235E-02    0.202E-02
DAV:  11    -0.136583719352E+04    0.19806E-05   -0.40750E-05  2392   0.154E-02    0.108E-02
DAV:  12    -0.136583719632E+04   -0.27994E-05   -0.38843E-05  2336   0.112E-02    0.127E-02
DAV:  13    -0.136583719400E+04    0.23214E-05   -0.12826E-05  1768   0.760E-03    0.580E-03
DAV:  14    -0.136583719386E+04    0.13119E-06   -0.30069E-06  1080   0.540E-03
  10 F= -.13658372E+04 E0= -.13658372E+04  d E =-.636032E+00
 BRION: g(F)=  0.258E+00 g(S)=  0.000E+00 retain N=  8 mean eig= 2.14
 eig:   4.612  4.612  2.579  2.579  1.185  0.418  0.570  0.570
 bond charge predicted
       N       E                     dE             d eps       ncg     rms          rms(c)
DAV:   1    -0.136608707795E+04   -0.24988E+00   -0.70682E+01  1384   0.120E+01    0.147E+00
DAV:   2    -0.136647005738E+04   -0.38298E+00   -0.40658E+00  2304   0.498E+00    0.739E-01
DAV:   3    -0.136649169715E+04   -0.21640E-01   -0.31223E-01  2584   0.941E-01    0.595E-01
DAV:   4    -0.136648655142E+04    0.51457E-02   -0.31310E-02  2592   0.423E-01    0.402E-01
DAV:   5    -0.136648281490E+04    0.37365E-02   -0.18053E-02  2296   0.272E-01    0.151E-01
DAV:   6    -0.136648353934E+04   -0.72444E-03   -0.96998E-03  2504   0.182E-01    0.148E-01
DAV:   7    -0.136648343960E+04    0.99735E-04   -0.34323E-03  2560   0.110E-01    0.991E-02
DAV:   8    -0.136648337497E+04    0.64631E-04   -0.15018E-03  2592   0.744E-02    0.485E-02
DAV:   9    -0.136648336586E+04    0.91127E-05   -0.25161E-04  2424   0.354E-02    0.342E-02
DAV:  10    -0.136648337137E+04   -0.55103E-05   -0.14096E-04  2512   0.227E-02    0.179E-02
DAV:  11    -0.136648337049E+04    0.87572E-06   -0.34015E-05  2448   0.140E-02    0.957E-03
DAV:  12    -0.136648337215E+04   -0.16524E-05   -0.24952E-05  2256   0.909E-03    0.945E-03
DAV:  13    -0.136648337092E+04    0.12311E-05   -0.64905E-06  1424   0.616E-03    0.430E-03
DAV:  14    -0.136648337129E+04   -0.37898E-06   -0.71494E-06  1432   0.624E-03
  11 F= -.13664834E+04 E0= -.13664834E+04  d E =-.646177E+00
 BRION: g(F)=  0.220E+00 g(S)=  0.000E+00 retain N=  9 mean eig= 2.49
 eig:   4.993  4.993  3.034  3.034  2.447  2.447  0.361  0.561  0.561
 bond charge predicted
       N       E                     dE             d eps       ncg     rms          rms(c)
DAV:   1    -0.136674273898E+04   -0.25937E+00   -0.40153E+01  1384   0.897E+00    0.109E+00
DAV:   2    -0.136695679035E+04   -0.21405E+00   -0.22639E+00  2304   0.365E+00    0.539E-01
DAV:   3    -0.136696925831E+04   -0.12468E-01   -0.17789E-01  2576   0.684E-01    0.434E-01
DAV:   4    -0.136696637041E+04    0.28879E-02   -0.16756E-02  2584   0.312E-01    0.302E-01
DAV:   5    -0.136696382409E+04    0.25463E-02   -0.91463E-03  2288   0.202E-01    0.115E-01
DAV:   6    -0.136696415654E+04   -0.33244E-03   -0.64807E-03  2440   0.148E-01    0.105E-01
DAV:   7    -0.136696413390E+04    0.22635E-04   -0.20839E-03  2456   0.864E-02    0.794E-02
DAV:   8    -0.136696409903E+04    0.34870E-04   -0.92731E-04  2568   0.561E-02    0.387E-02
DAV:   9    -0.136696408442E+04    0.14610E-04   -0.19804E-04  2272   0.296E-02    0.254E-02
DAV:  10    -0.136696408755E+04   -0.31318E-05   -0.83290E-05  2376   0.178E-02    0.161E-02
DAV:  11    -0.136696408620E+04    0.13487E-05   -0.22229E-05  2256   0.111E-02    0.848E-03
DAV:  12    -0.136696408715E+04   -0.94785E-06   -0.17850E-05  1952   0.806E-03    0.813E-03
DAV:  13    -0.136696408628E+04    0.87313E-06   -0.46885E-06  1312   0.584E-03
  12 F= -.13669641E+04 E0= -.13669641E+04  d E =-.480715E+00
 BRION: g(F)=  0.195E+00 g(S)=  0.000E+00 retain N=  9 mean eig= 2.95
 eig:   7.770  7.770  3.184  3.184  1.301  1.301  1.022  0.504  0.504
 bond charge predicted
       N       E                     dE             d eps       ncg     rms          rms(c)
DAV:   1    -0.136719754651E+04   -0.23346E+00   -0.52658E+01  1376   0.103E+01    0.120E+00
DAV:   2    -0.136747300323E+04   -0.27546E+00   -0.29151E+00  2296   0.409E+00    0.603E-01
DAV:   3    -0.136748983653E+04   -0.16833E-01   -0.23340E-01  2568   0.793E-01    0.490E-01
DAV:   4    -0.136748681445E+04    0.30221E-02   -0.21332E-02  2592   0.347E-01    0.356E-01
DAV:   5    -0.136748328326E+04    0.35312E-02   -0.11351E-02  2312   0.222E-01    0.144E-01
DAV:   6    -0.136748353141E+04   -0.24815E-03   -0.86648E-03  2376   0.170E-01    0.120E-01
DAV:   7    -0.136748350490E+04    0.26505E-04   -0.31279E-03  2440   0.107E-01    0.901E-02
DAV:   8    -0.136748347146E+04    0.33440E-04   -0.13550E-03  2560   0.690E-02    0.484E-02
DAV:   9    -0.136748345052E+04    0.20948E-04   -0.30904E-04  2344   0.361E-02    0.312E-02
DAV:  10    -0.136748345458E+04   -0.40677E-05   -0.12803E-04  2392   0.209E-02    0.186E-02
DAV:  11    -0.136748345409E+04    0.49711E-06   -0.33512E-05  2384   0.134E-02    0.114E-02
DAV:  12    -0.136748345444E+04   -0.35550E-06   -0.24062E-05  2176   0.976E-03    0.103E-02
DAV:  13    -0.136748345342E+04    0.10277E-05   -0.11886E-05  1760   0.690E-03    0.502E-03
DAV:  14    -0.136748345334E+04    0.71333E-07   -0.45055E-06  1328   0.506E-03
  13 F= -.13674835E+04 E0= -.13674835E+04  d E =-.519367E+00
 BRION: g(F)=  0.176E+00 g(S)=  0.000E+00 retain N=  7 mean eig= 3.97
 eig:   7.942  7.942  3.939  3.939  0.649  1.827  1.519
 bond charge predicted
       N       E                     dE             d eps       ncg     rms          rms(c)
DAV:   1    -0.136767331545E+04   -0.18986E+00   -0.57916E+01  1368   0.108E+01    0.124E+00
DAV:   2    -0.136797499347E+04   -0.30168E+00   -0.31796E+00  2280   0.424E+00    0.624E-01
DAV:   3    -0.136799360045E+04   -0.18607E-01   -0.25577E-01  2568   0.836E-01    0.509E-01
DAV:   4    -0.136799050733E+04    0.30931E-02   -0.22940E-02  2608   0.356E-01    0.377E-01
DAV:   5    -0.136798643163E+04    0.40757E-02   -0.11167E-02  2352   0.225E-01    0.167E-01
DAV:   6    -0.136798641392E+04    0.17717E-04   -0.10122E-02  2288   0.188E-01    0.115E-01
DAV:   7    -0.136798650429E+04   -0.90372E-04   -0.46084E-03  2416   0.123E-01    0.100E-01
DAV:   8    -0.136798645520E+04    0.49090E-04   -0.13130E-03  2584   0.731E-02    0.613E-02
DAV:   9    -0.136798641335E+04    0.41845E-04   -0.49838E-04  2512   0.419E-02    0.321E-02
DAV:  10    -0.136798642601E+04   -0.12656E-04   -0.19408E-04  2536   0.258E-02    0.233E-02
DAV:  11    -0.136798642520E+04    0.80693E-06   -0.63654E-05  2392   0.169E-02    0.165E-02
DAV:  12    -0.136798642332E+04    0.18790E-05   -0.39427E-05  2288   0.133E-02    0.144E-02
DAV:  13    -0.136798642164E+04    0.16860E-05   -0.26104E-05  2048   0.921E-03    0.729E-03
DAV:  14    -0.136798642122E+04    0.42093E-06   -0.54254E-06  1408   0.566E-03
  14 F= -.13679864E+04 E0= -.13679864E+04  d E =-.502968E+00
 BRION: g(F)=  0.160E+00 g(S)=  0.000E+00 retain N=  3 mean eig= 4.17
 eig:   2.630  4.947  4.947
 bond charge predicted
       N       E                     dE             d eps       ncg     rms          rms(c)
DAV:   1    -0.136817348196E+04   -0.18706E+00   -0.58472E+01  1376   0.108E+01    0.127E+00
DAV:   2    -0.136848223577E+04   -0.30875E+00   -0.32660E+00  2296   0.431E+00    0.642E-01
DAV:   3    -0.136850090852E+04   -0.18673E-01   -0.26305E-01  2560   0.837E-01    0.518E-01
DAV:   4    -0.136849724049E+04    0.36680E-02   -0.25389E-02  2592   0.373E-01    0.367E-01
DAV:   5    -0.136849363157E+04    0.36089E-02   -0.11919E-02  2368   0.226E-01    0.156E-01
DAV:   6    -0.136849373930E+04   -0.10773E-03   -0.85660E-03  2400   0.170E-01    0.113E-01
DAV:   7    -0.136849375472E+04   -0.15423E-04   -0.37331E-03  2464   0.116E-01    0.900E-02
DAV:   8    -0.136849373434E+04    0.20378E-04   -0.14472E-03  2592   0.731E-02    0.589E-02
DAV:   9    -0.136849370422E+04    0.30117E-04   -0.38749E-04  2552   0.385E-02    0.343E-02
DAV:  10    -0.136849370810E+04   -0.38755E-05   -0.14765E-04  2560   0.225E-02    0.200E-02
DAV:  11    -0.136849370982E+04   -0.17220E-05   -0.37016E-05  2408   0.136E-02    0.142E-02
DAV:  12    -0.136849370795E+04    0.18744E-05   -0.30598E-05  2240   0.116E-02    0.108E-02
DAV:  13    -0.136849370745E+04    0.50124E-06   -0.19336E-05  2056   0.825E-03    0.585E-03
DAV:  14    -0.136849370708E+04    0.36901E-06   -0.28668E-06  1088   0.513E-03
  15 F= -.13684937E+04 E0= -.13684937E+04  d E =-.507286E+00
 BRION: g(F)=  0.138E+00 g(S)=  0.000E+00 retain N=  2 mean eig= 5.42
 eig:   5.422  5.422
 bond charge predicted
       N       E                     dE             d eps       ncg     rms          rms(c)
DAV:   1    -0.136863695982E+04   -0.14325E+00   -0.56813E+01  1376   0.107E+01    0.123E+00
DAV:   2    -0.136893296165E+04   -0.29600E+00   -0.31249E+00  2288   0.419E+00    0.627E-01
DAV:   3    -0.136895076419E+04   -0.17803E-01   -0.25217E-01  2568   0.826E-01    0.502E-01
DAV:   4    -0.136894726595E+04    0.34982E-02   -0.23668E-02  2608   0.362E-01    0.361E-01
DAV:   5    -0.136894351753E+04    0.37484E-02   -0.10837E-02  2352   0.219E-01    0.160E-01
DAV:   6    -0.136894342750E+04    0.90033E-04   -0.87500E-03  2328   0.176E-01    0.106E-01
DAV:   7    -0.136894352406E+04   -0.96557E-04   -0.41843E-03  2480   0.120E-01    0.929E-02
DAV:   8    -0.136894348709E+04    0.36968E-04   -0.12312E-03  2584   0.706E-02    0.595E-02
DAV:   9    -0.136894345220E+04    0.34885E-04   -0.44754E-04  2520   0.395E-02    0.318E-02
DAV:  10    -0.136894346094E+04   -0.87382E-05   -0.17497E-04  2512   0.247E-02    0.215E-02
DAV:  11    -0.136894346135E+04   -0.40933E-06   -0.51666E-05  2416   0.156E-02    0.146E-02
DAV:  12    -0.136894345952E+04    0.18348E-05   -0.40286E-05  2312   0.129E-02    0.124E-02
DAV:  13    -0.136894345852E+04    0.99822E-06   -0.21745E-05  2096   0.886E-03    0.725E-03
DAV:  14    -0.136894345813E+04    0.39194E-06   -0.58909E-06  1488   0.546E-03
  16 F= -.13689435E+04 E0= -.13689435E+04  d E =-.449751E+00
 BRION: g(F)=  0.120E+00 g(S)=  0.000E+00 retain N=  2 mean eig= 6.13
 eig:   6.127  6.127
 bond charge predicted
       N       E                     dE             d eps       ncg     rms          rms(c)
DAV:   1    -0.136908467903E+04   -0.14122E+00   -0.32279E+01  1368   0.802E+00    0.942E-01
DAV:   2    -0.136925302301E+04   -0.16834E+00   -0.17779E+00  2296   0.314E+00    0.480E-01
DAV:   3    -0.136926294416E+04   -0.99211E-02   -0.14351E-01  2568   0.621E-01    0.384E-01
DAV:   4    -0.136926073897E+04    0.22052E-02   -0.13978E-02  2576   0.278E-01    0.269E-01
DAV:   5    -0.136925862906E+04    0.21099E-02   -0.66975E-03  2368   0.169E-01    0.114E-01
DAV:   6    -0.136925866294E+04   -0.33880E-04   -0.47340E-03  2392   0.129E-01    0.814E-02
DAV:   7    -0.136925868222E+04   -0.19285E-04   -0.20440E-03  2448   0.860E-02    0.654E-02
DAV:   8    -0.136925866962E+04    0.12598E-04   -0.76377E-04  2592   0.527E-02    0.407E-02
DAV:   9    -0.136925865602E+04    0.13604E-04   -0.20500E-04  2504   0.285E-02    0.249E-02
DAV:  10    -0.136925865731E+04   -0.12938E-05   -0.85449E-05  2520   0.171E-02    0.154E-02
DAV:  11    -0.136925865760E+04   -0.28248E-06   -0.26656E-05  2296   0.114E-02    0.964E-03
DAV:  12    -0.136925865703E+04    0.57129E-06   -0.17464E-05  2080   0.895E-03    0.790E-03
DAV:  13    -0.136925865670E+04    0.32863E-06   -0.94810E-06  1744   0.624E-03
  17 F= -.13692587E+04 E0= -.13692587E+04  d E =-.315199E+00
 BRION: g(F)=  0.107E+00 g(S)=  0.000E+00 retain N=  2 mean eig= 5.24
 eig:   5.238  5.238
 bond charge predicted
       N       E                     dE             d eps       ncg     rms          rms(c)
DAV:   1    -0.136934754909E+04   -0.88892E-01   -0.44406E+01  1376   0.937E+00    0.107E+00
DAV:   2    -0.136957717263E+04   -0.22962E+00   -0.24229E+00  2304   0.367E+00    0.554E-01
DAV:   3    -0.136959054066E+04   -0.13368E-01   -0.19381E-01  2568   0.714E-01    0.447E-01
DAV:   4    -0.136958777409E+04    0.27666E-02   -0.18364E-02  2584   0.314E-01    0.322E-01
DAV:   5    -0.136958457006E+04    0.32040E-02   -0.84145E-03  2360   0.194E-01    0.144E-01
DAV:   6    -0.136958441630E+04    0.15377E-03   -0.72346E-03  2288   0.159E-01    0.929E-02
DAV:   7    -0.136958451362E+04   -0.97318E-04   -0.34826E-03  2448   0.109E-01    0.852E-02
DAV:   8    -0.136958447648E+04    0.37139E-04   -0.98813E-04  2576   0.631E-02    0.526E-02
DAV:   9    -0.136958444698E+04    0.29495E-04   -0.39797E-04  2520   0.366E-02    0.273E-02
DAV:  10    -0.136958445572E+04   -0.87415E-05   -0.14071E-04  2536   0.225E-02    0.206E-02
DAV:  11    -0.136958445430E+04    0.14205E-05   -0.44953E-05  2392   0.143E-02    0.132E-02
DAV:  12    -0.136958445321E+04    0.10916E-05   -0.35987E-05  2240   0.120E-02    0.113E-02
DAV:  13    -0.136958445247E+04    0.74186E-06   -0.16604E-05  1960   0.802E-03    0.709E-03
DAV:  14    -0.136958445198E+04    0.48478E-06   -0.47028E-06  1344   0.514E-03
  18 F= -.13695845E+04 E0= -.13695845E+04  d E =-.325795E+00
 BRION: g(F)=  0.900E-01 g(S)=  0.000E+00 retain N=  2 mean eig= 5.29
 eig:   5.286  5.286
 bond charge predicted
       N       E                     dE             d eps       ncg     rms          rms(c)
DAV:   1    -0.136965159996E+04   -0.67147E-01   -0.37875E+01  1376   0.863E+00    0.976E-01
DAV:   2    -0.136984465025E+04   -0.19305E+00   -0.20299E+00  2288   0.333E+00    0.504E-01
DAV:   3    -0.136985576457E+04   -0.11114E-01   -0.16184E-01  2576   0.654E-01    0.405E-01
DAV:   4    -0.136985342598E+04    0.23386E-02   -0.14875E-02  2576   0.284E-01    0.295E-01
DAV:   5    -0.136985051418E+04    0.29118E-02   -0.68627E-03  2352   0.179E-01    0.134E-01
DAV:   6    -0.136985031129E+04    0.20289E-03   -0.66042E-03  2272   0.154E-01    0.823E-02
DAV:   7    -0.136985042861E+04   -0.11732E-03   -0.31379E-03  2432   0.102E-01    0.799E-02
DAV:   8    -0.136985039675E+04    0.31853E-04   -0.79944E-04  2536   0.566E-02    0.489E-02
DAV:   9    -0.136985036515E+04    0.31607E-04   -0.35247E-04  2512   0.347E-02    0.241E-02
DAV:  10    -0.136985037472E+04   -0.95760E-05   -0.14355E-04  2512   0.226E-02    0.191E-02
DAV:  11    -0.136985037194E+04    0.27886E-05   -0.39622E-05  2304   0.136E-02    0.105E-02
DAV:  12    -0.136985037203E+04   -0.95315E-07   -0.27644E-05  2192   0.106E-02    0.990E-03
DAV:  13    -0.136985037123E+04    0.80132E-06   -0.13320E-05  1792   0.733E-03    0.587E-03
DAV:  14    -0.136985037090E+04    0.33084E-06   -0.31356E-06  1152   0.506E-03
  19 F= -.13698504E+04 E0= -.13698504E+04  d E =-.265919E+00
 BRION: g(F)=  0.775E-01 g(S)=  0.000E+00 retain N=  2 mean eig= 7.03
 eig:   7.032  7.032
 bond charge predicted
       N       E                     dE             d eps       ncg     rms          rms(c)
DAV:   1    -0.136990115282E+04   -0.50782E-01   -0.31502E+01  1368   0.780E+00    0.888E-01
DAV:   2    -0.137006132857E+04   -0.16018E+00   -0.16837E+00  2280   0.304E+00    0.458E-01
DAV:   3    -0.137007068891E+04   -0.93603E-02   -0.13377E-01  2560   0.593E-01    0.378E-01
DAV:   4    -0.137006906229E+04    0.16266E-02   -0.12231E-02  2592   0.253E-01    0.281E-01
DAV:   5    -0.137006649025E+04    0.25720E-02   -0.55284E-03  2344   0.166E-01    0.135E-01
DAV:   6    -0.137006624874E+04    0.24151E-03   -0.64000E-03  2224   0.152E-01    0.797E-02
DAV:   7    -0.137006637418E+04   -0.12544E-03   -0.31400E-03  2376   0.101E-01    0.819E-02
DAV:   8    -0.137006633956E+04    0.34624E-04   -0.72655E-04  2408   0.548E-02    0.519E-02
DAV:   9    -0.137006629860E+04    0.40956E-04   -0.38993E-04  2440   0.355E-02    0.235E-02
DAV:  10    -0.137006631201E+04   -0.13411E-04   -0.17513E-04  2448   0.243E-02    0.198E-02
DAV:  11    -0.137006630830E+04    0.37123E-05   -0.46822E-05  2280   0.142E-02    0.115E-02
DAV:  12    -0.137006630858E+04   -0.28001E-06   -0.35240E-05  2192   0.118E-02    0.115E-02
DAV:  13    -0.137006630739E+04    0.11864E-05   -0.16434E-05  1856   0.826E-03    0.703E-03
DAV:  14    -0.137006630701E+04    0.38285E-06   -0.43832E-06  1368   0.527E-03
  20 F= -.13700663E+04 E0= -.13700663E+04  d E =-.215936E+00
 BRION: g(F)=  0.676E-01 g(S)=  0.000E+00 retain N=  2 mean eig= 7.36
 eig:   7.362  7.362
