 running on  160 total cores
 distrk:  each k-point on  160 cores,    1 groups
 distr:  one band on   20 cores,    8 groups
 using from now: INCAR     
 vasp.5.4.4.18Apr17-6-g9f103f2a35 (build May 01 2020 14:22:42) gamma-only       
  
 POSCAR found type information on POSCAR  O  La Zr Li Al
 POSCAR found :  5 types and     190 ions
 scaLAPACK will be used
 LDA part: xc-table for Pade appr. of Perdew
 POSCAR, INCAR and KPOINTS ok, starting setup
 FFT: planning ...
 WAVECAR not read
 WARNING: random wavefunctions but no delay for mixing, default for NELMDL
 entering main loop
       N       E                     dE             d eps       ncg     rms          rms(c)
DAV:   1     0.252998627002E+05    0.25300E+05   -0.41996E+05  1560   0.253E+03
DAV:   2     0.939600896441E+04   -0.15904E+05   -0.14655E+05  1424   0.708E+02
DAV:   3     0.266312462916E+04   -0.67329E+04   -0.61340E+04  1512   0.357E+02
DAV:   4    -0.398131149258E+03   -0.30613E+04   -0.28590E+04  2056   0.222E+02
DAV:   5    -0.143253159525E+04   -0.10344E+04   -0.10012E+04  2528   0.140E+02    0.117E+02
DAV:   6    -0.130948715210E+04    0.12304E+03   -0.14124E+03  2424   0.649E+01    0.503E+01
DAV:   7    -0.133039959055E+04   -0.20912E+02   -0.35729E+02  2568   0.334E+01    0.240E+01
DAV:   8    -0.133903550784E+04   -0.86359E+01   -0.23422E+02  2552   0.253E+01    0.251E+01
DAV:   9    -0.133236878419E+04    0.66667E+01   -0.54252E+01  2448   0.145E+01    0.699E+00
DAV:  10    -0.133348463689E+04   -0.11159E+01   -0.14301E+01  2608   0.809E+00    0.768E+00
DAV:  11    -0.133368468180E+04   -0.20004E+00   -0.60737E+00  2616   0.432E+00    0.386E+00
DAV:  12    -0.133356105506E+04    0.12363E+00   -0.22365E+00  2592   0.342E+00    0.267E+00
DAV:  13    -0.133363104189E+04   -0.69987E-01   -0.95662E-01  2584   0.176E+00    0.211E+00
DAV:  14    -0.133360951608E+04    0.21526E-01   -0.34657E-01  2576   0.119E+00    0.114E+00
DAV:  15    -0.133361878941E+04   -0.92733E-02   -0.10310E-01  2544   0.650E-01    0.974E-01
DAV:  16    -0.133361897840E+04   -0.18899E-03   -0.34108E-02  2616   0.354E-01    0.622E-01
DAV:  17    -0.133361601055E+04    0.29678E-02   -0.27015E-02  2464   0.320E-01    0.280E-01
DAV:  18    -0.133361642169E+04   -0.41114E-03   -0.58087E-03  2472   0.170E-01    0.174E-01
DAV:  19    -0.133361626012E+04    0.16157E-03   -0.31723E-03  2496   0.105E-01    0.876E-02
DAV:  20    -0.133361631592E+04   -0.55799E-04   -0.70780E-04  2616   0.534E-02    0.288E-02
DAV:  21    -0.133361633578E+04   -0.19865E-04   -0.18043E-04  2624   0.276E-02    0.308E-02
DAV:  22    -0.133361634904E+04   -0.13262E-04   -0.55951E-05  2464   0.136E-02    0.158E-02
DAV:  23    -0.133361634597E+04    0.30710E-05   -0.37346E-05  2192   0.112E-02    0.588E-03
DAV:  24    -0.133361634967E+04   -0.36939E-05   -0.10292E-05  1400   0.799E-03    0.262E-03
DAV:  25    -0.133361634871E+04    0.95383E-06   -0.43982E-06  1064   0.565E-03
   1 F= -.13336163E+04 E0= -.13336163E+04  d E =-.133362E+04
 BRION: g(F)=  0.509E+02 g(S)=  0.000E+00
 bond charge predicted
       N       E                     dE             d eps       ncg     rms          rms(c)
DAV:   1    -0.131440866165E+04    0.19208E+02   -0.55332E+03  1704   0.111E+02    0.212E+01
DAV:   2    -0.135376832016E+04   -0.39360E+02   -0.45983E+02  2568   0.500E+01    0.116E+01
DAV:   3    -0.135300096592E+04    0.76735E+00   -0.28094E+01  2616   0.135E+01    0.809E+00
DAV:   4    -0.135150747640E+04    0.14935E+01   -0.79291E+00  2512   0.604E+00    0.424E+00
DAV:   5    -0.135114073226E+04    0.36674E+00   -0.24063E+00  2488   0.385E+00    0.262E+00
DAV:   6    -0.135105325929E+04    0.87473E-01   -0.22243E+00  2528   0.299E+00    0.126E+00
DAV:   7    -0.135107846589E+04   -0.25207E-01   -0.58954E-01  2520   0.161E+00    0.120E+00
DAV:   8    -0.135107170577E+04    0.67601E-02   -0.16303E-01  2624   0.732E-01    0.619E-01
DAV:   9    -0.135106947373E+04    0.22320E-02   -0.40747E-02  2616   0.421E-01    0.285E-01
DAV:  10    -0.135106858647E+04    0.88726E-03   -0.11049E-02  2568   0.285E-01    0.157E-01
DAV:  11    -0.135106934250E+04   -0.75603E-03   -0.12197E-02  2608   0.199E-01    0.153E-01
DAV:  12    -0.135106918708E+04    0.15543E-03   -0.23667E-03  2576   0.102E-01    0.616E-02
DAV:  13    -0.135106922364E+04   -0.36558E-04   -0.83353E-04  2624   0.530E-02    0.254E-02
DAV:  14    -0.135106923448E+04   -0.10843E-04   -0.14810E-04  2624   0.274E-02    0.169E-02
DAV:  15    -0.135106923472E+04   -0.23800E-06   -0.52403E-05  2624   0.150E-02    0.105E-02
DAV:  16    -0.135106923615E+04   -0.14330E-05   -0.20084E-05  2520   0.960E-03    0.681E-03
DAV:  17    -0.135106923547E+04    0.68301E-06   -0.28146E-06  1192   0.576E-03
   2 F= -.13510692E+04 E0= -.13510692E+04  d E =-.174529E+02
 BRION: g(F)=  0.631E+02 g(S)=  0.000E+00 retain N=  1 mean eig= 0.46
 eig:   0.460
 bond charge predicted
       N       E                     dE             d eps       ncg     rms          rms(c)
DAV:   1    -0.133896916641E+04    0.12100E+02   -0.17098E+03  1344   0.517E+01    0.170E+01
DAV:   2    -0.135965164899E+04   -0.20682E+02   -0.26718E+02  2544   0.267E+01    0.152E+01
DAV:   3    -0.135747630379E+04    0.21753E+01   -0.26683E+01  2528   0.100E+01    0.106E+01
DAV:   4    -0.135579605844E+04    0.16802E+01   -0.20174E+01  2176   0.500E+00    0.413E+00
DAV:   5    -0.135614848069E+04   -0.35242E+00   -0.43856E+00  2504   0.326E+00    0.511E+00
DAV:   6    -0.135565517110E+04    0.49331E+00   -0.40366E+00  2520   0.268E+00    0.116E+00
DAV:   7    -0.135571198309E+04   -0.56812E-01   -0.70061E-01  2456   0.168E+00    0.112E+00
DAV:   8    -0.135569324588E+04    0.18737E-01   -0.17175E-01  2576   0.797E-01    0.538E-01
DAV:   9    -0.135569319995E+04    0.45929E-04   -0.68625E-02  2520   0.448E-01    0.267E-01
DAV:  10    -0.135569376053E+04   -0.56058E-03   -0.17397E-02  2536   0.263E-01    0.166E-01
DAV:  11    -0.135569362146E+04    0.13907E-03   -0.48541E-03  2472   0.148E-01    0.148E-01
DAV:  12    -0.135569340935E+04    0.21210E-03   -0.38232E-03  2384   0.990E-02    0.472E-02
DAV:  13    -0.135569345674E+04   -0.47384E-04   -0.82145E-04  2432   0.588E-02    0.327E-02
DAV:  14    -0.135569346593E+04   -0.91910E-05   -0.18618E-04  2512   0.269E-02    0.238E-02
DAV:  15    -0.135569346373E+04    0.21965E-05   -0.53145E-05  2600   0.148E-02    0.127E-02
DAV:  16    -0.135569346353E+04    0.20629E-06   -0.33209E-05  2528   0.108E-02    0.415E-03
DAV:  17    -0.135569346420E+04   -0.66818E-06   -0.45600E-06  1384   0.603E-03
   3 F= -.13556935E+04 E0= -.13556935E+04  d E =-.462423E+01
 BRION: g(F)=  0.200E+02 g(S)=  0.000E+00 retain N=  2 mean eig= 0.67
 eig:   0.212  1.127
 bond charge predicted
       N       E                     dE             d eps       ncg     rms          rms(c)
DAV:   1    -0.135508782215E+04    0.60564E+00   -0.61149E+02  1376   0.282E+01    0.796E+00
DAV:   2    -0.135935094447E+04   -0.42631E+01   -0.50863E+01  2432   0.140E+01    0.460E+00
DAV:   3    -0.135911766038E+04    0.23328E+00   -0.32809E+00  2440   0.449E+00    0.370E+00
DAV:   4    -0.135894724459E+04    0.17042E+00   -0.25937E+00  2136   0.232E+00    0.174E+00
DAV:   5    -0.135895307650E+04   -0.58319E-02   -0.47414E-01  2336   0.140E+00    0.182E+00
DAV:   6    -0.135889994361E+04    0.53133E-01   -0.38683E-01  2304   0.114E+00    0.650E-01
DAV:   7    -0.135890510766E+04   -0.51640E-02   -0.20200E-01  2352   0.726E-01    0.598E-01
DAV:   8    -0.135890600626E+04   -0.89859E-03   -0.43077E-02  2456   0.338E-01    0.548E-01
DAV:   9    -0.135890106886E+04    0.49374E-02   -0.16503E-02  2496   0.223E-01    0.240E-01
DAV:  10    -0.135890134228E+04   -0.27341E-03   -0.18429E-02  2448   0.193E-01    0.145E-01
DAV:  11    -0.135890103703E+04    0.30525E-03   -0.24992E-03  2528   0.992E-02    0.749E-02
DAV:  12    -0.135890104661E+04   -0.95839E-05   -0.83783E-04  2544   0.497E-02    0.311E-02
DAV:  13    -0.135890105304E+04   -0.64271E-05   -0.22135E-04  2624   0.263E-02    0.235E-02
DAV:  14    -0.135890104907E+04    0.39716E-05   -0.68810E-05  2464   0.175E-02    0.151E-02
DAV:  15    -0.135890104867E+04    0.39334E-06   -0.27741E-05  2184   0.935E-03    0.635E-03
DAV:  16    -0.135890104840E+04    0.26867E-06   -0.20393E-06  1096   0.461E-03
   4 F= -.13589010E+04 E0= -.13589010E+04  d E =-.320758E+01
 BRION: g(F)=  0.536E+01 g(S)=  0.000E+00 retain N=  3 mean eig= 1.89
 eig:   4.903  0.385  0.385
 bond charge predicted
       N       E                     dE             d eps       ncg     rms          rms(c)
DAV:   1    -0.136044597985E+04   -0.15449E+01   -0.24072E+02  1352   0.218E+01    0.396E+00
DAV:   2    -0.136166344736E+04   -0.12175E+01   -0.13132E+01  2280   0.823E+00    0.194E+00
DAV:   3    -0.136168909223E+04   -0.25645E-01   -0.97500E-01  2608   0.183E+00    0.162E+00
DAV:   4    -0.136165122513E+04    0.37867E-01   -0.26052E-01  2560   0.101E+00    0.791E-01
DAV:   5    -0.136164787127E+04    0.33539E-02   -0.74076E-02  2448   0.583E-01    0.497E-01
DAV:   6    -0.136164743721E+04    0.43405E-03   -0.51608E-02  2560   0.413E-01    0.263E-01
DAV:   7    -0.136164722325E+04    0.21397E-03   -0.15373E-02  2288   0.228E-01    0.208E-01
DAV:   8    -0.136164721205E+04    0.11199E-04   -0.53055E-03  2384   0.124E-01    0.127E-01
DAV:   9    -0.136164702915E+04    0.18289E-03   -0.19193E-03  2616   0.820E-02    0.613E-02
DAV:  10    -0.136164712536E+04   -0.96201E-04   -0.13885E-03  2512   0.643E-02    0.775E-02
DAV:  11    -0.136164705016E+04    0.75197E-04   -0.51886E-04  2528   0.437E-02    0.278E-02
DAV:  12    -0.136164705750E+04   -0.73397E-05   -0.18773E-04  2464   0.254E-02    0.165E-02
DAV:  13    -0.136164705978E+04   -0.22826E-05   -0.40587E-05  2448   0.121E-02    0.105E-02
DAV:  14    -0.136164705929E+04    0.49380E-06   -0.54872E-06  1376   0.632E-03
   5 F= -.13616471E+04 E0= -.13616471E+04  d E =-.274601E+01
 BRION: g(F)=  0.235E+01 g(S)=  0.000E+00 retain N=  4 mean eig= 1.54
 eig:   4.947  0.771  0.421  0.038
 bond charge predicted
       N       E                     dE             d eps       ncg     rms          rms(c)
DAV:   1    -0.136236520890E+04   -0.71815E+00   -0.21093E+02  1360   0.200E+01    0.299E+00
DAV:   2    -0.136334061735E+04   -0.97541E+00   -0.10360E+01  2312   0.744E+00    0.150E+00
DAV:   3    -0.136335815389E+04   -0.17537E-01   -0.65901E-01  2624   0.153E+00    0.121E+00
DAV:   4    -0.136332800511E+04    0.30149E-01   -0.14620E-01  2536   0.798E-01    0.641E-01
DAV:   5    -0.136332256517E+04    0.54399E-02   -0.60352E-02  2432   0.493E-01    0.370E-01
DAV:   6    -0.136332263948E+04   -0.74302E-04   -0.31188E-02  2584   0.332E-01    0.207E-01
DAV:   7    -0.136332252274E+04    0.11673E-03   -0.88369E-03  2432   0.181E-01    0.152E-01
DAV:   8    -0.136332250910E+04    0.13643E-04   -0.34159E-03  2400   0.102E-01    0.848E-02
DAV:   9    -0.136332244435E+04    0.64751E-04   -0.10395E-03  2608   0.618E-02    0.507E-02
DAV:  10    -0.136332248034E+04   -0.35987E-04   -0.63832E-04  2528   0.449E-02    0.523E-02
DAV:  11    -0.136332244166E+04    0.38678E-04   -0.26751E-04  2536   0.333E-02    0.184E-02
DAV:  12    -0.136332244761E+04   -0.59515E-05   -0.11575E-04  2440   0.200E-02    0.107E-02
DAV:  13    -0.136332244800E+04   -0.38776E-06   -0.16583E-05  1928   0.915E-03    0.665E-03
DAV:  14    -0.136332244807E+04   -0.76368E-07   -0.75656E-06  1592   0.575E-03
   6 F= -.13633224E+04 E0= -.13633224E+04  d E =-.167539E+01
 BRION: g(F)=  0.131E+01 g(S)=  0.000E+00 retain N=  5 mean eig= 1.52
 eig:   4.154  0.924  1.035  1.035  0.472
 bond charge predicted
       N       E                     dE             d eps       ncg     rms          rms(c)
DAV:   1    -0.136348261282E+04   -0.16016E+00   -0.25096E+02  1352   0.221E+01    0.318E+00
DAV:   2    -0.136472104731E+04   -0.12384E+01   -0.13029E+01  2312   0.820E+00    0.160E+00
DAV:   3    -0.136475443202E+04   -0.33385E-01   -0.86606E-01  2608   0.171E+00    0.130E+00
DAV:   4    -0.136472242092E+04    0.32011E-01   -0.17859E-01  2496   0.865E-01    0.684E-01
DAV:   5    -0.136471511923E+04    0.73017E-02   -0.64368E-02  2504   0.520E-01    0.387E-01
DAV:   6    -0.136471526140E+04   -0.14217E-03   -0.29904E-02  2592   0.337E-01    0.227E-01
DAV:   7    -0.136471500390E+04    0.25750E-03   -0.10650E-02  2352   0.205E-01    0.153E-01
DAV:   8    -0.136471519545E+04   -0.19155E-03   -0.54675E-03  2464   0.121E-01    0.103E-01
DAV:   9    -0.136471507167E+04    0.12377E-03   -0.92173E-04  2624   0.665E-02    0.644E-02
DAV:  10    -0.136471507437E+04   -0.26949E-05   -0.10973E-03  2432   0.556E-02    0.464E-02
DAV:  11    -0.136471505471E+04    0.19662E-04   -0.35628E-04  2528   0.389E-02    0.143E-02
DAV:  12    -0.136471506093E+04   -0.62207E-05   -0.86022E-05  2320   0.209E-02    0.102E-02
DAV:  13    -0.136471506236E+04   -0.14297E-05   -0.30502E-05  2312   0.992E-03    0.854E-03
DAV:  14    -0.136471506188E+04    0.48037E-06   -0.92102E-06  1720   0.636E-03
   7 F= -.13647151E+04 E0= -.13647151E+04  d E =-.139261E+01
 BRION: g(F)=  0.789E+00 g(S)=  0.000E+00 retain N=  6 mean eig= 1.94
 eig:   6.045  2.103  2.103  0.916  0.249  0.249
 bond charge predicted
       N       E                     dE             d eps       ncg     rms          rms(c)
DAV:   1    -0.136499996077E+04   -0.28490E+00   -0.72949E+01  1384   0.122E+01    0.168E+00
DAV:   2    -0.136536299053E+04   -0.36303E+00   -0.38980E+00  2288   0.469E+00    0.833E-01
DAV:   3    -0.136538196401E+04   -0.18973E-01   -0.32170E-01  2624   0.986E-01    0.667E-01
DAV:   4    -0.136537508571E+04    0.68783E-02   -0.39143E-02  2600   0.463E-01    0.417E-01
DAV:   5    -0.136537166576E+04    0.34199E-02   -0.20934E-02  2296   0.288E-01    0.183E-01
DAV:   6    -0.136537211675E+04   -0.45099E-03   -0.10229E-02  2528   0.203E-01    0.165E-01
DAV:   7    -0.136537201127E+04    0.10548E-03   -0.48405E-03  2488   0.129E-01    0.110E-01
DAV:   8    -0.136537195513E+04    0.56143E-04   -0.18805E-03  2592   0.807E-02    0.558E-02
DAV:   9    -0.136537194038E+04    0.14751E-04   -0.28845E-04  2552   0.392E-02    0.409E-02
DAV:  10    -0.136537194728E+04   -0.69020E-05   -0.34240E-04  2272   0.309E-02    0.291E-02
DAV:  11    -0.136537193792E+04    0.93596E-05   -0.82483E-05  2472   0.224E-02    0.138E-02
DAV:  12    -0.136537194194E+04   -0.40186E-05   -0.77673E-05  2312   0.141E-02    0.129E-02
DAV:  13    -0.136537193955E+04    0.23909E-05   -0.14530E-05  2000   0.829E-03    0.521E-03
DAV:  14    -0.136537193965E+04   -0.10528E-06   -0.27606E-06  1096   0.497E-03
   8 F= -.13653719E+04 E0= -.13653719E+04  d E =-.656878E+00
 BRION: g(F)=  0.397E+00 g(S)=  0.000E+00 retain N=  7 mean eig= 2.06
 eig:   6.682  2.601  2.601  1.132  0.279  0.555  0.555
 bond charge predicted
       N       E                     dE             d eps       ncg     rms          rms(c)
DAV:   1    -0.136555253352E+04   -0.18059E+00   -0.80671E+01  1376   0.129E+01    0.164E+00
DAV:   2    -0.136596342109E+04   -0.41089E+00   -0.43711E+00  2288   0.493E+00    0.792E-01
DAV:   3    -0.136598900331E+04   -0.25582E-01   -0.35552E-01  2592   0.102E+00    0.653E-01
DAV:   4    -0.136598429475E+04    0.47086E-02   -0.39411E-02  2624   0.463E-01    0.446E-01
DAV:   5    -0.136598026985E+04    0.40249E-02   -0.17932E-02  2408   0.282E-01    0.185E-01
DAV:   6    -0.136598074111E+04   -0.47126E-03   -0.11225E-02  2456   0.209E-01    0.151E-01
DAV:   7    -0.136598071175E+04    0.29367E-04   -0.49048E-03  2456   0.135E-01    0.113E-01
DAV:   8    -0.136598066476E+04    0.46992E-04   -0.21754E-03  2584   0.865E-02    0.594E-02
DAV:   9    -0.136598065029E+04    0.14469E-04   -0.42582E-04  2544   0.438E-02    0.411E-02
DAV:  10    -0.136598065401E+04   -0.37231E-05   -0.19117E-04  2576   0.256E-02    0.253E-02
DAV:  11    -0.136598065378E+04    0.23174E-06   -0.67983E-05  2480   0.183E-02    0.155E-02
DAV:  12    -0.136598065311E+04    0.66751E-06   -0.35858E-05  2328   0.129E-02    0.129E-02
DAV:  13    -0.136598065194E+04    0.11698E-05   -0.23957E-05  2048   0.883E-03    0.595E-03
DAV:  14    -0.136598065170E+04    0.24082E-06   -0.36664E-06  1168   0.563E-03
   9 F= -.13659807E+04 E0= -.13659807E+04  d E =-.608712E+00
 BRION: g(F)=  0.308E+00 g(S)=  0.000E+00 retain N=  7 mean eig= 1.46
 eig:   2.920  2.920  1.317  1.317  0.481  0.745  0.518
 bond charge predicted
       N       E                     dE             d eps       ncg     rms          rms(c)
DAV:   1    -0.136606953894E+04   -0.88887E-01   -0.86238E+01  1376   0.134E+01    0.159E+00
DAV:   2    -0.136651528193E+04   -0.44574E+00   -0.47534E+00  2280   0.516E+00    0.787E-01
DAV:   3    -0.136654429521E+04   -0.29013E-01   -0.39255E-01  2592   0.107E+00    0.648E-01
DAV:   4    -0.136654014421E+04    0.41510E-02   -0.38318E-02  2616   0.469E-01    0.478E-01
DAV:   5    -0.136653496052E+04    0.51837E-02   -0.17647E-02  2400   0.278E-01    0.217E-01
DAV:   6    -0.136653481902E+04    0.14149E-03   -0.13822E-02  2272   0.235E-01    0.143E-01
DAV:   7    -0.136653506225E+04   -0.24323E-03   -0.78016E-03  2408   0.160E-01    0.131E-01
DAV:   8    -0.136653498754E+04    0.74713E-04   -0.20529E-03  2608   0.920E-02    0.844E-02
DAV:   9    -0.136653491818E+04    0.69362E-04   -0.85156E-04  2568   0.535E-02    0.421E-02
DAV:  10    -0.136653494110E+04   -0.22921E-04   -0.31039E-04  2592   0.342E-02    0.309E-02
DAV:  11    -0.136653494230E+04   -0.12032E-05   -0.10007E-04  2480   0.209E-02    0.237E-02
DAV:  12    -0.136653493697E+04    0.53264E-05   -0.83601E-05  2304   0.188E-02    0.191E-02
DAV:  13    -0.136653493415E+04    0.28258E-05   -0.48098E-05  2272   0.131E-02    0.107E-02
DAV:  14    -0.136653493372E+04    0.43148E-06   -0.14692E-05  1776   0.718E-03    0.354E-03
DAV:  15    -0.136653493369E+04    0.25466E-07   -0.13984E-06   968   0.421E-03
  10 F= -.13665349E+04 E0= -.13665349E+04  d E =-.554282E+00
 BRION: g(F)=  0.193E+00 g(S)=  0.000E+00 retain N=  8 mean eig= 2.18
 eig:   4.617  4.617  1.357  2.242  2.242  1.294  0.515  0.515
 bond charge predicted
       N       E                     dE             d eps       ncg     rms          rms(c)
DAV:   1    -0.136649642279E+04    0.38511E-01   -0.10138E+02  1384   0.144E+01    0.171E+00
DAV:   2    -0.136702304942E+04   -0.52663E+00   -0.56028E+00  2296   0.558E+00    0.834E-01
DAV:   3    -0.136705612113E+04   -0.33072E-01   -0.45130E-01  2592   0.112E+00    0.687E-01
DAV:   4    -0.136705099806E+04    0.51231E-02   -0.42369E-02  2616   0.494E-01    0.505E-01
DAV:   5    -0.136704460635E+04    0.63917E-02   -0.19311E-02  2424   0.292E-01    0.218E-01
DAV:   6    -0.136704464810E+04   -0.41747E-04   -0.15739E-02  2328   0.234E-01    0.144E-01
DAV:   7    -0.136704483796E+04   -0.18986E-03   -0.72679E-03  2456   0.158E-01    0.123E-01
DAV:   8    -0.136704478373E+04    0.54232E-04   -0.21453E-03  2584   0.921E-02    0.745E-02
DAV:   9    -0.136704472882E+04    0.54911E-04   -0.70783E-04  2472   0.518E-02    0.422E-02
DAV:  10    -0.136704474938E+04   -0.20563E-04   -0.30821E-04  2496   0.320E-02    0.294E-02
DAV:  11    -0.136704474786E+04    0.15208E-05   -0.98048E-05  2456   0.210E-02    0.201E-02
DAV:  12    -0.136704474606E+04    0.17996E-05   -0.65498E-05  2320   0.165E-02    0.174E-02
DAV:  13    -0.136704474345E+04    0.26065E-05   -0.37475E-05  2256   0.112E-02    0.903E-03
DAV:  14    -0.136704474325E+04    0.20115E-06   -0.12288E-05  1760   0.653E-03    0.294E-03
DAV:  15    -0.136704474335E+04   -0.94529E-07   -0.19682E-06  1008   0.447E-03
  11 F= -.13670447E+04 E0= -.13670447E+04  d E =-.509810E+00
 BRION: g(F)=  0.153E+00 g(S)=  0.000E+00 retain N=  9 mean eig= 2.62
 eig:   6.280  6.280  2.565  2.565  1.592  1.641  1.641  0.517  0.517
 bond charge predicted
       N       E                     dE             d eps       ncg     rms          rms(c)
DAV:   1    -0.136702289468E+04    0.21849E-01   -0.78236E+01  1384   0.127E+01    0.145E+00
DAV:   2    -0.136742515299E+04   -0.40226E+00   -0.42779E+00  2304   0.490E+00    0.723E-01
DAV:   3    -0.136744955866E+04   -0.24406E-01   -0.33803E-01  2584   0.959E-01    0.594E-01
DAV:   4    -0.136744553831E+04    0.40203E-02   -0.30241E-02  2600   0.417E-01    0.443E-01
DAV:   5    -0.136744002784E+04    0.55105E-02   -0.15358E-02  2320   0.255E-01    0.180E-01
DAV:   6    -0.136744022119E+04   -0.19335E-03   -0.12617E-02  2312   0.203E-01    0.129E-01
DAV:   7    -0.136744030643E+04   -0.85250E-04   -0.49693E-03  2440   0.129E-01    0.102E-01
DAV:   8    -0.136744027136E+04    0.35072E-04   -0.15456E-03  2584   0.771E-02    0.574E-02
DAV:   9    -0.136744023581E+04    0.35553E-04   -0.48660E-04  2400   0.433E-02    0.348E-02
DAV:  10    -0.136744024823E+04   -0.12419E-04   -0.16305E-04  2488   0.243E-02    0.255E-02
DAV:  11    -0.136744024357E+04    0.46611E-05   -0.70949E-05  2440   0.171E-02    0.139E-02
DAV:  12    -0.136744024422E+04   -0.65612E-06   -0.34290E-05  2328   0.123E-02    0.124E-02
DAV:  13    -0.136744024295E+04    0.12762E-05   -0.15317E-05  1776   0.734E-03    0.669E-03
DAV:  14    -0.136744024280E+04    0.15124E-06   -0.84419E-06  1616   0.595E-03
  12 F= -.13674402E+04 E0= -.13674402E+04  d E =-.395499E+00
 BRION: g(F)=  0.117E+00 g(S)=  0.000E+00 retain N=  7 mean eig= 3.51
 eig:   7.928  7.928  2.713  2.713  1.190  1.190  0.881
 bond charge predicted
       N       E                     dE             d eps       ncg     rms          rms(c)
DAV:   1    -0.136739973137E+04    0.40512E-01   -0.69552E+01  1384   0.119E+01    0.134E+00
DAV:   2    -0.136775787931E+04   -0.35815E+00   -0.38012E+00  2304   0.467E+00    0.677E-01
DAV:   3    -0.136777933880E+04   -0.21459E-01   -0.29847E-01  2576   0.890E-01    0.558E-01
DAV:   4    -0.136777564958E+04    0.36892E-02   -0.26109E-02  2592   0.387E-01    0.416E-01
DAV:   5    -0.136777073701E+04    0.49126E-02   -0.13649E-02  2296   0.232E-01    0.167E-01
DAV:   6    -0.136777089898E+04   -0.16197E-03   -0.10697E-02  2320   0.184E-01    0.121E-01
DAV:   7    -0.136777096910E+04   -0.70127E-04   -0.48480E-03  2448   0.124E-01    0.954E-02
DAV:   8    -0.136777092775E+04    0.41356E-04   -0.13644E-03  2568   0.754E-02    0.555E-02
DAV:   9    -0.136777090145E+04    0.26292E-04   -0.39001E-04  2384   0.391E-02    0.352E-02
DAV:  10    -0.136777090954E+04   -0.80849E-05   -0.15481E-04  2424   0.227E-02    0.210E-02
DAV:  11    -0.136777091033E+04   -0.79155E-06   -0.56665E-05  2432   0.161E-02    0.141E-02
DAV:  12    -0.136777090933E+04    0.99784E-06   -0.33412E-05  2312   0.124E-02    0.122E-02
DAV:  13    -0.136777090836E+04    0.97524E-06   -0.17557E-05  1920   0.791E-03    0.730E-03
DAV:  14    -0.136777090801E+04    0.34735E-06   -0.80188E-06  1672   0.574E-03
  13 F= -.13677709E+04 E0= -.13677709E+04  d E =-.330665E+00
 BRION: g(F)=  0.941E-01 g(S)=  0.000E+00 retain N=  5 mean eig= 4.33
 eig:   7.115  7.115  1.980  2.715  2.715
 bond charge predicted
       N       E                     dE             d eps       ncg     rms          rms(c)
DAV:   1    -0.136778646044E+04   -0.15552E-01   -0.43251E+01  1384   0.935E+00    0.105E+00
DAV:   2    -0.136800663686E+04   -0.22018E+00   -0.23314E+00  2304   0.365E+00    0.538E-01
DAV:   3    -0.136801975064E+04   -0.13114E-01   -0.18256E-01  2584   0.688E-01    0.444E-01
DAV:   4    -0.136801750656E+04    0.22441E-02   -0.15463E-02  2592   0.297E-01    0.333E-01
DAV:   5    -0.136801424816E+04    0.32584E-02   -0.90549E-03  2224   0.188E-01    0.126E-01
DAV:   6    -0.136801451862E+04   -0.27046E-03   -0.70623E-03  2312   0.144E-01    0.105E-01
DAV:   7    -0.136801450203E+04    0.16583E-04   -0.24224E-03  2456   0.872E-02    0.767E-02
DAV:   8    -0.136801446938E+04    0.32653E-04   -0.84885E-04  2568   0.568E-02    0.408E-02
DAV:   9    -0.136801445285E+04    0.16529E-04   -0.21657E-04  2232   0.298E-02    0.271E-02
DAV:  10    -0.136801445664E+04   -0.37839E-05   -0.67526E-05  2464   0.155E-02    0.161E-02
DAV:  11    -0.136801445479E+04    0.18482E-05   -0.25112E-05  2376   0.104E-02    0.653E-03
DAV:  12    -0.136801445560E+04   -0.81252E-06   -0.11137E-05  1768   0.729E-03    0.598E-03
DAV:  13    -0.136801445525E+04    0.35089E-06   -0.14137E-06   976   0.427E-03
  14 F= -.13680145E+04 E0= -.13680145E+04  d E =-.243547E+00
 BRION: g(F)=  0.807E-01 g(S)=  0.000E+00 retain N=  2 mean eig= 4.42
 eig:   4.417  4.417
 bond charge predicted
       N       E                     dE             d eps       ncg     rms          rms(c)
DAV:   1    -0.136807447204E+04   -0.60016E-01   -0.21858E+01  1384   0.663E+00    0.744E-01
DAV:   2    -0.136818533935E+04   -0.11087E+00   -0.11712E+00  2320   0.259E+00    0.381E-01
DAV:   3    -0.136819157616E+04   -0.62368E-02   -0.89495E-02  2600   0.489E-01    0.306E-01
DAV:   4    -0.136819014064E+04    0.14355E-02   -0.78322E-03  2600   0.212E-01    0.216E-01
DAV:   5    -0.136818875318E+04    0.13875E-02   -0.44838E-03  2256   0.133E-01    0.755E-02
DAV:   6    -0.136818891440E+04   -0.16122E-03   -0.29052E-03  2408   0.937E-02    0.678E-02
DAV:   7    -0.136818891026E+04    0.41364E-05   -0.94433E-04  2440   0.558E-02    0.479E-02
DAV:   8    -0.136818889837E+04    0.11884E-04   -0.33079E-04  2552   0.344E-02    0.256E-02
DAV:   9    -0.136818889312E+04    0.52516E-05   -0.73078E-05  2200   0.183E-02    0.179E-02
DAV:  10    -0.136818889397E+04   -0.84464E-06   -0.32499E-05  2256   0.111E-02    0.959E-03
DAV:  11    -0.136818889350E+04    0.46512E-06   -0.88681E-06  1728   0.743E-03
  15 F= -.13681889E+04 E0= -.13681889E+04  d E =-.174438E+00
 BRION: g(F)=  0.763E-01 g(S)=  0.000E+00 retain N=  3 mean eig= 5.25
 eig:   6.770  6.770  2.196
 bond charge predicted
       N       E                     dE             d eps       ncg     rms          rms(c)
DAV:   1    -0.136824446883E+04   -0.55575E-01   -0.34266E+00  1376   0.262E+00    0.296E-01
DAV:   2    -0.136826188232E+04   -0.17413E-01   -0.18381E-01  2320   0.103E+00    0.154E-01
DAV:   3    -0.136826282928E+04   -0.94695E-03   -0.13771E-02  2576   0.196E-01    0.125E-01
DAV:   4    -0.136826260107E+04    0.22821E-03   -0.13078E-03  2576   0.847E-02    0.869E-02
DAV:   5    -0.136826239748E+04    0.20359E-03   -0.83457E-04  2216   0.559E-02    0.297E-02
DAV:   6    -0.136826243244E+04   -0.34962E-04   -0.46152E-04  2504   0.379E-02    0.314E-02
DAV:   7    -0.136826242647E+04    0.59691E-05   -0.15885E-04  2488   0.231E-02    0.197E-02
DAV:   8    -0.136826242383E+04    0.26402E-05   -0.53037E-05  2504   0.142E-02    0.101E-02
DAV:   9    -0.136826242351E+04    0.31901E-06   -0.65959E-06  1496   0.674E-03
  16 F= -.13682624E+04 E0= -.13682624E+04  d E =-.735300E-01
 BRION: g(F)=  0.745E-01 g(S)=  0.000E+00 retain N=  3 mean eig= 3.27
 eig:   4.486  4.486  0.849
 bond charge predicted
       N       E                     dE             d eps       ncg     rms          rms(c)
DAV:   1    -0.136833807930E+04   -0.75655E-01   -0.99921E+00  1384   0.447E+00    0.503E-01
DAV:   2    -0.136838840537E+04   -0.50326E-01   -0.53017E-01  2304   0.173E+00    0.256E-01
DAV:   3    -0.136839129113E+04   -0.28858E-02   -0.40905E-02  2584   0.334E-01    0.204E-01
DAV:   4    -0.136839064843E+04    0.64271E-03   -0.36450E-03  2584   0.143E-01    0.142E-01
DAV:   5    -0.136839007020E+04    0.57823E-03   -0.20334E-03  2296   0.893E-02    0.492E-02
DAV:   6    -0.136839014315E+04   -0.72950E-04   -0.11869E-03  2440   0.604E-02    0.438E-02
DAV:   7    -0.136839014003E+04    0.31233E-05   -0.36278E-04  2464   0.358E-02    0.301E-02
DAV:   8    -0.136839013494E+04    0.50883E-05   -0.13847E-04  2544   0.225E-02    0.162E-02
DAV:   9    -0.136839013381E+04    0.11297E-05   -0.28424E-05  2304   0.117E-02    0.118E-02
DAV:  10    -0.136839013366E+04    0.15365E-06   -0.12353E-05  1776   0.745E-03    0.559E-03
DAV:  11    -0.136839013345E+04    0.20655E-06   -0.18944E-06  1016   0.572E-03
  17 F= -.13683901E+04 E0= -.13683901E+04  d E =-.127710E+00
 BRION: g(F)=  0.721E-01 g(S)=  0.000E+00 retain N=  3 mean eig= 3.41
 eig:   4.563  4.563  1.106
 bond charge predicted
       N       E                     dE             d eps       ncg     rms          rms(c)
DAV:   1    -0.136846309934E+04   -0.72966E-01   -0.53511E+00  1368   0.327E+00    0.366E-01
DAV:   2    -0.136849012720E+04   -0.27028E-01   -0.28510E-01  2312   0.127E+00    0.186E-01
DAV:   3    -0.136849164473E+04   -0.15175E-02   -0.21652E-02  2576   0.249E-01    0.148E-01
DAV:   4    -0.136849131358E+04    0.33115E-03   -0.19808E-03  2568   0.105E-01    0.104E-01
DAV:   5    -0.136849100924E+04    0.30434E-03   -0.11591E-03  2256   0.666E-02    0.373E-02
DAV:   6    -0.136849104887E+04   -0.39627E-04   -0.66094E-04  2456   0.454E-02    0.351E-02
DAV:   7    -0.136849104541E+04    0.34596E-05   -0.23806E-04  2472   0.288E-02    0.231E-02
DAV:   8    -0.136849104224E+04    0.31657E-05   -0.84114E-05  2536   0.179E-02    0.124E-02
DAV:   9    -0.136849104182E+04    0.42586E-06   -0.15107E-05  2072   0.885E-03    0.902E-03
DAV:  10    -0.136849104177E+04    0.49287E-07   -0.87625E-06  1584   0.611E-03
  18 F= -.13684910E+04 E0= -.13684910E+04  d E =-.100908E+00
 BRION: g(F)=  0.713E-01 g(S)=  0.000E+00 retain N=  3 mean eig= 1.93
 eig:   0.911  2.441  2.441
 bond charge predicted
       N       E                     dE             d eps       ncg     rms          rms(c)
DAV:   1    -0.136856622639E+04   -0.75185E-01   -0.54677E+00  1368   0.331E+00    0.373E-01
DAV:   2    -0.136859399884E+04   -0.27772E-01   -0.29310E-01  2304   0.129E+00    0.189E-01
DAV:   3    -0.136859556406E+04   -0.15652E-02   -0.22414E-02  2576   0.255E-01    0.150E-01
DAV:   4    -0.136859521942E+04    0.34465E-03   -0.21221E-03  2576   0.108E-01    0.103E-01
DAV:   5    -0.136859493078E+04    0.28864E-03   -0.11229E-03  2328   0.657E-02    0.383E-02
DAV:   6    -0.136859496185E+04   -0.31069E-04   -0.60784E-04  2448   0.444E-02    0.323E-02
DAV:   7    -0.136859496041E+04    0.14353E-05   -0.23305E-04  2440   0.285E-02    0.216E-02
DAV:   8    -0.136859495934E+04    0.10707E-05   -0.87495E-05  2552   0.181E-02    0.132E-02
DAV:   9    -0.136859495856E+04    0.78285E-06   -0.17121E-05  2080   0.925E-03    0.959E-03
DAV:  10    -0.136859495830E+04    0.26128E-06   -0.10922E-05  1600   0.663E-03    0.449E-03
DAV:  11    -0.136859495816E+04    0.13842E-06   -0.14866E-06   992   0.547E-03
  19 F= -.13685950E+04 E0= -.13685950E+04  d E =-.103916E+00
 BRION: g(F)=  0.698E-01 g(S)=  0.000E+00 retain N=  3 mean eig= 3.32
 eig:   4.281  4.281  1.394
 bond charge predicted
       N       E                     dE             d eps       ncg     rms          rms(c)
DAV:   1    -0.136868960397E+04   -0.94646E-01   -0.11322E+01  1376   0.476E+00    0.537E-01
DAV:   2    -0.136874659717E+04   -0.56993E-01   -0.60169E-01  2304   0.185E+00    0.271E-01
DAV:   3    -0.136874991643E+04   -0.33193E-02   -0.47166E-02  2576   0.364E-01    0.214E-01
DAV:   4    -0.136874922496E+04    0.69146E-03   -0.43638E-03  2576   0.156E-01    0.150E-01
DAV:   5    -0.136874859122E+04    0.63374E-03   -0.22462E-03  2344   0.943E-02    0.587E-02
DAV:   6    -0.136874863308E+04   -0.41853E-04   -0.13299E-03  2376   0.663E-02    0.459E-02
DAV:   7    -0.136874863523E+04   -0.21528E-05   -0.53541E-04  2472   0.436E-02    0.325E-02
DAV:   8    -0.136874863241E+04    0.28137E-05   -0.19721E-04  2552   0.270E-02    0.198E-02
DAV:   9    -0.136874863030E+04    0.21107E-05   -0.46567E-05  2424   0.142E-02    0.136E-02
DAV:  10    -0.136874863010E+04    0.20045E-06   -0.20775E-05  2224   0.884E-03    0.726E-03
DAV:  11    -0.136874862982E+04    0.27940E-06   -0.34026E-06  1168   0.639E-03
  20 F= -.13687486E+04 E0= -.13687486E+04  d E =-.153672E+00
 BRION: g(F)=  0.678E-01 g(S)=  0.000E+00 retain N=  3 mean eig= 3.38
 eig:   4.257  4.257  1.614
