 running on  160 total cores
 distrk:  each k-point on  160 cores,    1 groups
 distr:  one band on   20 cores,    8 groups
 using from now: INCAR     
 vasp.5.4.4.18Apr17-6-g9f103f2a35 (build May 01 2020 14:22:42) gamma-only       
  
 POSCAR found type information on POSCAR  O  La Zr Li Al
 POSCAR found :  5 types and     190 ions
 scaLAPACK will be used
 LDA part: xc-table for Pade appr. of Perdew
 POSCAR, INCAR and KPOINTS ok, starting setup
 FFT: planning ...
 WAVECAR not read
 WARNING: random wavefunctions but no delay for mixing, default for NELMDL
 entering main loop
       N       E                     dE             d eps       ncg     rms          rms(c)
DAV:   1     0.253056241687E+05    0.25306E+05   -0.42245E+05  1584   0.253E+03
DAV:   2     0.940319318837E+04   -0.15902E+05   -0.14645E+05  1432   0.707E+02
DAV:   3     0.267551297684E+04   -0.67277E+04   -0.61301E+04  1512   0.356E+02
DAV:   4    -0.377236226451E+03   -0.30527E+04   -0.28534E+04  2048   0.223E+02
DAV:   5    -0.142309463075E+04   -0.10459E+04   -0.10093E+04  2528   0.142E+02    0.117E+02
DAV:   6    -0.130404299362E+04    0.11905E+03   -0.14042E+03  2448   0.655E+01    0.502E+01
DAV:   7    -0.132617926323E+04   -0.22136E+02   -0.37487E+02  2560   0.332E+01    0.248E+01
DAV:   8    -0.133651510613E+04   -0.10336E+02   -0.27389E+02  2544   0.269E+01    0.273E+01
DAV:   9    -0.132780508990E+04    0.87100E+01   -0.62341E+01  2472   0.153E+01    0.763E+00
DAV:  10    -0.132893008193E+04   -0.11250E+01   -0.15454E+01  2616   0.835E+00    0.755E+00
DAV:  11    -0.132912928601E+04   -0.19920E+00   -0.67116E+00  2616   0.449E+00    0.404E+00
DAV:  12    -0.132898905652E+04    0.14023E+00   -0.26173E+00  2584   0.359E+00    0.269E+00
DAV:  13    -0.132905595865E+04   -0.66902E-01   -0.77097E-01  2576   0.175E+00    0.192E+00
DAV:  14    -0.132904182493E+04    0.14134E-01   -0.27350E-01  2624   0.105E+00    0.115E+00
DAV:  15    -0.132904906479E+04   -0.72399E-02   -0.80740E-02  2568   0.580E-01    0.969E-01
DAV:  16    -0.132904846408E+04    0.60071E-03   -0.34927E-02  2624   0.334E-01    0.558E-01
DAV:  17    -0.132904661671E+04    0.18474E-02   -0.19451E-02  2496   0.280E-01    0.264E-01
DAV:  18    -0.132904692966E+04   -0.31295E-03   -0.44356E-03  2568   0.137E-01    0.137E-01
DAV:  19    -0.132904689129E+04    0.38363E-04   -0.18913E-03  2528   0.849E-02    0.962E-02
DAV:  20    -0.132904693252E+04   -0.41226E-04   -0.52553E-04  2624   0.457E-02    0.256E-02
DAV:  21    -0.132904694511E+04   -0.12594E-04   -0.13628E-04  2616   0.231E-02    0.253E-02
DAV:  22    -0.132904695868E+04   -0.13564E-04   -0.52005E-05  2320   0.138E-02    0.102E-02
DAV:  23    -0.132904695846E+04    0.22052E-06   -0.19042E-05  1520   0.812E-03    0.616E-03
DAV:  24    -0.132904696166E+04   -0.32021E-05   -0.77218E-06  1192   0.683E-03    0.279E-03
DAV:  25    -0.132904696095E+04    0.71000E-06   -0.52015E-06  1144   0.531E-03
   1 F= -.13290470E+04 E0= -.13290470E+04  d E =-.132905E+04
 BRION: g(F)=  0.636E+02 g(S)=  0.000E+00
 bond charge predicted
       N       E                     dE             d eps       ncg     rms          rms(c)
DAV:   1    -0.130109163881E+04    0.27955E+02   -0.67794E+03  1680   0.121E+02    0.293E+01
DAV:   2    -0.135476684030E+04   -0.53675E+02   -0.61792E+02  2584   0.569E+01    0.140E+01
DAV:   3    -0.135304658601E+04    0.17203E+01   -0.35215E+01  2608   0.147E+01    0.945E+00
DAV:   4    -0.135120397764E+04    0.18426E+01   -0.11841E+01  2464   0.700E+00    0.469E+00
DAV:   5    -0.135097715248E+04    0.22683E+00   -0.31663E+00  2560   0.400E+00    0.302E+00
DAV:   6    -0.135088116695E+04    0.95986E-01   -0.24991E+00  2528   0.293E+00    0.169E+00
DAV:   7    -0.135087498127E+04    0.61857E-02   -0.57641E-01  2536   0.173E+00    0.129E+00
DAV:   8    -0.135086783486E+04    0.71464E-02   -0.32594E-01  2624   0.947E-01    0.548E-01
DAV:   9    -0.135086943532E+04   -0.16005E-02   -0.46851E-02  2608   0.477E-01    0.352E-01
DAV:  10    -0.135086828747E+04    0.11478E-02   -0.13955E-02  2616   0.267E-01    0.183E-01
DAV:  11    -0.135086911098E+04   -0.82351E-03   -0.13248E-02  2624   0.203E-01    0.157E-01
DAV:  12    -0.135086895593E+04    0.15505E-03   -0.22603E-03  2584   0.102E-01    0.695E-02
DAV:  13    -0.135086895785E+04   -0.19180E-05   -0.11652E-03  2616   0.604E-02    0.227E-02
DAV:  14    -0.135086897447E+04   -0.16623E-04   -0.18040E-04  2624   0.298E-02    0.163E-02
DAV:  15    -0.135086897790E+04   -0.34228E-05   -0.50175E-05  2624   0.142E-02    0.913E-03
DAV:  16    -0.135086897871E+04   -0.81310E-06   -0.19064E-05  2432   0.932E-03    0.467E-03
DAV:  17    -0.135086897896E+04   -0.25144E-06   -0.55353E-06  1456   0.640E-03
   2 F= -.13508690E+04 E0= -.13508690E+04  d E =-.218220E+02
 BRION: g(F)=  0.306E+02 g(S)=  0.000E+00 retain N=  1 mean eig= 0.63
 eig:   0.625
 bond charge predicted
       N       E                     dE             d eps       ncg     rms          rms(c)
DAV:   1    -0.134061694389E+04    0.10252E+02   -0.26399E+03  1456   0.716E+01    0.152E+01
DAV:   2    -0.135931540100E+04   -0.18698E+02   -0.22533E+02  2520   0.312E+01    0.131E+01
DAV:   3    -0.135928731411E+04    0.28087E-01   -0.15399E+01  2600   0.101E+01    0.105E+01
DAV:   4    -0.135846984903E+04    0.81747E+00   -0.69319E+00  2272   0.431E+00    0.563E+00
DAV:   5    -0.135841312502E+04    0.56724E-01   -0.23759E+00  2296   0.319E+00    0.429E+00
DAV:   6    -0.135814413065E+04    0.26899E+00   -0.26875E+00  2456   0.305E+00    0.151E+00
DAV:   7    -0.135817556523E+04   -0.31435E-01   -0.83712E-01  2448   0.169E+00    0.115E+00
DAV:   8    -0.135816363649E+04    0.11929E-01   -0.19019E-01  2608   0.816E-01    0.415E-01
DAV:   9    -0.135816546720E+04   -0.18307E-02   -0.50684E-02  2592   0.412E-01    0.333E-01
DAV:  10    -0.135816523005E+04    0.23715E-03   -0.91362E-03  2464   0.208E-01    0.196E-01
DAV:  11    -0.135816516913E+04    0.60921E-04   -0.74833E-03  2384   0.148E-01    0.926E-02
DAV:  12    -0.135816516165E+04    0.74745E-05   -0.14290E-03  2576   0.829E-02    0.435E-02
DAV:  13    -0.135816519409E+04   -0.32439E-04   -0.64055E-04  2608   0.451E-02    0.262E-02
DAV:  14    -0.135816519811E+04   -0.40195E-05   -0.13378E-04  2624   0.248E-02    0.103E-02
DAV:  15    -0.135816520230E+04   -0.41919E-05   -0.53212E-05  2456   0.143E-02    0.753E-03
DAV:  16    -0.135816520381E+04   -0.15109E-05   -0.13308E-05  1952   0.788E-03    0.771E-03
DAV:  17    -0.135816520292E+04    0.88972E-06   -0.34845E-06  1184   0.580E-03
   3 F= -.13581652E+04 E0= -.13581652E+04  d E =-.729622E+01
 BRION: g(F)=  0.514E+01 g(S)=  0.000E+00 retain N=  2 mean eig= 0.93
 eig:   0.448  1.404
 bond charge predicted
       N       E                     dE             d eps       ncg     rms          rms(c)
DAV:   1    -0.135929692783E+04   -0.11317E+01   -0.32471E+02  1352   0.261E+01    0.531E+00
DAV:   2    -0.136093912725E+04   -0.16422E+01   -0.18586E+01  2288   0.102E+01    0.247E+00
DAV:   3    -0.136096428606E+04   -0.25159E-01   -0.14224E+00  2584   0.237E+00    0.203E+00
DAV:   4    -0.136091259575E+04    0.51690E-01   -0.43756E-01  2520   0.133E+00    0.947E-01
DAV:   5    -0.136090921390E+04    0.33819E-02   -0.11842E-01  2408   0.746E-01    0.668E-01
DAV:   6    -0.136090640980E+04    0.28041E-02   -0.88683E-02  2544   0.553E-01    0.302E-01
DAV:   7    -0.136090691459E+04   -0.50479E-03   -0.24289E-02  2288   0.296E-01    0.254E-01
DAV:   8    -0.136090679266E+04    0.12193E-03   -0.73899E-03  2416   0.153E-01    0.149E-01
DAV:   9    -0.136090659877E+04    0.19388E-03   -0.33223E-03  2616   0.108E-01    0.790E-02
DAV:  10    -0.136090670432E+04   -0.10554E-03   -0.16018E-03  2536   0.775E-02    0.855E-02
DAV:  11    -0.136090663176E+04    0.72555E-04   -0.62336E-04  2544   0.484E-02    0.332E-02
DAV:  12    -0.136090663617E+04   -0.44071E-05   -0.23115E-04  2504   0.295E-02    0.146E-02
DAV:  13    -0.136090664009E+04   -0.39234E-05   -0.43119E-05  2512   0.136E-02    0.107E-02
DAV:  14    -0.136090664007E+04    0.21551E-07   -0.12317E-05  2024   0.730E-03    0.657E-03
DAV:  15    -0.136090663979E+04    0.27858E-06   -0.36637E-06  1176   0.560E-03
   4 F= -.13609066E+04 E0= -.13609066E+04  d E =-.274144E+01
 BRION: g(F)=  0.203E+01 g(S)=  0.000E+00 retain N=  3 mean eig= 0.82
 eig:   1.699  0.582  0.179
 bond charge predicted
       N       E                     dE             d eps       ncg     rms          rms(c)
DAV:   1    -0.136162656912E+04   -0.71993E+00   -0.14807E+02  1328   0.170E+01    0.264E+00
DAV:   2    -0.136230534245E+04   -0.67877E+00   -0.73680E+00  2296   0.615E+00    0.138E+00
DAV:   3    -0.136231553884E+04   -0.10196E-01   -0.50004E-01  2576   0.135E+00    0.110E+00
DAV:   4    -0.136229237977E+04    0.23159E-01   -0.12455E-01  2472   0.714E-01    0.525E-01
DAV:   5    -0.136228969986E+04    0.26799E-02   -0.45037E-02  2456   0.451E-01    0.351E-01
DAV:   6    -0.136228930341E+04    0.39646E-03   -0.32529E-02  2552   0.326E-01    0.180E-01
DAV:   7    -0.136228938357E+04   -0.80162E-04   -0.68614E-03  2400   0.172E-01    0.158E-01
DAV:   8    -0.136228922691E+04    0.15666E-03   -0.28575E-03  2376   0.909E-02    0.697E-02
DAV:   9    -0.136228924476E+04   -0.17858E-04   -0.12928E-03  2592   0.606E-02    0.528E-02
DAV:  10    -0.136228924599E+04   -0.12286E-05   -0.32406E-04  2512   0.376E-02    0.476E-02
DAV:  11    -0.136228922037E+04    0.25625E-04   -0.26834E-04  2416   0.286E-02    0.167E-02
DAV:  12    -0.136228922331E+04   -0.29399E-05   -0.93703E-05  2360   0.189E-02    0.101E-02
DAV:  13    -0.136228922374E+04   -0.42935E-06   -0.16951E-05  1816   0.924E-03    0.734E-03
DAV:  14    -0.136228922362E+04    0.12110E-06   -0.10457E-05  1584   0.622E-03    0.406E-03
DAV:  15    -0.136228922342E+04    0.19555E-06   -0.16440E-06  1024   0.467E-03
   5 F= -.13622892E+04 E0= -.13622892E+04  d E =-.138258E+01
 BRION: g(F)=  0.130E+01 g(S)=  0.000E+00 retain N=  4 mean eig= 1.70
 eig:   2.775  2.775  0.630  0.630
 bond charge predicted
       N       E                     dE             d eps       ncg     rms          rms(c)
DAV:   1    -0.136267555634E+04   -0.38633E+00   -0.22321E+02  1360   0.210E+01    0.273E+00
DAV:   2    -0.136375970342E+04   -0.10841E+01   -0.11332E+01  2256   0.765E+00    0.144E+00
DAV:   3    -0.136380444853E+04   -0.44745E-01   -0.82770E-01  2608   0.160E+00    0.115E+00
DAV:   4    -0.136378005082E+04    0.24398E-01   -0.12611E-01  2504   0.757E-01    0.636E-01
DAV:   5    -0.136377328985E+04    0.67610E-02   -0.48911E-02  2472   0.453E-01    0.298E-01
DAV:   6    -0.136377404127E+04   -0.75142E-03   -0.20594E-02  2560   0.283E-01    0.194E-01
DAV:   7    -0.136377386502E+04    0.17625E-03   -0.71959E-03  2352   0.174E-01    0.128E-01
DAV:   8    -0.136377398051E+04   -0.11549E-03   -0.36495E-03  2408   0.101E-01    0.794E-02
DAV:   9    -0.136377392514E+04    0.55364E-04   -0.61242E-04  2568   0.550E-02    0.551E-02
DAV:  10    -0.136377392427E+04    0.86865E-06   -0.72934E-04  2440   0.461E-02    0.350E-02
DAV:  11    -0.136377391650E+04    0.77723E-05   -0.23315E-04  2504   0.320E-02    0.124E-02
DAV:  12    -0.136377392095E+04   -0.44501E-05   -0.69301E-05  2352   0.173E-02    0.126E-02
DAV:  13    -0.136377391945E+04    0.14990E-05   -0.24361E-05  2208   0.992E-03    0.663E-03
DAV:  14    -0.136377391966E+04   -0.20843E-06   -0.10616E-05  1768   0.642E-03    0.393E-03
DAV:  15    -0.136377391968E+04   -0.17128E-07   -0.14339E-06  1024   0.408E-03
   6 F= -.13637739E+04 E0= -.13637739E+04  d E =-.148470E+01
 BRION: g(F)=  0.766E+00 g(S)=  0.000E+00 retain N=  5 mean eig= 1.90
 eig:   3.703  3.703  0.690  0.690  0.723
 bond charge predicted
       N       E                     dE             d eps       ncg     rms          rms(c)
DAV:   1    -0.136409354051E+04   -0.31962E+00   -0.73028E+01  1384   0.122E+01    0.164E+00
DAV:   2    -0.136446391017E+04   -0.37037E+00   -0.39442E+00  2296   0.472E+00    0.810E-01
DAV:   3    -0.136448380855E+04   -0.19898E-01   -0.31096E-01  2616   0.941E-01    0.672E-01
DAV:   4    -0.136447762450E+04    0.61840E-02   -0.36528E-02  2584   0.449E-01    0.423E-01
DAV:   5    -0.136447447811E+04    0.31464E-02   -0.20577E-02  2304   0.282E-01    0.177E-01
DAV:   6    -0.136447512588E+04   -0.64777E-03   -0.96698E-03  2536   0.193E-01    0.172E-01
DAV:   7    -0.136447492476E+04    0.20112E-03   -0.43699E-03  2536   0.124E-01    0.108E-01
DAV:   8    -0.136447486175E+04    0.63012E-04   -0.17242E-03  2584   0.790E-02    0.530E-02
DAV:   9    -0.136447485289E+04    0.88570E-05   -0.25089E-04  2520   0.354E-02    0.381E-02
DAV:  10    -0.136447485934E+04   -0.64565E-05   -0.20881E-04  2320   0.258E-02    0.236E-02
DAV:  11    -0.136447485533E+04    0.40160E-05   -0.51186E-05  2472   0.174E-02    0.114E-02
DAV:  12    -0.136447485854E+04   -0.32105E-05   -0.50112E-05  2328   0.117E-02    0.124E-02
DAV:  13    -0.136447485624E+04    0.22957E-05   -0.11747E-05  1784   0.754E-03    0.535E-03
DAV:  14    -0.136447485636E+04   -0.11614E-06   -0.42566E-06  1296   0.523E-03
   7 F= -.13644749E+04 E0= -.13644749E+04  d E =-.700937E+00
 BRION: g(F)=  0.431E+00 g(S)=  0.000E+00 retain N=  6 mean eig= 2.75
 eig:   6.272  6.272  1.282  1.282  0.708  0.708
 bond charge predicted
       N       E                     dE             d eps       ncg     rms          rms(c)
DAV:   1    -0.136461303197E+04   -0.13818E+00   -0.11599E+02  1384   0.155E+01    0.181E+00
DAV:   2    -0.136520394924E+04   -0.59092E+00   -0.62151E+00  2280   0.605E+00    0.926E-01
DAV:   3    -0.136523795751E+04   -0.34008E-01   -0.48379E-01  2600   0.119E+00    0.747E-01
DAV:   4    -0.136523076908E+04    0.71884E-02   -0.49410E-02  2608   0.521E-01    0.525E-01
DAV:   5    -0.136522424858E+04    0.65205E-02   -0.23851E-02  2408   0.325E-01    0.219E-01
DAV:   6    -0.136522476612E+04   -0.51754E-03   -0.17668E-02  2408   0.259E-01    0.167E-01
DAV:   7    -0.136522482998E+04   -0.63858E-04   -0.81002E-03  2400   0.168E-01    0.134E-01
DAV:   8    -0.136522476639E+04    0.63591E-04   -0.27866E-03  2592   0.101E-01    0.741E-02
DAV:   9    -0.136522472578E+04    0.40611E-04   -0.64583E-04  2504   0.528E-02    0.468E-02
DAV:  10    -0.136522473669E+04   -0.10911E-04   -0.30518E-04  2520   0.322E-02    0.296E-02
DAV:  11    -0.136522473733E+04   -0.64216E-06   -0.10831E-04  2480   0.225E-02    0.188E-02
DAV:  12    -0.136522473589E+04    0.14451E-05   -0.55146E-05  2344   0.163E-02    0.165E-02
DAV:  13    -0.136522473365E+04    0.22405E-05   -0.37662E-05  2192   0.112E-02    0.838E-03
DAV:  14    -0.136522473363E+04    0.16022E-07   -0.13603E-05  1760   0.684E-03    0.307E-03
DAV:  15    -0.136522473376E+04   -0.12577E-06   -0.11743E-06   992   0.404E-03
   8 F= -.13652247E+04 E0= -.13652247E+04  d E =-.749877E+00
 BRION: g(F)=  0.294E+00 g(S)=  0.000E+00 retain N=  7 mean eig= 3.12
 eig:   7.238  7.238  2.308  2.308  0.847  0.847  1.031
 bond charge predicted
       N       E                     dE             d eps       ncg     rms          rms(c)
DAV:   1    -0.136519193244E+04    0.32801E-01   -0.13243E+02  1376   0.163E+01    0.191E+00
DAV:   2    -0.136586557609E+04   -0.67364E+00   -0.70751E+00  2288   0.646E+00    0.972E-01
DAV:   3    -0.136590233983E+04   -0.36764E-01   -0.52861E-01  2600   0.124E+00    0.780E-01
DAV:   4    -0.136589435952E+04    0.79803E-02   -0.55328E-02  2600   0.541E-01    0.534E-01
DAV:   5    -0.136588782917E+04    0.65304E-02   -0.24852E-02  2376   0.323E-01    0.216E-01
DAV:   6    -0.136588852319E+04   -0.69402E-03   -0.16212E-02  2440   0.239E-01    0.158E-01
DAV:   7    -0.136588854844E+04   -0.25247E-04   -0.65207E-03  2408   0.153E-01    0.122E-01
DAV:   8    -0.136588851810E+04    0.30338E-04   -0.25353E-03  2608   0.947E-02    0.688E-02
DAV:   9    -0.136588849139E+04    0.26707E-04   -0.54697E-04  2512   0.490E-02    0.473E-02
DAV:  10    -0.136588849832E+04   -0.69277E-05   -0.26782E-04  2544   0.300E-02    0.281E-02
DAV:  11    -0.136588849827E+04    0.52518E-07   -0.93750E-05  2472   0.208E-02    0.163E-02
DAV:  12    -0.136588849785E+04    0.41792E-06   -0.45279E-05  2352   0.145E-02    0.137E-02
DAV:  13    -0.136588849655E+04    0.12957E-05   -0.27440E-05  2160   0.945E-03    0.670E-03
DAV:  14    -0.136588849665E+04   -0.10109E-06   -0.93766E-06  1768   0.595E-03
   9 F= -.13658885E+04 E0= -.13658885E+04  d E =-.663763E+00
 BRION: g(F)=  0.224E+00 g(S)=  0.000E+00 retain N=  7 mean eig= 3.45
 eig:   7.796  7.796  2.951  2.951  0.959  0.959  0.707
 bond charge predicted
       N       E                     dE             d eps       ncg     rms          rms(c)
DAV:   1    -0.136592625355E+04   -0.37757E-01   -0.75013E+01  1368   0.123E+01    0.144E+00
DAV:   2    -0.136630590530E+04   -0.37965E+00   -0.40010E+00  2280   0.483E+00    0.728E-01
DAV:   3    -0.136632768242E+04   -0.21777E-01   -0.30634E-01  2600   0.948E-01    0.589E-01
DAV:   4    -0.136632350696E+04    0.41755E-02   -0.30686E-02  2608   0.407E-01    0.409E-01
DAV:   5    -0.136631979762E+04    0.37093E-02   -0.14463E-02  2368   0.246E-01    0.159E-01
DAV:   6    -0.136632025246E+04   -0.45484E-03   -0.90066E-03  2456   0.174E-01    0.122E-01
DAV:   7    -0.136632024661E+04    0.58428E-05   -0.34645E-03  2456   0.112E-01    0.877E-02
DAV:   8    -0.136632023422E+04    0.12391E-04   -0.13739E-03  2592   0.708E-02    0.510E-02
DAV:   9    -0.136632022219E+04    0.12029E-04   -0.27437E-04  2512   0.355E-02    0.357E-02
DAV:  10    -0.136632022476E+04   -0.25636E-05   -0.12223E-04  2576   0.209E-02    0.192E-02
DAV:  11    -0.136632022614E+04   -0.13848E-05   -0.38561E-05  2432   0.138E-02    0.114E-02
DAV:  12    -0.136632022581E+04    0.33253E-06   -0.20385E-05  2240   0.100E-02    0.886E-03
DAV:  13    -0.136632022543E+04    0.38005E-06   -0.12479E-05  1768   0.676E-03    0.455E-03
DAV:  14    -0.136632022525E+04    0.17566E-06   -0.19744E-06  1000   0.485E-03
  10 F= -.13663202E+04 E0= -.13663202E+04  d E =-.431729E+00
 BRION: g(F)=  0.165E+00 g(S)=  0.000E+00 retain N=  4 mean eig= 3.54
 eig:   5.883  5.883  1.199  1.199
 bond charge predicted
       N       E                     dE             d eps       ncg     rms          rms(c)
DAV:   1    -0.136633861518E+04   -0.18390E-01   -0.64065E+01  1368   0.114E+01    0.134E+00
DAV:   2    -0.136666327608E+04   -0.32466E+00   -0.34271E+00  2288   0.448E+00    0.666E-01
DAV:   3    -0.136668270842E+04   -0.19432E-01   -0.26829E-01  2576   0.862E-01    0.535E-01
DAV:   4    -0.136667945784E+04    0.32506E-02   -0.26690E-02  2600   0.378E-01    0.384E-01
DAV:   5    -0.136667599270E+04    0.34651E-02   -0.12835E-02  2344   0.230E-01    0.156E-01
DAV:   6    -0.136667629218E+04   -0.29948E-03   -0.86429E-03  2432   0.175E-01    0.116E-01
DAV:   7    -0.136667631966E+04   -0.27477E-04   -0.35639E-03  2440   0.112E-01    0.874E-02
DAV:   8    -0.136667629707E+04    0.22588E-04   -0.12876E-03  2552   0.697E-02    0.514E-02
DAV:   9    -0.136667628304E+04    0.14030E-04   -0.29423E-04  2528   0.351E-02    0.335E-02
DAV:  10    -0.136667628760E+04   -0.45568E-05   -0.11676E-04  2592   0.207E-02    0.195E-02
DAV:  11    -0.136667628872E+04   -0.11289E-05   -0.39086E-05  2472   0.138E-02    0.123E-02
DAV:  12    -0.136667628800E+04    0.72704E-06   -0.21816E-05  2224   0.103E-02    0.950E-03
DAV:  13    -0.136667628747E+04    0.52803E-06   -0.13932E-05  1784   0.718E-03    0.474E-03
DAV:  14    -0.136667628727E+04    0.20143E-06   -0.24212E-06  1040   0.493E-03
  11 F= -.13666763E+04 E0= -.13666763E+04  d E =-.356062E+00
 BRION: g(F)=  0.135E+00 g(S)=  0.000E+00 retain N=  3 mean eig= 4.59
 eig:   6.134  6.134  1.496
 bond charge predicted
       N       E                     dE             d eps       ncg     rms          rms(c)
DAV:   1    -0.136668632920E+04   -0.10042E-01   -0.55428E+01  1368   0.106E+01    0.122E+00
DAV:   2    -0.136696644790E+04   -0.28012E+00   -0.29666E+00  2304   0.418E+00    0.619E-01
DAV:   3    -0.136698269971E+04   -0.16252E-01   -0.22844E-01  2600   0.807E-01    0.499E-01
DAV:   4    -0.136697984159E+04    0.28581E-02   -0.22341E-02  2608   0.349E-01    0.359E-01
DAV:   5    -0.136697677631E+04    0.30653E-02   -0.11098E-02  2312   0.212E-01    0.146E-01
DAV:   6    -0.136697700746E+04   -0.23115E-03   -0.75237E-03  2392   0.163E-01    0.109E-01
DAV:   7    -0.136697703618E+04   -0.28714E-04   -0.32357E-03  2416   0.104E-01    0.810E-02
DAV:   8    -0.136697702157E+04    0.14602E-04   -0.11730E-03  2560   0.659E-02    0.474E-02
DAV:   9    -0.136697701178E+04    0.97884E-05   -0.24948E-04  2520   0.330E-02    0.321E-02
DAV:  10    -0.136697701449E+04   -0.27097E-05   -0.98188E-05  2592   0.190E-02    0.183E-02
DAV:  11    -0.136697701562E+04   -0.11278E-05   -0.34747E-05  2440   0.130E-02    0.114E-02
DAV:  12    -0.136697701499E+04    0.62792E-06   -0.19618E-05  2216   0.965E-03    0.920E-03
DAV:  13    -0.136697701440E+04    0.59263E-06   -0.11148E-05  1760   0.648E-03    0.472E-03
DAV:  14    -0.136697701417E+04    0.23110E-06   -0.22872E-06  1000   0.470E-03
  12 F= -.13669770E+04 E0= -.13669770E+04  d E =-.300727E+00
 BRION: g(F)=  0.115E+00 g(S)=  0.000E+00 retain N=  3 mean eig= 4.31
 eig:   5.702  5.702  1.521
 bond charge predicted
       N       E                     dE             d eps       ncg     rms          rms(c)
DAV:   1    -0.136701970094E+04   -0.42687E-01   -0.35037E+01  1376   0.850E+00    0.974E-01
DAV:   2    -0.136719999651E+04   -0.18030E+00   -0.19081E+00  2304   0.335E+00    0.485E-01
DAV:   3    -0.136721063093E+04   -0.10634E-01   -0.14609E-01  2560   0.654E-01    0.392E-01
DAV:   4    -0.136720900670E+04    0.16242E-02   -0.14458E-02  2608   0.280E-01    0.290E-01
DAV:   5    -0.136720697436E+04    0.20323E-02   -0.73822E-03  2328   0.175E-01    0.118E-01
DAV:   6    -0.136720714538E+04   -0.17102E-03   -0.51765E-03  2392   0.135E-01    0.913E-02
DAV:   7    -0.136720715105E+04   -0.56644E-05   -0.21581E-03  2456   0.866E-02    0.675E-02
DAV:   8    -0.136720713681E+04    0.14231E-04   -0.77232E-04  2544   0.545E-02    0.385E-02
DAV:   9    -0.136720712985E+04    0.69658E-05   -0.16968E-04  2504   0.269E-02    0.253E-02
DAV:  10    -0.136720713259E+04   -0.27400E-05   -0.59917E-05  2560   0.151E-02    0.143E-02
DAV:  11    -0.136720713365E+04   -0.10626E-05   -0.19688E-05  2296   0.100E-02    0.920E-03
DAV:  12    -0.136720713319E+04    0.46454E-06   -0.11804E-05  1808   0.769E-03    0.730E-03
DAV:  13    -0.136720713291E+04    0.27675E-06   -0.84963E-06  1680   0.589E-03
  13 F= -.13672071E+04 E0= -.13672071E+04  d E =-.230119E+00
 BRION: g(F)=  0.102E+00 g(S)=  0.000E+00 retain N=  3 mean eig= 4.66
 eig:   6.137  6.137  1.717
 bond charge predicted
       N       E                     dE             d eps       ncg     rms          rms(c)
DAV:   1    -0.136727924908E+04   -0.72116E-01   -0.17114E+01  1376   0.594E+00    0.688E-01
DAV:   2    -0.136736818169E+04   -0.88933E-01   -0.93908E-01  2304   0.237E+00    0.342E-01
DAV:   3    -0.136737338284E+04   -0.52012E-02   -0.71910E-02  2568   0.458E-01    0.276E-01
DAV:   4    -0.136737249998E+04    0.88286E-03   -0.69442E-03  2608   0.194E-01    0.203E-01
DAV:   5    -0.136737147013E+04    0.10299E-02   -0.37624E-03  2288   0.126E-01    0.805E-02
DAV:   6    -0.136737158187E+04   -0.11174E-03   -0.26533E-03  2368   0.962E-02    0.651E-02
DAV:   7    -0.136737158299E+04   -0.11221E-05   -0.99421E-04  2464   0.581E-02    0.479E-02
DAV:   8    -0.136737157312E+04    0.98680E-05   -0.36937E-04  2568   0.373E-02    0.256E-02
DAV:   9    -0.136737156973E+04    0.33990E-05   -0.80415E-05  2360   0.184E-02    0.168E-02
DAV:  10    -0.136737157103E+04   -0.13001E-05   -0.29115E-05  2360   0.107E-02    0.931E-03
DAV:  11    -0.136737157071E+04    0.31557E-06   -0.51220E-06  1344   0.694E-03
  14 F= -.13673716E+04 E0= -.13673716E+04  d E =-.164438E+00
 BRION: g(F)=  0.952E-01 g(S)=  0.000E+00 retain N=  3 mean eig= 3.86
 eig:   5.083  5.083  1.406
 bond charge predicted
       N       E                     dE             d eps       ncg     rms          rms(c)
DAV:   1    -0.136744520352E+04   -0.73632E-01   -0.17681E+01  1376   0.605E+00    0.683E-01
DAV:   2    -0.136753686530E+04   -0.91662E-01   -0.96659E-01  2280   0.241E+00    0.342E-01
DAV:   3    -0.136754255419E+04   -0.56889E-02   -0.75912E-02  2560   0.464E-01    0.280E-01
DAV:   4    -0.136754181400E+04    0.74019E-03   -0.67142E-03  2608   0.193E-01    0.215E-01
DAV:   5    -0.136754061087E+04    0.12031E-02   -0.38103E-03  2288   0.128E-01    0.875E-02
DAV:   6    -0.136754071181E+04   -0.10094E-03   -0.30687E-03  2352   0.100E-01    0.680E-02
DAV:   7    -0.136754070838E+04    0.34315E-05   -0.10710E-03  2480   0.601E-02    0.498E-02
DAV:   8    -0.136754069842E+04    0.99598E-05   -0.39199E-04  2528   0.390E-02    0.265E-02
DAV:   9    -0.136754069326E+04    0.51582E-05   -0.89383E-05  2288   0.191E-02    0.169E-02
DAV:  10    -0.136754069502E+04   -0.17632E-05   -0.29099E-05  2440   0.106E-02    0.914E-03
DAV:  11    -0.136754069467E+04    0.35144E-06   -0.29948E-06  1112   0.626E-03
  15 F= -.13675407E+04 E0= -.13675407E+04  d E =-.169124E+00
 BRION: g(F)=  0.886E-01 g(S)=  0.000E+00 retain N=  3 mean eig= 3.92
 eig:   5.212  5.212  1.342
 bond charge predicted
       N       E                     dE             d eps       ncg     rms          rms(c)
DAV:   1    -0.136760992204E+04   -0.69227E-01   -0.24513E+01  1376   0.712E+00    0.811E-01
DAV:   2    -0.136773770788E+04   -0.12779E+00   -0.13464E+00  2288   0.285E+00    0.401E-01
DAV:   3    -0.136774552958E+04   -0.78217E-02   -0.10483E-01  2560   0.543E-01    0.327E-01
DAV:   4    -0.136774443907E+04    0.10905E-02   -0.92803E-03  2616   0.227E-01    0.250E-01
DAV:   5    -0.136774273351E+04    0.17056E-02   -0.51713E-03  2280   0.154E-01    0.103E-01
DAV:   6    -0.136774287089E+04   -0.13738E-03   -0.44767E-03  2296   0.123E-01    0.809E-02
DAV:   7    -0.136774287314E+04   -0.22514E-05   -0.16190E-03  2464   0.738E-02    0.629E-02
DAV:   8    -0.136774285551E+04    0.17633E-04   -0.52756E-04  2568   0.459E-02    0.333E-02
DAV:   9    -0.136774284123E+04    0.14277E-04   -0.16392E-04  2320   0.248E-02    0.191E-02
DAV:  10    -0.136774284563E+04   -0.43967E-05   -0.52621E-05  2456   0.144E-02    0.134E-02
DAV:  11    -0.136774284421E+04    0.14216E-05   -0.15939E-05  1952   0.915E-03    0.608E-03
DAV:  12    -0.136774284453E+04   -0.32148E-06   -0.71442E-06  1584   0.683E-03
  16 F= -.13677428E+04 E0= -.13677428E+04  d E =-.202150E+00
 BRION: g(F)=  0.833E-01 g(S)=  0.000E+00 retain N=  3 mean eig= 3.86
 eig:   5.118  5.118  1.333
 bond charge predicted
       N       E                     dE             d eps       ncg     rms          rms(c)
DAV:   1    -0.136782438269E+04   -0.81538E-01   -0.11168E+01  1368   0.480E+00    0.541E-01
DAV:   2    -0.136788252517E+04   -0.58142E-01   -0.61383E-01  2288   0.192E+00    0.273E-01
DAV:   3    -0.136788611852E+04   -0.35934E-02   -0.48586E-02  2560   0.371E-01    0.223E-01
DAV:   4    -0.136788557415E+04    0.54437E-03   -0.42023E-03  2600   0.154E-01    0.169E-01
DAV:   5    -0.136788481653E+04    0.75762E-03   -0.25865E-03  2272   0.104E-01    0.673E-02
DAV:   6    -0.136788488800E+04   -0.71471E-04   -0.18607E-03  2296   0.789E-02    0.573E-02
DAV:   7    -0.136788488260E+04    0.53990E-05   -0.71105E-04  2520   0.487E-02    0.408E-02
DAV:   8    -0.136788487330E+04    0.92962E-05   -0.25693E-04  2504   0.317E-02    0.210E-02
DAV:   9    -0.136788487023E+04    0.30730E-05   -0.57375E-05  2280   0.154E-02    0.135E-02
DAV:  10    -0.136788487098E+04   -0.74481E-06   -0.17833E-05  2216   0.862E-03    0.707E-03
DAV:  11    -0.136788487070E+04    0.28031E-06   -0.16001E-06  1008   0.517E-03
  17 F= -.13678849E+04 E0= -.13678849E+04  d E =-.142026E+00
 BRION: g(F)=  0.802E-01 g(S)=  0.000E+00 retain N=  3 mean eig= 3.24
 eig:   4.139  4.139  1.439
 bond charge predicted
       N       E                     dE             d eps       ncg     rms          rms(c)
DAV:   1    -0.136796973850E+04   -0.84868E-01   -0.10090E+01  1368   0.454E+00    0.508E-01
DAV:   2    -0.136802182118E+04   -0.52083E-01   -0.54757E-01  2288   0.180E+00    0.256E-01
DAV:   3    -0.136802493331E+04   -0.31121E-02   -0.42322E-02  2560   0.339E-01    0.206E-01
DAV:   4    -0.136802441184E+04    0.52147E-03   -0.35862E-03  2600   0.142E-01    0.154E-01
DAV:   5    -0.136802370365E+04    0.70819E-03   -0.22190E-03  2232   0.100E-01    0.576E-02
DAV:   6    -0.136802379239E+04   -0.88738E-04   -0.17231E-03  2376   0.742E-02    0.525E-02
DAV:   7    -0.136802378923E+04    0.31617E-05   -0.46340E-04  2496   0.406E-02    0.397E-02
DAV:   8    -0.136802378051E+04    0.87196E-05   -0.17826E-04  2520   0.255E-02    0.208E-02
DAV:   9    -0.136802377274E+04    0.77684E-05   -0.57738E-05  2200   0.152E-02    0.116E-02
DAV:  10    -0.136802377400E+04   -0.12587E-05   -0.18555E-05  2160   0.870E-03    0.807E-03
DAV:  11    -0.136802377323E+04    0.76684E-06   -0.50326E-06  1408   0.545E-03
  18 F= -.13680238E+04 E0= -.13680238E+04  d E =-.138903E+00
 BRION: g(F)=  0.786E-01 g(S)=  0.000E+00 retain N=  3 mean eig= 3.40
 eig:   4.331  4.331  1.528
 bond charge predicted
       N       E                     dE             d eps       ncg     rms          rms(c)
DAV:   1    -0.136811145095E+04   -0.87677E-01   -0.94541E+00  1368   0.438E+00    0.490E-01
DAV:   2    -0.136816002550E+04   -0.48575E-01   -0.51088E-01  2288   0.173E+00    0.250E-01
DAV:   3    -0.136816293350E+04   -0.29080E-02   -0.40001E-02  2568   0.330E-01    0.200E-01
DAV:   4    -0.136816241059E+04    0.52292E-03   -0.34000E-03  2584   0.138E-01    0.147E-01
DAV:   5    -0.136816180432E+04    0.60627E-03   -0.19970E-03  2240   0.912E-02    0.564E-02
DAV:   6    -0.136816186603E+04   -0.61712E-04   -0.13999E-03  2344   0.669E-02    0.473E-02
DAV:   7    -0.136816186400E+04    0.20252E-05   -0.45607E-04  2488   0.396E-02    0.343E-02
DAV:   8    -0.136816185782E+04    0.61804E-05   -0.18298E-04  2520   0.260E-02    0.181E-02
DAV:   9    -0.136816185475E+04    0.30760E-05   -0.41778E-05  2176   0.135E-02    0.120E-02
DAV:  10    -0.136816185497E+04   -0.21889E-06   -0.14696E-05  1920   0.803E-03    0.584E-03
DAV:  11    -0.136816185476E+04    0.20143E-06   -0.17902E-06  1024   0.524E-03
  19 F= -.13681619E+04 E0= -.13681619E+04  d E =-.138082E+00
 BRION: g(F)=  0.769E-01 g(S)=  0.000E+00 retain N=  3 mean eig= 3.13
 eig:   4.027  4.027  1.322
 bond charge predicted
       N       E                     dE             d eps       ncg     rms          rms(c)
DAV:   1    -0.136825028635E+04   -0.88431E-01   -0.90672E+00  1368   0.428E+00    0.479E-01
DAV:   2    -0.136829667613E+04   -0.46390E-01   -0.48833E-01  2296   0.169E+00    0.244E-01
DAV:   3    -0.136829944258E+04   -0.27665E-02   -0.38179E-02  2560   0.321E-01    0.195E-01
DAV:   4    -0.136829892194E+04    0.52064E-03   -0.32735E-03  2576   0.135E-01    0.142E-01
DAV:   5    -0.136829834681E+04    0.57513E-03   -0.20300E-03  2224   0.913E-02    0.513E-02
DAV:   6    -0.136829842178E+04   -0.74970E-04   -0.12906E-03  2392   0.640E-02    0.474E-02
DAV:   7    -0.136829841775E+04    0.40342E-05   -0.37672E-04  2520   0.365E-02    0.329E-02
DAV:   8    -0.136829841003E+04    0.77164E-05   -0.15525E-04  2520   0.242E-02    0.164E-02
DAV:   9    -0.136829840822E+04    0.18060E-05   -0.30989E-05  2232   0.122E-02    0.112E-02
DAV:  10    -0.136829840826E+04   -0.37980E-07   -0.98653E-06  1816   0.701E-03
  20 F= -.13682984E+04 E0= -.13682984E+04  d E =-.136553E+00
 BRION: g(F)=  0.750E-01 g(S)=  0.000E+00 retain N=  3 mean eig= 3.30
 eig:   4.294  4.294  1.298
