 running on  160 total cores
 distrk:  each k-point on  160 cores,    1 groups
 distr:  one band on   20 cores,    8 groups
 using from now: INCAR     
 vasp.5.4.4.18Apr17-6-g9f103f2a35 (build May 01 2020 14:22:42) gamma-only       
  
 POSCAR found type information on POSCAR  O  La Zr Li Al
 POSCAR found :  5 types and     190 ions
 scaLAPACK will be used
 LDA part: xc-table for Pade appr. of Perdew
 POSCAR, INCAR and KPOINTS ok, starting setup
 FFT: planning ...
 WAVECAR not read
 WARNING: random wavefunctions but no delay for mixing, default for NELMDL
 entering main loop
       N       E                     dE             d eps       ncg     rms          rms(c)
DAV:   1     0.252726942785E+05    0.25273E+05   -0.42284E+05  1592   0.253E+03
DAV:   2     0.941387146282E+04   -0.15859E+05   -0.14590E+05  1424   0.711E+02
DAV:   3     0.269249801200E+04   -0.67214E+04   -0.61230E+04  1520   0.356E+02
DAV:   4    -0.375585288592E+03   -0.30681E+04   -0.28609E+04  2048   0.223E+02
DAV:   5    -0.142461380360E+04   -0.10490E+04   -0.10116E+04  2528   0.141E+02    0.116E+02
DAV:   6    -0.131102810183E+04    0.11359E+03   -0.14445E+03  2432   0.655E+01    0.504E+01
DAV:   7    -0.133285966492E+04   -0.21832E+02   -0.37773E+02  2560   0.335E+01    0.249E+01
DAV:   8    -0.134352265163E+04   -0.10663E+02   -0.28650E+02  2528   0.275E+01    0.280E+01
DAV:   9    -0.133413965100E+04    0.93830E+01   -0.65258E+01  2456   0.156E+01    0.773E+00
DAV:  10    -0.133535193599E+04   -0.12123E+01   -0.15851E+01  2616   0.854E+00    0.813E+00
DAV:  11    -0.133549357770E+04   -0.14164E+00   -0.76406E+00  2616   0.461E+00    0.425E+00
DAV:  12    -0.133532928093E+04    0.16430E+00   -0.27628E+00  2552   0.373E+00    0.279E+00
DAV:  13    -0.133540513855E+04   -0.75858E-01   -0.86635E-01  2552   0.177E+00    0.199E+00
DAV:  14    -0.133538962112E+04    0.15517E-01   -0.30611E-01  2608   0.111E+00    0.121E+00
DAV:  15    -0.133539888429E+04   -0.92632E-02   -0.96376E-02  2552   0.625E-01    0.104E+00
DAV:  16    -0.133539796171E+04    0.92259E-03   -0.35820E-02  2624   0.362E-01    0.686E-01
DAV:  17    -0.133539506845E+04    0.28933E-02   -0.25510E-02  2464   0.312E-01    0.311E-01
DAV:  18    -0.133539539413E+04   -0.32568E-03   -0.49829E-03  2520   0.153E-01    0.191E-01
DAV:  19    -0.133539518234E+04    0.21179E-03   -0.27961E-03  2552   0.998E-02    0.144E-01
DAV:  20    -0.133539520926E+04   -0.26916E-04   -0.66677E-04  2616   0.537E-02    0.489E-02
DAV:  21    -0.133539522045E+04   -0.11190E-04   -0.17034E-04  2624   0.266E-02    0.443E-02
DAV:  22    -0.133539523427E+04   -0.13822E-04   -0.60901E-05  2464   0.173E-02    0.144E-02
DAV:  23    -0.133539523533E+04   -0.10557E-05   -0.20323E-05  2040   0.848E-03    0.808E-03
DAV:  24    -0.133539523877E+04   -0.34385E-05   -0.66611E-06  1224   0.702E-03    0.262E-03
DAV:  25    -0.133539523811E+04    0.65123E-06   -0.53810E-06  1176   0.540E-03
   1 F= -.13353952E+04 E0= -.13353952E+04  d E =-.133540E+04
 BRION: g(F)=  0.480E+02 g(S)=  0.000E+00
 bond charge predicted
       N       E                     dE             d eps       ncg     rms          rms(c)
DAV:   1    -0.131386880645E+04    0.21526E+02   -0.55778E+03  1672   0.112E+02    0.225E+01
DAV:   2    -0.135275173028E+04   -0.38883E+02   -0.45206E+02  2568   0.500E+01    0.119E+01
DAV:   3    -0.135164254885E+04    0.11092E+01   -0.27170E+01  2616   0.131E+01    0.808E+00
DAV:   4    -0.135012826573E+04    0.15143E+01   -0.80468E+00  2504   0.581E+00    0.391E+00
DAV:   5    -0.134988021386E+04    0.24805E+00   -0.23445E+00  2528   0.352E+00    0.245E+00
DAV:   6    -0.134984445004E+04    0.35764E-01   -0.19935E+00  2600   0.259E+00    0.140E+00
DAV:   7    -0.134983921054E+04    0.52395E-02   -0.38191E-01  2528   0.136E+00    0.981E-01
DAV:   8    -0.134983669352E+04    0.25170E-02   -0.21939E-01  2616   0.769E-01    0.487E-01
DAV:   9    -0.134983670339E+04   -0.98674E-05   -0.27627E-02  2600   0.424E-01    0.388E-01
DAV:  10    -0.134983501290E+04    0.16905E-02   -0.27111E-02  2584   0.313E-01    0.139E-01
DAV:  11    -0.134983584078E+04   -0.82788E-03   -0.94457E-03  2544   0.203E-01    0.151E-01
DAV:  12    -0.134983577088E+04    0.69902E-04   -0.18152E-03  2624   0.829E-02    0.940E-02
DAV:  13    -0.134983566527E+04    0.10561E-03   -0.13102E-03  2536   0.679E-02    0.189E-02
DAV:  14    -0.134983569412E+04   -0.28844E-04   -0.28171E-04  2400   0.370E-02    0.116E-02
DAV:  15    -0.134983570211E+04   -0.79930E-05   -0.59686E-05  2624   0.155E-02    0.139E-02
DAV:  16    -0.134983570045E+04    0.16601E-05   -0.17807E-05  2144   0.966E-03    0.970E-03
DAV:  17    -0.134983570172E+04   -0.12695E-05   -0.28782E-05  2152   0.922E-03    0.651E-03
DAV:  18    -0.134983570102E+04    0.70162E-06   -0.22542E-06  1072   0.532E-03
   2 F= -.13498357E+04 E0= -.13498357E+04  d E =-.144405E+02
 BRION: g(F)=  0.101E+03 g(S)=  0.000E+00 retain N=  1 mean eig= 0.37
 eig:   0.367
 bond charge predicted
       N       E                     dE             d eps       ncg     rms          rms(c)
DAV:   1    -0.134111255850E+04    0.87231E+01   -0.16488E+03  1320   0.459E+01    0.171E+01
DAV:   2    -0.136045462640E+04   -0.19342E+02   -0.25689E+02  2552   0.251E+01    0.155E+01
DAV:   3    -0.135780537601E+04    0.26493E+01   -0.25423E+01  2448   0.907E+00    0.103E+01
DAV:   4    -0.135604834401E+04    0.17570E+01   -0.20115E+01  2128   0.506E+00    0.391E+00
DAV:   5    -0.135633545063E+04   -0.28711E+00   -0.39691E+00  2448   0.318E+00    0.472E+00
DAV:   6    -0.135595619072E+04    0.37926E+00   -0.38768E+00  2512   0.244E+00    0.114E+00
DAV:   7    -0.135599168619E+04   -0.35495E-01   -0.56421E-01  2432   0.151E+00    0.113E+00
DAV:   8    -0.135597554186E+04    0.16144E-01   -0.20107E-01  2592   0.764E-01    0.496E-01
DAV:   9    -0.135597550586E+04    0.36008E-04   -0.46466E-02  2528   0.410E-01    0.211E-01
DAV:  10    -0.135597613799E+04   -0.63213E-03   -0.11778E-02  2560   0.211E-01    0.153E-01
DAV:  11    -0.135597625916E+04   -0.12118E-03   -0.35782E-03  2584   0.120E-01    0.137E-01
DAV:  12    -0.135597601378E+04    0.24539E-03   -0.21134E-03  2448   0.785E-02    0.406E-02
DAV:  13    -0.135597610440E+04   -0.90629E-04   -0.11496E-03  2608   0.591E-02    0.488E-02
DAV:  14    -0.135597608819E+04    0.16214E-04   -0.13517E-04  2624   0.265E-02    0.357E-02
DAV:  15    -0.135597607639E+04    0.11797E-04   -0.12341E-04  2328   0.179E-02    0.962E-03
DAV:  16    -0.135597607846E+04   -0.20707E-05   -0.24940E-05  2336   0.102E-02    0.364E-03
DAV:  17    -0.135597607874E+04   -0.27807E-06   -0.59542E-06  1552   0.550E-03
   3 F= -.13559761E+04 E0= -.13559761E+04  d E =-.614038E+01
 BRION: g(F)=  0.875E+01 g(S)=  0.000E+00 retain N=  2 mean eig= 2.15
 eig:   0.205  4.098
 bond charge predicted
       N       E                     dE             d eps       ncg     rms          rms(c)
DAV:   1    -0.135712696805E+04   -0.11509E+01   -0.47069E+02  1408   0.309E+01    0.633E+00
DAV:   2    -0.135961226352E+04   -0.24853E+01   -0.28813E+01  2328   0.125E+01    0.294E+00
DAV:   3    -0.135969113610E+04   -0.78873E-01   -0.25984E+00  2616   0.325E+00    0.257E+00
DAV:   4    -0.135961849358E+04    0.72643E-01   -0.44502E-01  2600   0.148E+00    0.149E+00
DAV:   5    -0.135959673475E+04    0.21759E-01   -0.27010E-01  2192   0.985E-01    0.732E-01
DAV:   6    -0.135959739199E+04   -0.65724E-03   -0.12265E-01  2544   0.684E-01    0.566E-01
DAV:   7    -0.135959613431E+04    0.12577E-02   -0.72414E-02  2448   0.473E-01    0.343E-01
DAV:   8    -0.135959567260E+04    0.46170E-03   -0.12296E-02  2592   0.235E-01    0.216E-01
DAV:   9    -0.135959550650E+04    0.16610E-03   -0.47963E-03  2616   0.134E-01    0.119E-01
DAV:  10    -0.135959575060E+04   -0.24410E-03   -0.29530E-03  2224   0.912E-02    0.116E-01
DAV:  11    -0.135959555153E+04    0.19907E-03   -0.10616E-03  2544   0.663E-02    0.437E-02
DAV:  12    -0.135959557402E+04   -0.22493E-04   -0.70202E-04  2528   0.468E-02    0.316E-02
DAV:  13    -0.135959556837E+04    0.56516E-05   -0.11697E-04  2528   0.244E-02    0.153E-02
DAV:  14    -0.135959557091E+04   -0.25410E-05   -0.65439E-05  2448   0.132E-02    0.808E-03
DAV:  15    -0.135959557093E+04   -0.17506E-07   -0.61485E-06  1504   0.703E-03
   4 F= -.13595956E+04 E0= -.13595956E+04  d E =-.361949E+01
 BRION: g(F)=  0.383E+01 g(S)=  0.000E+00 retain N=  3 mean eig= 2.57
 eig:   6.876  0.265  0.583
 bond charge predicted
       N       E                     dE             d eps       ncg     rms          rms(c)
DAV:   1    -0.136058382193E+04   -0.98825E+00   -0.20544E+02  1360   0.198E+01    0.299E+00
DAV:   2    -0.136159336526E+04   -0.10095E+01   -0.10892E+01  2264   0.734E+00    0.158E+00
DAV:   3    -0.136162072285E+04   -0.27358E-01   -0.82444E-01  2616   0.164E+00    0.130E+00
DAV:   4    -0.136158856585E+04    0.32157E-01   -0.16028E-01  2552   0.838E-01    0.707E-01
DAV:   5    -0.136157909162E+04    0.94742E-02   -0.70194E-02  2368   0.516E-01    0.388E-01
DAV:   6    -0.136157958298E+04   -0.49136E-03   -0.38744E-02  2480   0.386E-01    0.289E-01
DAV:   7    -0.136157904904E+04    0.53394E-03   -0.18651E-02  2256   0.241E-01    0.194E-01
DAV:   8    -0.136157908143E+04   -0.32390E-04   -0.59704E-03  2336   0.133E-01    0.109E-01
DAV:   9    -0.136157896461E+04    0.11682E-03   -0.14421E-03  2608   0.735E-02    0.709E-02
DAV:  10    -0.136157902374E+04   -0.59127E-04   -0.12944E-03  2504   0.606E-02    0.727E-02
DAV:  11    -0.136157893933E+04    0.84408E-04   -0.59444E-04  2416   0.490E-02    0.234E-02
DAV:  12    -0.136157895523E+04   -0.15905E-04   -0.23524E-04  2392   0.302E-02    0.182E-02
DAV:  13    -0.136157895452E+04    0.71349E-06   -0.53680E-05  2448   0.140E-02    0.106E-02
DAV:  14    -0.136157895446E+04    0.63475E-07   -0.18431E-05  2064   0.808E-03    0.687E-03
DAV:  15    -0.136157895439E+04    0.64407E-07   -0.37023E-06  1216   0.542E-03
   5 F= -.13615790E+04 E0= -.13615790E+04  d E =-.198338E+01
 BRION: g(F)=  0.267E+01 g(S)=  0.000E+00 retain N=  4 mean eig= 2.01
 eig:   6.737  0.245  0.526  0.526
 bond charge predicted
       N       E                     dE             d eps       ncg     rms          rms(c)
DAV:   1    -0.136238781252E+04   -0.80886E+00   -0.16149E+02  1336   0.175E+01    0.243E+00
DAV:   2    -0.136317670699E+04   -0.78889E+00   -0.83092E+00  2280   0.662E+00    0.130E+00
DAV:   3    -0.136320211796E+04   -0.25411E-01   -0.58202E-01  2624   0.133E+00    0.107E+00
DAV:   4    -0.136318054263E+04    0.21575E-01   -0.10117E-01  2568   0.665E-01    0.577E-01
DAV:   5    -0.136317488067E+04    0.56620E-02   -0.43924E-02  2424   0.411E-01    0.285E-01
DAV:   6    -0.136317548677E+04   -0.60611E-03   -0.18991E-02  2592   0.259E-01    0.204E-01
DAV:   7    -0.136317518466E+04    0.30212E-03   -0.59309E-03  2456   0.149E-01    0.130E-01
DAV:   8    -0.136317517195E+04    0.12709E-04   -0.26090E-03  2536   0.885E-02    0.691E-02
DAV:   9    -0.136317513159E+04    0.40361E-04   -0.43481E-04  2536   0.463E-02    0.445E-02
DAV:  10    -0.136317515223E+04   -0.20645E-04   -0.46751E-04  2232   0.357E-02    0.386E-02
DAV:  11    -0.136317513531E+04    0.16919E-04   -0.17626E-04  2496   0.277E-02    0.141E-02
DAV:  12    -0.136317513979E+04   -0.44823E-05   -0.74657E-05  2344   0.156E-02    0.134E-02
DAV:  13    -0.136317513803E+04    0.17621E-05   -0.25313E-05  2088   0.100E-02    0.553E-03
DAV:  14    -0.136317513808E+04   -0.50117E-07   -0.38795E-06  1208   0.572E-03
   6 F= -.13631751E+04 E0= -.13631751E+04  d E =-.159618E+01
 BRION: g(F)=  0.161E+01 g(S)=  0.000E+00 retain N=  5 mean eig= 2.23
 eig:   7.833  1.288  1.288  0.095  0.659
 bond charge predicted
       N       E                     dE             d eps       ncg     rms          rms(c)
DAV:   1    -0.136363927154E+04   -0.46413E+00   -0.19121E+02  1336   0.190E+01    0.259E+00
DAV:   2    -0.136459682872E+04   -0.95756E+00   -0.10065E+01  2264   0.711E+00    0.143E+00
DAV:   3    -0.136462669731E+04   -0.29869E-01   -0.69232E-01  2608   0.153E+00    0.119E+00
DAV:   4    -0.136460401706E+04    0.22680E-01   -0.12439E-01  2552   0.704E-01    0.670E-01
DAV:   5    -0.136459576952E+04    0.82475E-02   -0.51906E-02  2456   0.443E-01    0.311E-01
DAV:   6    -0.136459652241E+04   -0.75289E-03   -0.23050E-02  2552   0.292E-01    0.253E-01
DAV:   7    -0.136459603129E+04    0.49112E-03   -0.91252E-03  2512   0.181E-01    0.154E-01
DAV:   8    -0.136459605140E+04   -0.20111E-04   -0.42758E-03  2584   0.110E-01    0.766E-02
DAV:   9    -0.136459601079E+04    0.40610E-04   -0.59992E-04  2496   0.531E-02    0.533E-02
DAV:  10    -0.136459601799E+04   -0.71953E-05   -0.48694E-04  2320   0.385E-02    0.345E-02
DAV:  11    -0.136459600811E+04    0.98785E-05   -0.16225E-04  2536   0.274E-02    0.137E-02
DAV:  12    -0.136459601288E+04   -0.47668E-05   -0.73555E-05  2448   0.157E-02    0.144E-02
DAV:  13    -0.136459601070E+04    0.21751E-05   -0.29520E-05  2088   0.106E-02    0.601E-03
DAV:  14    -0.136459601067E+04    0.31519E-07   -0.46666E-06  1264   0.586E-03
   7 F= -.13645960E+04 E0= -.13645960E+04  d E =-.142087E+01
 BRION: g(F)=  0.559E+00 g(S)=  0.000E+00 retain N=  5 mean eig= 1.99
 eig:   3.996  3.996  0.344  0.813  0.813
 bond charge predicted
       N       E                     dE             d eps       ncg     rms          rms(c)
DAV:   1    -0.136486011130E+04   -0.26410E+00   -0.10363E+02  1384   0.143E+01    0.203E+00
DAV:   2    -0.136537756925E+04   -0.51746E+00   -0.54769E+00  2296   0.557E+00    0.953E-01
DAV:   3    -0.136540216407E+04   -0.24595E-01   -0.41731E-01  2624   0.109E+00    0.758E-01
DAV:   4    -0.136539169763E+04    0.10466E-01   -0.53781E-02  2560   0.535E-01    0.446E-01
DAV:   5    -0.136538809782E+04    0.35998E-02   -0.25991E-02  2392   0.327E-01    0.192E-01
DAV:   6    -0.136538881549E+04   -0.71768E-03   -0.12327E-02  2544   0.205E-01    0.150E-01
DAV:   7    -0.136538870790E+04    0.10760E-03   -0.34854E-03  2528   0.118E-01    0.100E-01
DAV:   8    -0.136538870541E+04    0.24887E-05   -0.17276E-03  2560   0.736E-02    0.537E-02
DAV:   9    -0.136538868437E+04    0.21040E-04   -0.26861E-04  2560   0.386E-02    0.371E-02
DAV:  10    -0.136538868892E+04   -0.45549E-05   -0.27336E-04  2392   0.296E-02    0.241E-02
DAV:  11    -0.136538868597E+04    0.29570E-05   -0.71146E-05  2480   0.194E-02    0.114E-02
DAV:  12    -0.136538868823E+04   -0.22675E-05   -0.44034E-05  2328   0.112E-02    0.101E-02
DAV:  13    -0.136538868701E+04    0.12256E-05   -0.10959E-05  1744   0.759E-03    0.425E-03
DAV:  14    -0.136538868707E+04   -0.65513E-07   -0.36776E-06  1208   0.543E-03
   8 F= -.13653887E+04 E0= -.13653887E+04  d E =-.792676E+00
 BRION: g(F)=  0.436E+00 g(S)=  0.000E+00 retain N=  6 mean eig= 2.42
 eig:   5.874  5.874  0.885  0.885  0.355  0.623
 bond charge predicted
       N       E                     dE             d eps       ncg     rms          rms(c)
DAV:   1    -0.136567003188E+04   -0.28134E+00   -0.66324E+01  1384   0.117E+01    0.145E+00
DAV:   2    -0.136601260328E+04   -0.34257E+00   -0.36462E+00  2288   0.460E+00    0.706E-01
DAV:   3    -0.136603382316E+04   -0.21220E-01   -0.29577E-01  2584   0.913E-01    0.598E-01
DAV:   4    -0.136602993733E+04    0.38858E-02   -0.29974E-02  2616   0.412E-01    0.423E-01
DAV:   5    -0.136602572913E+04    0.42082E-02   -0.16073E-02  2328   0.269E-01    0.173E-01
DAV:   6    -0.136602624426E+04   -0.51512E-03   -0.12200E-02  2384   0.213E-01    0.159E-01
DAV:   7    -0.136602613931E+04    0.10494E-03   -0.48668E-03  2432   0.134E-01    0.118E-01
DAV:   8    -0.136602607412E+04    0.65189E-04   -0.21194E-03  2576   0.846E-02    0.563E-02
DAV:   9    -0.136602605023E+04    0.23897E-04   -0.43442E-04  2336   0.427E-02    0.372E-02
DAV:  10    -0.136602605504E+04   -0.48125E-05   -0.17282E-04  2392   0.243E-02    0.229E-02
DAV:  11    -0.136602605395E+04    0.10906E-05   -0.48004E-05  2456   0.158E-02    0.142E-02
DAV:  12    -0.136602605436E+04   -0.41598E-06   -0.35705E-05  2328   0.120E-02    0.125E-02
DAV:  13    -0.136602605285E+04    0.15168E-05   -0.19210E-05  1936   0.832E-03    0.572E-03
DAV:  14    -0.136602605275E+04    0.93991E-07   -0.34718E-06  1184   0.544E-03
   9 F= -.13660261E+04 E0= -.13660261E+04  d E =-.637366E+00
 BRION: g(F)=  0.349E+00 g(S)=  0.000E+00 retain N=  7 mean eig= 2.85
 eig:   7.233  7.233  1.676  1.676  0.340  0.912  0.912
 bond charge predicted
       N       E                     dE             d eps       ncg     rms          rms(c)
DAV:   1    -0.136618424012E+04   -0.15819E+00   -0.10766E+02  1384   0.149E+01    0.181E+00
DAV:   2    -0.136675752797E+04   -0.57329E+00   -0.60871E+00  2296   0.603E+00    0.902E-01
DAV:   3    -0.136679097117E+04   -0.33443E-01   -0.48127E-01  2584   0.114E+00    0.741E-01
DAV:   4    -0.136678356358E+04    0.74076E-02   -0.48243E-02  2624   0.529E-01    0.521E-01
DAV:   5    -0.136677607434E+04    0.74892E-02   -0.25183E-02  2328   0.347E-01    0.211E-01
DAV:   6    -0.136677680824E+04   -0.73391E-03   -0.20173E-02  2432   0.269E-01    0.184E-01
DAV:   7    -0.136677675951E+04    0.48729E-04   -0.74371E-03  2432   0.164E-01    0.143E-01
DAV:   8    -0.136677666846E+04    0.91049E-04   -0.29128E-03  2576   0.100E-01    0.705E-02
DAV:   9    -0.136677661571E+04    0.52755E-04   -0.70249E-04  2368   0.541E-02    0.440E-02
DAV:  10    -0.136677663108E+04   -0.15376E-04   -0.30148E-04  2408   0.325E-02    0.291E-02
DAV:  11    -0.136677662734E+04    0.37493E-05   -0.85685E-05  2480   0.207E-02    0.177E-02
DAV:  12    -0.136677662849E+04   -0.11565E-05   -0.58756E-05  2336   0.153E-02    0.168E-02
DAV:  13    -0.136677662560E+04    0.28927E-05   -0.33882E-05  2128   0.107E-02    0.739E-03
DAV:  14    -0.136677662573E+04   -0.13167E-06   -0.98301E-06  1760   0.647E-03
  10 F= -.13667766E+04 E0= -.13667766E+04  d E =-.750573E+00
 BRION: g(F)=  0.229E+00 g(S)=  0.000E+00 retain N=  7 mean eig= 2.61
 eig:   4.419  4.419  3.217  3.217  0.913  0.913  1.186
 bond charge predicted
       N       E                     dE             d eps       ncg     rms          rms(c)
DAV:   1    -0.136697904797E+04   -0.20242E+00   -0.55896E+01  1384   0.107E+01    0.126E+00
DAV:   2    -0.136728158724E+04   -0.30254E+00   -0.32205E+00  2312   0.440E+00    0.638E-01
DAV:   3    -0.136730002418E+04   -0.18437E-01   -0.26016E-01  2592   0.836E-01    0.531E-01
DAV:   4    -0.136729661764E+04    0.34065E-02   -0.23586E-02  2616   0.377E-01    0.395E-01
DAV:   5    -0.136729199270E+04    0.46249E-02   -0.12888E-02  2304   0.243E-01    0.170E-01
DAV:   6    -0.136729214672E+04   -0.15402E-03   -0.12399E-02  2336   0.210E-01    0.134E-01
DAV:   7    -0.136729216882E+04   -0.22096E-04   -0.51502E-03  2392   0.133E-01    0.112E-01
DAV:   8    -0.136729211501E+04    0.53807E-04   -0.16327E-03  2568   0.796E-02    0.601E-02
DAV:   9    -0.136729206766E+04    0.47349E-04   -0.49490E-04  2464   0.432E-02    0.339E-02
DAV:  10    -0.136729208079E+04   -0.13134E-04   -0.21079E-04  2424   0.266E-02    0.231E-02
DAV:  11    -0.136729208049E+04    0.29868E-06   -0.78013E-05  2376   0.178E-02    0.175E-02
DAV:  12    -0.136729207833E+04    0.21633E-05   -0.37389E-05  2304   0.140E-02    0.152E-02
DAV:  13    -0.136729207629E+04    0.20401E-05   -0.32433E-05  2104   0.100E-02    0.719E-03
DAV:  14    -0.136729207609E+04    0.20384E-06   -0.73241E-06  1648   0.594E-03
  11 F= -.13672921E+04 E0= -.13672921E+04  d E =-.515450E+00
 BRION: g(F)=  0.187E+00 g(S)=  0.000E+00 retain N=  8 mean eig= 3.40
 eig:   6.518  6.518  4.468  4.468  1.715  1.715  0.897  0.897
 bond charge predicted
       N       E                     dE             d eps       ncg     rms          rms(c)
DAV:   1    -0.136748191550E+04   -0.18984E+00   -0.42662E+01  1384   0.931E+00    0.110E+00
DAV:   2    -0.136771291460E+04   -0.23100E+00   -0.24516E+00  2288   0.383E+00    0.557E-01
DAV:   3    -0.136772679300E+04   -0.13878E-01   -0.19750E-01  2584   0.744E-01    0.468E-01
DAV:   4    -0.136772430790E+04    0.24851E-02   -0.17907E-02  2608   0.321E-01    0.354E-01
DAV:   5    -0.136772029869E+04    0.40092E-02   -0.99898E-03  2272   0.216E-01    0.154E-01
DAV:   6    -0.136772038219E+04   -0.83499E-04   -0.10653E-02  2312   0.192E-01    0.116E-01
DAV:   7    -0.136772040984E+04   -0.27646E-04   -0.40373E-03  2384   0.116E-01    0.101E-01
DAV:   8    -0.136772036196E+04    0.47881E-04   -0.12533E-03  2552   0.695E-02    0.529E-02
DAV:   9    -0.136772032305E+04    0.38910E-04   -0.42757E-04  2440   0.396E-02    0.286E-02
DAV:  10    -0.136772033528E+04   -0.12237E-04   -0.16207E-04  2416   0.239E-02    0.220E-02
DAV:  11    -0.136772033297E+04    0.23119E-05   -0.62941E-05  2368   0.158E-02    0.150E-02
DAV:  12    -0.136772033170E+04    0.12698E-05   -0.31650E-05  2256   0.124E-02    0.125E-02
DAV:  13    -0.136772033051E+04    0.11923E-05   -0.20254E-05  1960   0.832E-03    0.613E-03
DAV:  14    -0.136772033019E+04    0.32123E-06   -0.32611E-06  1168   0.523E-03
  12 F= -.13677203E+04 E0= -.13677203E+04  d E =-.428254E+00
 BRION: g(F)=  0.166E+00 g(S)=  0.000E+00 retain N=  4 mean eig= 5.18
 eig:   7.655  7.655  2.695  2.695
 bond charge predicted
       N       E                     dE             d eps       ncg     rms          rms(c)
DAV:   1    -0.136768404693E+04    0.36284E-01   -0.11845E+02  1368   0.155E+01    0.181E+00
DAV:   2    -0.136832088401E+04   -0.63684E+00   -0.67336E+00  2288   0.634E+00    0.933E-01
DAV:   3    -0.136835749601E+04   -0.36612E-01   -0.53376E-01  2600   0.121E+00    0.769E-01
DAV:   4    -0.136834981010E+04    0.76859E-02   -0.49063E-02  2616   0.531E-01    0.568E-01
DAV:   5    -0.136833948247E+04    0.10328E-01   -0.25529E-02  2336   0.336E-01    0.246E-01
DAV:   6    -0.136833945972E+04    0.22746E-04   -0.24500E-02  2304   0.286E-01    0.166E-01
DAV:   7    -0.136833966591E+04   -0.20619E-03   -0.99372E-03  2424   0.181E-01    0.151E-01
DAV:   8    -0.136833954471E+04    0.12120E-03   -0.28272E-03  2568   0.107E-01    0.854E-02
DAV:   9    -0.136833945679E+04    0.87922E-04   -0.10621E-03  2528   0.610E-02    0.451E-02
DAV:  10    -0.136833948384E+04   -0.27056E-04   -0.37499E-04  2576   0.372E-02    0.335E-02
DAV:  11    -0.136833947949E+04    0.43557E-05   -0.13780E-04  2472   0.238E-02    0.217E-02
DAV:  12    -0.136833947791E+04    0.15755E-05   -0.79875E-05  2368   0.189E-02    0.192E-02
DAV:  13    -0.136833947522E+04    0.26916E-05   -0.48920E-05  2232   0.124E-02    0.107E-02
DAV:  14    -0.136833947463E+04    0.59456E-06   -0.15520E-05  1816   0.718E-03    0.359E-03
DAV:  15    -0.136833947463E+04    0.11787E-08   -0.17101E-06   984   0.452E-03
  13 F= -.13683395E+04 E0= -.13683395E+04  d E =-.619144E+00
 BRION: g(F)=  0.129E+00 g(S)=  0.000E+00 retain N=  2 mean eig= 4.84
 eig:   4.844  4.844
 bond charge predicted
       N       E                     dE             d eps       ncg     rms          rms(c)
DAV:   1    -0.136846904249E+04   -0.12957E+00   -0.24266E+01  1376   0.700E+00    0.808E-01
DAV:   2    -0.136859636190E+04   -0.12732E+00   -0.13470E+00  2304   0.283E+00    0.420E-01
DAV:   3    -0.136860349310E+04   -0.71312E-02   -0.10591E-01  2592   0.532E-01    0.343E-01
DAV:   4    -0.136860173915E+04    0.17539E-02   -0.99629E-03  2592   0.238E-01    0.246E-01
DAV:   5    -0.136859981936E+04    0.19198E-02   -0.55715E-03  2280   0.152E-01    0.977E-02
DAV:   6    -0.136859991510E+04   -0.95747E-04   -0.42992E-03  2352   0.122E-01    0.783E-02
DAV:   7    -0.136859991648E+04   -0.13829E-05   -0.17188E-03  2392   0.759E-02    0.617E-02
DAV:   8    -0.136859990080E+04    0.15681E-04   -0.63659E-04  2608   0.480E-02    0.323E-02
DAV:   9    -0.136859989296E+04    0.78479E-05   -0.14295E-04  2392   0.249E-02    0.220E-02
DAV:  10    -0.136859989446E+04   -0.15047E-05   -0.57226E-05  2392   0.139E-02    0.139E-02
DAV:  11    -0.136859989396E+04    0.49890E-06   -0.20850E-05  2160   0.100E-02    0.828E-03
DAV:  12    -0.136859989404E+04   -0.76951E-07   -0.13654E-05  1904   0.784E-03    0.757E-03
DAV:  13    -0.136859989349E+04    0.54859E-06   -0.59786E-06  1504   0.564E-03
  14 F= -.13685999E+04 E0= -.13685999E+04  d E =-.260419E+00
 BRION: g(F)=  0.116E+00 g(S)=  0.000E+00 retain N=  3 mean eig= 5.51
 eig:   7.366  7.366  1.812
 bond charge predicted
       N       E                     dE             d eps       ncg     rms          rms(c)
DAV:   1    -0.136871207907E+04   -0.11219E+00   -0.19985E+01  1376   0.635E+00    0.730E-01
DAV:   2    -0.136881551191E+04   -0.10343E+00   -0.10887E+00  2296   0.252E+00    0.376E-01
DAV:   3    -0.136882119364E+04   -0.56817E-02   -0.84504E-02  2600   0.481E-01    0.303E-01
DAV:   4    -0.136881968285E+04    0.15108E-02   -0.80879E-03  2600   0.212E-01    0.213E-01
DAV:   5    -0.136881819705E+04    0.14858E-02   -0.43546E-03  2280   0.134E-01    0.812E-02
DAV:   6    -0.136881829767E+04   -0.10062E-03   -0.31870E-03  2424   0.102E-01    0.634E-02
DAV:   7    -0.136881830323E+04   -0.55609E-05   -0.10447E-03  2408   0.609E-02    0.492E-02
DAV:   8    -0.136881829300E+04    0.10226E-04   -0.37681E-04  2600   0.372E-02    0.254E-02
DAV:   9    -0.136881828816E+04    0.48383E-05   -0.89045E-05  2328   0.197E-02    0.171E-02
DAV:  10    -0.136881828943E+04   -0.12707E-05   -0.32519E-05  2344   0.112E-02    0.108E-02
DAV:  11    -0.136881828880E+04    0.63262E-06   -0.11027E-05  1744   0.783E-03    0.552E-03
DAV:  12    -0.136881828922E+04   -0.42126E-06   -0.92674E-06  1608   0.662E-03
  15 F= -.13688183E+04 E0= -.13688183E+04  d E =-.218396E+00
 BRION: g(F)=  0.102E+00 g(S)=  0.000E+00 retain N=  3 mean eig= 5.63
 eig:   7.650  7.650  1.581
 bond charge predicted
       N       E                     dE             d eps       ncg     rms          rms(c)
DAV:   1    -0.136889350669E+04   -0.75218E-01   -0.41656E+01  1376   0.913E+00    0.103E+00
DAV:   2    -0.136910990922E+04   -0.21640E+00   -0.22809E+00  2304   0.365E+00    0.536E-01
DAV:   3    -0.136912230541E+04   -0.12396E-01   -0.18000E-01  2600   0.693E-01    0.438E-01
DAV:   4    -0.136911963738E+04    0.26680E-02   -0.16338E-02  2600   0.303E-01    0.319E-01
DAV:   5    -0.136911645202E+04    0.31854E-02   -0.84460E-03  2264   0.181E-01    0.133E-01
DAV:   6    -0.136911646446E+04   -0.12446E-04   -0.67921E-03  2288   0.148E-01    0.909E-02
DAV:   7    -0.136911652223E+04   -0.57767E-04   -0.31606E-03  2432   0.992E-02    0.778E-02
DAV:   8    -0.136911648561E+04    0.36618E-04   -0.87643E-04  2560   0.604E-02    0.443E-02
DAV:   9    -0.136911647283E+04    0.12780E-04   -0.28630E-04  2496   0.322E-02    0.267E-02
DAV:  10    -0.136911647799E+04   -0.51622E-05   -0.88567E-05  2528   0.182E-02    0.184E-02
DAV:  11    -0.136911647756E+04    0.43104E-06   -0.40323E-05  2384   0.130E-02    0.119E-02
DAV:  12    -0.136911647687E+04    0.69012E-06   -0.26804E-05  2224   0.107E-02    0.102E-02
DAV:  13    -0.136911647612E+04    0.75025E-06   -0.11209E-05  1760   0.687E-03    0.642E-03
DAV:  14    -0.136911647576E+04    0.35866E-06   -0.54699E-06  1424   0.516E-03
  16 F= -.13691165E+04 E0= -.13691165E+04  d E =-.298187E+00
 BRION: g(F)=  0.877E-01 g(S)=  0.000E+00 retain N=  3 mean eig= 4.94
 eig:   6.662  6.662  1.497
 bond charge predicted
       N       E                     dE             d eps       ncg     rms          rms(c)
DAV:   1    -0.136914739034E+04   -0.30914E-01   -0.45158E+01  1384   0.952E+00    0.107E+00
DAV:   2    -0.136938098851E+04   -0.23360E+00   -0.24595E+00  2304   0.380E+00    0.555E-01
DAV:   3    -0.136939398085E+04   -0.12992E-01   -0.19131E-01  2608   0.717E-01    0.451E-01
DAV:   4    -0.136939094487E+04    0.30360E-02   -0.17499E-02  2600   0.314E-01    0.324E-01
DAV:   5    -0.136938750296E+04    0.34419E-02   -0.84225E-03  2248   0.187E-01    0.137E-01
DAV:   6    -0.136938744102E+04    0.61942E-04   -0.74178E-03  2272   0.157E-01    0.871E-02
DAV:   7    -0.136938755026E+04   -0.10924E-03   -0.34544E-03  2336   0.103E-01    0.787E-02
DAV:   8    -0.136938752103E+04    0.29230E-04   -0.84985E-04  2592   0.585E-02    0.479E-02
DAV:   9    -0.136938749867E+04    0.22351E-04   -0.35381E-04  2544   0.352E-02    0.262E-02
DAV:  10    -0.136938750770E+04   -0.90253E-05   -0.11385E-04  2536   0.211E-02    0.209E-02
DAV:  11    -0.136938750564E+04    0.20638E-05   -0.52400E-05  2384   0.145E-02    0.127E-02
DAV:  12    -0.136938750569E+04   -0.57073E-07   -0.35834E-05  2248   0.122E-02    0.120E-02
DAV:  13    -0.136938750438E+04    0.13139E-05   -0.14144E-05  1824   0.780E-03    0.756E-03
DAV:  14    -0.136938750402E+04    0.36076E-06   -0.10250E-05  1696   0.616E-03    0.231E-03
DAV:  15    -0.136938750403E+04   -0.86438E-08   -0.91677E-07   936   0.381E-03
  17 F= -.13693875E+04 E0= -.13693875E+04  d E =-.271028E+00
 BRION: g(F)=  0.734E-01 g(S)=  0.000E+00 retain N=  3 mean eig= 5.43
 eig:   1.775  7.260  7.260
 bond charge predicted
       N       E                     dE             d eps       ncg     rms          rms(c)
DAV:   1    -0.136945948345E+04   -0.71979E-01   -0.12762E+01  1384   0.503E+00    0.568E-01
DAV:   2    -0.136952439975E+04   -0.64916E-01   -0.68067E-01  2296   0.196E+00    0.289E-01
DAV:   3    -0.136952819812E+04   -0.37984E-02   -0.53765E-02  2616   0.375E-01    0.234E-01
DAV:   4    -0.136952744006E+04    0.75806E-03   -0.46803E-03  2616   0.163E-01    0.170E-01
DAV:   5    -0.136952654324E+04    0.89683E-03   -0.22454E-03  2312   0.970E-02    0.737E-02
DAV:   6    -0.136952651540E+04    0.27832E-04   -0.19477E-03  2272   0.823E-02    0.462E-02
DAV:   7    -0.136952654524E+04   -0.29840E-04   -0.93123E-04  2432   0.542E-02    0.426E-02
DAV:   8    -0.136952653501E+04    0.10237E-04   -0.23143E-04  2536   0.309E-02    0.257E-02
DAV:   9    -0.136952652829E+04    0.67173E-05   -0.95445E-05  2456   0.182E-02    0.139E-02
DAV:  10    -0.136952653032E+04   -0.20250E-05   -0.32560E-05  2464   0.111E-02    0.100E-02
DAV:  11    -0.136952652999E+04    0.32254E-06   -0.10029E-05  1624   0.734E-03    0.635E-03
DAV:  12    -0.136952652982E+04    0.16780E-06   -0.92378E-06  1568   0.686E-03
  18 F= -.13695265E+04 E0= -.13695265E+04  d E =-.139026E+00
 BRION: g(F)=  0.653E-01 g(S)=  0.000E+00 retain N=  2 mean eig= 4.85
 eig:   4.848  4.848
 bond charge predicted
       N       E                     dE             d eps       ncg     rms          rms(c)
DAV:   1    -0.136957857946E+04   -0.52049E-01   -0.24822E+01  1384   0.699E+00    0.781E-01
DAV:   2    -0.136970431308E+04   -0.12573E+00   -0.13188E+00  2296   0.273E+00    0.402E-01
DAV:   3    -0.136971162971E+04   -0.73166E-02   -0.10345E-01  2584   0.518E-01    0.325E-01
DAV:   4    -0.136971024971E+04    0.13800E-02   -0.93507E-03  2616   0.225E-01    0.237E-01
DAV:   5    -0.136970852832E+04    0.17214E-02   -0.41955E-03  2336   0.136E-01    0.106E-01
DAV:   6    -0.136970843829E+04    0.90029E-04   -0.38001E-03  2272   0.115E-01    0.622E-02
DAV:   7    -0.136970850570E+04   -0.67402E-04   -0.18093E-03  2440   0.763E-02    0.598E-02
DAV:   8    -0.136970848541E+04    0.20287E-04   -0.43064E-04  2536   0.430E-02    0.369E-02
DAV:   9    -0.136970847091E+04    0.14503E-04   -0.19342E-04  2464   0.256E-02    0.189E-02
DAV:  10    -0.136970847591E+04   -0.50061E-05   -0.70305E-05  2496   0.161E-02    0.143E-02
DAV:  11    -0.136970847510E+04    0.81363E-06   -0.21749E-05  2024   0.100E-02    0.898E-03
DAV:  12    -0.136970847454E+04    0.55842E-06   -0.17699E-05  1952   0.875E-03    0.762E-03
DAV:  13    -0.136970847417E+04    0.37407E-06   -0.77996E-06  1712   0.624E-03
  19 F= -.13697085E+04 E0= -.13697085E+04  d E =-.181944E+00
 BRION: g(F)=  0.605E-01 g(S)=  0.000E+00 retain N=  2 mean eig= 4.31
 eig:   4.315  4.315
 bond charge predicted
       N       E                     dE             d eps       ncg     rms          rms(c)
DAV:   1    -0.136973405471E+04   -0.25580E-01   -0.29321E+01  1376   0.761E+00    0.848E-01
DAV:   2    -0.136988074820E+04   -0.14669E+00   -0.15348E+00  2296   0.293E+00    0.434E-01
DAV:   3    -0.136988930626E+04   -0.85581E-02   -0.12014E-01  2592   0.560E-01    0.347E-01
DAV:   4    -0.136988770338E+04    0.16029E-02   -0.10645E-02  2616   0.242E-01    0.253E-01
DAV:   5    -0.136988575513E+04    0.19483E-02   -0.45912E-03  2376   0.147E-01    0.117E-01
DAV:   6    -0.136988559507E+04    0.16005E-03   -0.44299E-03  2288   0.128E-01    0.643E-02
DAV:   7    -0.136988569819E+04   -0.10311E-03   -0.22015E-03  2416   0.845E-02    0.660E-02
DAV:   8    -0.136988567496E+04    0.23225E-04   -0.46982E-04  2568   0.457E-02    0.426E-02
DAV:   9    -0.136988565186E+04    0.23102E-04   -0.24780E-04  2480   0.289E-02    0.201E-02
DAV:  10    -0.136988565921E+04   -0.73505E-05   -0.10122E-04  2496   0.191E-02    0.156E-02
DAV:  11    -0.136988565746E+04    0.17497E-05   -0.23934E-05  2168   0.108E-02    0.861E-03
DAV:  12    -0.136988565719E+04    0.26503E-06   -0.19135E-05  2000   0.890E-03    0.758E-03
DAV:  13    -0.136988565679E+04    0.40018E-06   -0.86109E-06  1720   0.638E-03
  20 F= -.13698857E+04 E0= -.13698857E+04  d E =-.177183E+00
 BRION: g(F)=  0.514E-01 g(S)=  0.000E+00 retain N=  2 mean eig= 4.19
 eig:   4.186  4.186
