 running on  160 total cores
 distrk:  each k-point on  160 cores,    1 groups
 distr:  one band on   20 cores,    8 groups
 using from now: INCAR     
 vasp.5.4.4.18Apr17-6-g9f103f2a35 (build May 01 2020 14:22:42) gamma-only       
  
 POSCAR found type information on POSCAR  O  La Zr Li Al
 POSCAR found :  5 types and     190 ions
 scaLAPACK will be used
 LDA part: xc-table for Pade appr. of Perdew
 POSCAR, INCAR and KPOINTS ok, starting setup
 FFT: planning ...
 WAVECAR not read
 WARNING: random wavefunctions but no delay for mixing, default for NELMDL
 entering main loop
       N       E                     dE             d eps       ncg     rms          rms(c)
DAV:   1     0.253181299802E+05    0.25318E+05   -0.42221E+05  1584   0.253E+03
DAV:   2     0.939313369085E+04   -0.15925E+05   -0.14719E+05  1432   0.707E+02
DAV:   3     0.263108571776E+04   -0.67620E+04   -0.61700E+04  1528   0.356E+02
DAV:   4    -0.385480308481E+03   -0.30166E+04   -0.28255E+04  2048   0.227E+02
DAV:   5    -0.142531951141E+04   -0.10398E+04   -0.99815E+03  2528   0.138E+02    0.117E+02
DAV:   6    -0.130685627901E+04    0.11846E+03   -0.14240E+03  2440   0.656E+01    0.502E+01
DAV:   7    -0.133035103603E+04   -0.23495E+02   -0.39908E+02  2552   0.335E+01    0.249E+01
DAV:   8    -0.133932673020E+04   -0.89757E+01   -0.26374E+02  2528   0.273E+01    0.261E+01
DAV:   9    -0.133210306870E+04    0.72237E+01   -0.57484E+01  2488   0.151E+01    0.741E+00
DAV:  10    -0.133321767078E+04   -0.11146E+01   -0.15465E+01  2616   0.826E+00    0.766E+00
DAV:  11    -0.133343574959E+04   -0.21808E+00   -0.66030E+00  2624   0.450E+00    0.413E+00
DAV:  12    -0.133331086309E+04    0.12489E+00   -0.24553E+00  2576   0.353E+00    0.295E+00
DAV:  13    -0.133338486340E+04   -0.74000E-01   -0.89222E-01  2584   0.174E+00    0.215E+00
DAV:  14    -0.133336367278E+04    0.21191E-01   -0.29873E-01  2600   0.111E+00    0.120E+00
DAV:  15    -0.133337124745E+04   -0.75747E-02   -0.10054E-01  2560   0.621E-01    0.993E-01
DAV:  16    -0.133337019057E+04    0.10569E-02   -0.32700E-02  2624   0.344E-01    0.600E-01
DAV:  17    -0.133336864494E+04    0.15456E-02   -0.26289E-02  2416   0.311E-01    0.305E-01
DAV:  18    -0.133336903269E+04   -0.38775E-03   -0.51831E-03  2384   0.155E-01    0.137E-01
DAV:  19    -0.133336904417E+04   -0.11482E-04   -0.19932E-03  2600   0.921E-02    0.116E-01
DAV:  20    -0.133336907849E+04   -0.34325E-04   -0.54701E-04  2624   0.464E-02    0.310E-02
DAV:  21    -0.133336909382E+04   -0.15330E-04   -0.17002E-04  2608   0.254E-02    0.382E-02
DAV:  22    -0.133336911201E+04   -0.18183E-04   -0.68154E-05  2432   0.173E-02    0.133E-02
DAV:  23    -0.133336910726E+04    0.47430E-05   -0.31178E-05  2080   0.107E-02    0.119E-02
DAV:  24    -0.133336911274E+04   -0.54721E-05   -0.11701E-05  1456   0.898E-03    0.213E-03
DAV:  25    -0.133336911175E+04    0.98422E-06   -0.43570E-06  1016   0.562E-03
   1 F= -.13333691E+04 E0= -.13333691E+04  d E =-.133337E+04
 BRION: g(F)=  0.471E+02 g(S)=  0.000E+00
 bond charge predicted
       N       E                     dE             d eps       ncg     rms          rms(c)
DAV:   1    -0.130936573917E+04    0.24003E+02   -0.62133E+03  1760   0.119E+02    0.241E+01
DAV:   2    -0.135540351123E+04   -0.46038E+02   -0.53665E+02  2576   0.555E+01    0.128E+01
DAV:   3    -0.135393069510E+04    0.14728E+01   -0.31887E+01  2624   0.143E+01    0.889E+00
DAV:   4    -0.135186065836E+04    0.20700E+01   -0.10849E+01  2408   0.711E+00    0.430E+00
DAV:   5    -0.135163494619E+04    0.22571E+00   -0.40795E+00  2552   0.446E+00    0.310E+00
DAV:   6    -0.135158026801E+04    0.54678E-01   -0.31436E+00  2544   0.311E+00    0.182E+00
DAV:   7    -0.135153328191E+04    0.46986E-01   -0.51504E-01  2528   0.175E+00    0.926E-01
DAV:   8    -0.135154146336E+04   -0.81814E-02   -0.34469E-01  2600   0.101E+00    0.672E-01
DAV:   9    -0.135154110260E+04    0.36076E-03   -0.47292E-02  2584   0.495E-01    0.529E-01
DAV:  10    -0.135153765586E+04    0.34467E-02   -0.47037E-02  2480   0.381E-01    0.212E-01
DAV:  11    -0.135153897258E+04   -0.13167E-02   -0.18770E-02  2488   0.267E-01    0.216E-01
DAV:  12    -0.135153871166E+04    0.26091E-03   -0.28832E-03  2552   0.113E-01    0.148E-01
DAV:  13    -0.135153841560E+04    0.29607E-03   -0.32900E-03  2312   0.988E-02    0.256E-02
DAV:  14    -0.135153848722E+04   -0.71623E-04   -0.76389E-04  2432   0.577E-02    0.298E-02
DAV:  15    -0.135153850390E+04   -0.16686E-04   -0.12104E-04  2608   0.219E-02    0.346E-02
DAV:  16    -0.135153848456E+04    0.19347E-04   -0.64911E-05  2528   0.164E-02    0.186E-02
DAV:  17    -0.135153848492E+04   -0.36723E-06   -0.72285E-05  2472   0.143E-02    0.592E-03
DAV:  18    -0.135153848438E+04    0.54414E-06   -0.35323E-06  1160   0.678E-03
   2 F= -.13515385E+04 E0= -.13515385E+04  d E =-.181694E+02
 BRION: g(F)=  0.223E+02 g(S)=  0.000E+00 retain N=  1 mean eig= 0.63
 eig:   0.634
 bond charge predicted
       N       E                     dE             d eps       ncg     rms          rms(c)
DAV:   1    -0.134549506182E+04    0.60434E+01   -0.19077E+03  1464   0.616E+01    0.124E+01
DAV:   2    -0.135761032064E+04   -0.12115E+02   -0.14652E+02  2504   0.267E+01    0.112E+01
DAV:   3    -0.135797891180E+04   -0.36859E+00   -0.11401E+01  2568   0.773E+00    0.886E+00
DAV:   4    -0.135751586103E+04    0.46305E+00   -0.30584E+00  2496   0.354E+00    0.517E+00
DAV:   5    -0.135734003874E+04    0.17582E+00   -0.14869E+00  2200   0.299E+00    0.307E+00
DAV:   6    -0.135725916246E+04    0.80876E-01   -0.16037E+00  2480   0.229E+00    0.146E+00
DAV:   7    -0.135726661844E+04   -0.74560E-02   -0.39207E-01  2488   0.119E+00    0.831E-01
DAV:   8    -0.135726430408E+04    0.23144E-02   -0.60350E-02  2624   0.525E-01    0.530E-01
DAV:   9    -0.135726495906E+04   -0.65498E-03   -0.22715E-02  2600   0.297E-01    0.420E-01
DAV:  10    -0.135726276525E+04    0.21938E-02   -0.95825E-03  2512   0.220E-01    0.202E-01
DAV:  11    -0.135726303001E+04   -0.26476E-03   -0.97261E-03  2528   0.168E-01    0.877E-02
DAV:  12    -0.135726297340E+04    0.56608E-04   -0.14860E-03  2536   0.871E-02    0.362E-02
DAV:  13    -0.135726301119E+04   -0.37785E-04   -0.34821E-04  2400   0.381E-02    0.276E-02
DAV:  14    -0.135726301164E+04   -0.45481E-06   -0.10522E-04  2624   0.207E-02    0.108E-02
DAV:  15    -0.135726301506E+04   -0.34227E-05   -0.53693E-05  2560   0.140E-02    0.775E-03
DAV:  16    -0.135726301542E+04   -0.35197E-06   -0.63471E-06  1344   0.663E-03
   3 F= -.13572630E+04 E0= -.13572630E+04  d E =-.572453E+01
 BRION: g(F)=  0.452E+01 g(S)=  0.000E+00 retain N=  2 mean eig= 1.07
 eig:   0.458  1.677
 bond charge predicted
       N       E                     dE             d eps       ncg     rms          rms(c)
DAV:   1    -0.135824422716E+04   -0.98121E+00   -0.34774E+02  1352   0.271E+01    0.569E+00
DAV:   2    -0.135998332364E+04   -0.17391E+01   -0.19734E+01  2296   0.107E+01    0.239E+00
DAV:   3    -0.136003678994E+04   -0.53466E-01   -0.16268E+00  2584   0.246E+00    0.201E+00
DAV:   4    -0.135998429523E+04    0.52495E-01   -0.39510E-01  2496   0.132E+00    0.100E+00
DAV:   5    -0.135997851903E+04    0.57762E-02   -0.14189E-01  2376   0.774E-01    0.658E-01
DAV:   6    -0.135997677817E+04    0.17409E-02   -0.83001E-02  2560   0.553E-01    0.376E-01
DAV:   7    -0.135997674923E+04    0.28935E-04   -0.31330E-02  2472   0.326E-01    0.263E-01
DAV:   8    -0.135997657653E+04    0.17270E-03   -0.79656E-03  2608   0.171E-01    0.147E-01
DAV:   9    -0.135997645504E+04    0.12149E-03   -0.27956E-03  2624   0.106E-01    0.847E-02
DAV:  10    -0.135997656012E+04   -0.10508E-03   -0.14798E-03  2408   0.706E-02    0.840E-02
DAV:  11    -0.135997648929E+04    0.70831E-04   -0.73422E-04  2576   0.506E-02    0.348E-02
DAV:  12    -0.135997649218E+04   -0.28878E-05   -0.29520E-04  2520   0.325E-02    0.199E-02
DAV:  13    -0.135997649371E+04   -0.15322E-05   -0.62666E-05  2584   0.172E-02    0.110E-02
DAV:  14    -0.135997649489E+04   -0.11816E-05   -0.22685E-05  2336   0.853E-03    0.452E-03
DAV:  15    -0.135997649483E+04    0.65091E-07   -0.23550E-06  1120   0.514E-03
   4 F= -.13599765E+04 E0= -.13599765E+04  d E =-.271348E+01
 BRION: g(F)=  0.153E+01 g(S)=  0.000E+00 retain N=  3 mean eig= 1.05
 eig:   0.653  1.247  1.247
 bond charge predicted
       N       E                     dE             d eps       ncg     rms          rms(c)
DAV:   1    -0.136066922400E+04   -0.69273E+00   -0.16106E+02  1368   0.182E+01    0.252E+00
DAV:   2    -0.136144325210E+04   -0.77403E+00   -0.82628E+00  2304   0.679E+00    0.127E+00
DAV:   3    -0.136147584777E+04   -0.32596E-01   -0.61964E-01  2608   0.140E+00    0.103E+00
DAV:   4    -0.136145953467E+04    0.16313E-01   -0.91871E-02  2592   0.668E-01    0.588E-01
DAV:   5    -0.136145480838E+04    0.47263E-02   -0.41592E-02  2352   0.400E-01    0.279E-01
DAV:   6    -0.136145547203E+04   -0.66365E-03   -0.18991E-02  2576   0.269E-01    0.198E-01
DAV:   7    -0.136145531335E+04    0.15868E-03   -0.78610E-03  2376   0.165E-01    0.127E-01
DAV:   8    -0.136145532841E+04   -0.15059E-04   -0.25404E-03  2608   0.946E-02    0.747E-02
DAV:   9    -0.136145529113E+04    0.37286E-04   -0.56263E-04  2616   0.519E-02    0.501E-02
DAV:  10    -0.136145531960E+04   -0.28469E-04   -0.49963E-04  2352   0.374E-02    0.460E-02
DAV:  11    -0.136145529312E+04    0.26476E-04   -0.23408E-04  2520   0.304E-02    0.155E-02
DAV:  12    -0.136145529673E+04   -0.36100E-05   -0.71376E-05  2376   0.174E-02    0.117E-02
DAV:  13    -0.136145529637E+04    0.36426E-06   -0.16679E-05  2048   0.843E-03    0.571E-03
DAV:  14    -0.136145529668E+04   -0.31324E-06   -0.76802E-06  1712   0.572E-03
   5 F= -.13614553E+04 E0= -.13614553E+04  d E =-.147880E+01
 BRION: g(F)=  0.960E+00 g(S)=  0.000E+00 retain N=  4 mean eig= 1.64
 eig:   2.484  2.484  0.793  0.793
 bond charge predicted
       N       E                     dE             d eps       ncg     rms          rms(c)
DAV:   1    -0.136196463374E+04   -0.50934E+00   -0.10843E+02  1360   0.149E+01    0.184E+00
DAV:   2    -0.136249476898E+04   -0.53014E+00   -0.56089E+00  2304   0.553E+00    0.964E-01
DAV:   3    -0.136252278425E+04   -0.28015E-01   -0.43768E-01  2616   0.113E+00    0.758E-01
DAV:   4    -0.136251391531E+04    0.88689E-02   -0.50713E-02  2616   0.525E-01    0.472E-01
DAV:   5    -0.136250993415E+04    0.39812E-02   -0.24535E-02  2360   0.304E-01    0.190E-01
DAV:   6    -0.136251057728E+04   -0.64313E-03   -0.11289E-02  2536   0.204E-01    0.151E-01
DAV:   7    -0.136251054179E+04    0.35499E-04   -0.45892E-03  2496   0.127E-01    0.986E-02
DAV:   8    -0.136251053280E+04    0.89871E-05   -0.14686E-03  2600   0.749E-02    0.571E-02
DAV:   9    -0.136251051680E+04    0.15999E-04   -0.30744E-04  2568   0.386E-02    0.401E-02
DAV:  10    -0.136251053150E+04   -0.14698E-04   -0.30589E-04  2352   0.292E-02    0.305E-02
DAV:  11    -0.136251052033E+04    0.11165E-04   -0.10128E-04  2496   0.224E-02    0.114E-02
DAV:  12    -0.136251052383E+04   -0.34991E-05   -0.51897E-05  2352   0.131E-02    0.117E-02
DAV:  13    -0.136251052203E+04    0.17966E-05   -0.10733E-05  1768   0.746E-03    0.522E-03
DAV:  14    -0.136251052228E+04   -0.24952E-06   -0.74070E-06  1664   0.580E-03
   6 F= -.13625105E+04 E0= -.13625105E+04  d E =-.105523E+01
 BRION: g(F)=  0.569E+00 g(S)=  0.000E+00 retain N=  5 mean eig= 2.09
 eig:   3.817  3.817  1.023  1.023  0.774
 bond charge predicted
       N       E                     dE             d eps       ncg     rms          rms(c)
DAV:   1    -0.136286135748E+04   -0.35084E+00   -0.10617E+02  1368   0.149E+01    0.186E+00
DAV:   2    -0.136339968743E+04   -0.53833E+00   -0.56924E+00  2288   0.555E+00    0.936E-01
DAV:   3    -0.136343239240E+04   -0.32705E-01   -0.46416E-01  2608   0.118E+00    0.744E-01
DAV:   4    -0.136342495629E+04    0.74361E-02   -0.52835E-02  2608   0.543E-01    0.474E-01
DAV:   5    -0.136342142530E+04    0.35310E-02   -0.24563E-02  2424   0.309E-01    0.192E-01
DAV:   6    -0.136342219366E+04   -0.76835E-03   -0.11301E-02  2576   0.205E-01    0.152E-01
DAV:   7    -0.136342212883E+04    0.64824E-04   -0.49305E-03  2536   0.137E-01    0.998E-02
DAV:   8    -0.136342214443E+04   -0.15602E-04   -0.18873E-03  2608   0.830E-02    0.616E-02
DAV:   9    -0.136342212224E+04    0.22193E-04   -0.31132E-04  2552   0.399E-02    0.439E-02
DAV:  10    -0.136342212695E+04   -0.47110E-05   -0.27620E-04  2520   0.281E-02    0.250E-02
DAV:  11    -0.136342212500E+04    0.19490E-05   -0.84712E-05  2480   0.198E-02    0.108E-02
DAV:  12    -0.136342212622E+04   -0.12132E-05   -0.25931E-05  2224   0.114E-02    0.917E-03
DAV:  13    -0.136342212579E+04    0.42746E-06   -0.12439E-05  1752   0.684E-03    0.460E-03
DAV:  14    -0.136342212563E+04    0.16225E-06   -0.19308E-06  1024   0.512E-03
   7 F= -.13634221E+04 E0= -.13634221E+04  d E =-.911603E+00
 BRION: g(F)=  0.378E+00 g(S)=  0.000E+00 retain N=  6 mean eig= 2.71
 eig:   5.527  5.527  1.683  1.683  0.907  0.907
 bond charge predicted
       N       E                     dE             d eps       ncg     rms          rms(c)
DAV:   1    -0.136363282852E+04   -0.21070E+00   -0.10893E+02  1376   0.149E+01    0.179E+00
DAV:   2    -0.136418973607E+04   -0.55691E+00   -0.58873E+00  2280   0.562E+00    0.913E-01
DAV:   3    -0.136422421106E+04   -0.34475E-01   -0.48296E-01  2600   0.118E+00    0.741E-01
DAV:   4    -0.136421714038E+04    0.70707E-02   -0.50227E-02  2608   0.527E-01    0.505E-01
DAV:   5    -0.136421122554E+04    0.59148E-02   -0.24970E-02  2368   0.319E-01    0.196E-01
DAV:   6    -0.136421211863E+04   -0.89309E-03   -0.15444E-02  2456   0.232E-01    0.171E-01
DAV:   7    -0.136421198817E+04    0.13045E-03   -0.60430E-03  2440   0.148E-01    0.119E-01
DAV:   8    -0.136421195067E+04    0.37501E-04   -0.25032E-03  2608   0.924E-02    0.615E-02
DAV:   9    -0.136421193058E+04    0.20091E-04   -0.43457E-04  2480   0.458E-02    0.453E-02
DAV:  10    -0.136421193460E+04   -0.40154E-05   -0.21643E-04  2552   0.267E-02    0.265E-02
DAV:  11    -0.136421193425E+04    0.34690E-06   -0.82130E-05  2504   0.193E-02    0.146E-02
DAV:  12    -0.136421193467E+04   -0.41474E-06   -0.35618E-05  2376   0.131E-02    0.130E-02
DAV:  13    -0.136421193358E+04    0.10860E-05   -0.23961E-05  2128   0.880E-03    0.662E-03
DAV:  14    -0.136421193330E+04    0.27493E-06   -0.39626E-06  1216   0.546E-03
   8 F= -.13642119E+04 E0= -.13642119E+04  d E =-.789808E+00
 BRION: g(F)=  0.264E+00 g(S)=  0.000E+00 retain N=  6 mean eig= 3.47
 eig:   7.911  7.911  1.649  1.649  0.862  0.862
 bond charge predicted
       N       E                     dE             d eps       ncg     rms          rms(c)
DAV:   1    -0.136435078047E+04   -0.13885E+00   -0.94464E+01  1376   0.138E+01    0.166E+00
DAV:   2    -0.136483640661E+04   -0.48563E+00   -0.51381E+00  2288   0.522E+00    0.837E-01
DAV:   3    -0.136486682441E+04   -0.30418E-01   -0.42583E-01  2608   0.109E+00    0.689E-01
DAV:   4    -0.136486092963E+04    0.58948E-02   -0.42447E-02  2600   0.493E-01    0.482E-01
DAV:   5    -0.136485495378E+04    0.59759E-02   -0.22106E-02  2360   0.300E-01    0.186E-01
DAV:   6    -0.136485570599E+04   -0.75221E-03   -0.14642E-02  2448   0.223E-01    0.162E-01
DAV:   7    -0.136485557206E+04    0.13393E-03   -0.53563E-03  2480   0.140E-01    0.112E-01
DAV:   8    -0.136485553590E+04    0.36156E-04   -0.22146E-03  2576   0.870E-02    0.566E-02
DAV:   9    -0.136485552371E+04    0.12189E-04   -0.38803E-04  2400   0.424E-02    0.417E-02
DAV:  10    -0.136485552693E+04   -0.32183E-05   -0.13896E-04  2424   0.224E-02    0.241E-02
DAV:  11    -0.136485552690E+04    0.27852E-07   -0.61573E-05  2552   0.162E-02    0.125E-02
DAV:  12    -0.136485552755E+04   -0.64162E-06   -0.29521E-05  2400   0.117E-02    0.108E-02
DAV:  13    -0.136485552690E+04    0.64167E-06   -0.14887E-05  1792   0.735E-03    0.584E-03
DAV:  14    -0.136485552665E+04    0.25466E-06   -0.23794E-06  1040   0.524E-03
   9 F= -.13648555E+04 E0= -.13648555E+04  d E =-.643593E+00
 BRION: g(F)=  0.203E+00 g(S)=  0.000E+00 retain N=  4 mean eig= 4.49
 eig:   7.311  7.311  1.672  1.672
 bond charge predicted
       N       E                     dE             d eps       ncg     rms          rms(c)
DAV:   1    -0.136498039921E+04   -0.12487E+00   -0.69423E+01  1360   0.118E+01    0.138E+00
DAV:   2    -0.136534220601E+04   -0.36181E+00   -0.38248E+00  2296   0.460E+00    0.708E-01
DAV:   3    -0.136536422836E+04   -0.22022E-01   -0.31160E-01  2600   0.911E-01    0.584E-01
DAV:   4    -0.136535998631E+04    0.42421E-02   -0.29481E-02  2608   0.410E-01    0.424E-01
DAV:   5    -0.136535453510E+04    0.54512E-02   -0.15418E-02  2344   0.255E-01    0.173E-01
DAV:   6    -0.136535481899E+04   -0.28389E-03   -0.12976E-02  2384   0.210E-01    0.134E-01
DAV:   7    -0.136535482594E+04   -0.69518E-05   -0.50953E-03  2424   0.132E-01    0.107E-01
DAV:   8    -0.136535477389E+04    0.52046E-04   -0.16933E-03  2616   0.795E-02    0.533E-02
DAV:   9    -0.136535474772E+04    0.26177E-04   -0.43893E-04  2392   0.419E-02    0.345E-02
DAV:  10    -0.136535475715E+04   -0.94293E-05   -0.14029E-04  2392   0.224E-02    0.244E-02
DAV:  11    -0.136535475491E+04    0.22360E-05   -0.62707E-05  2448   0.161E-02    0.149E-02
DAV:  12    -0.136535475419E+04    0.72074E-06   -0.34039E-05  2328   0.126E-02    0.121E-02
DAV:  13    -0.136535475331E+04    0.87370E-06   -0.19563E-05  1920   0.821E-03    0.618E-03
DAV:  14    -0.136535475314E+04    0.17830E-06   -0.48594E-06  1360   0.576E-03
  10 F= -.13653548E+04 E0= -.13653548E+04  d E =-.499226E+00
 BRION: g(F)=  0.172E+00 g(S)=  0.000E+00 retain N=  4 mean eig= 5.06
 eig:   7.850  7.850  2.274  2.274
 bond charge predicted
       N       E                     dE             d eps       ncg     rms          rms(c)
DAV:   1    -0.136549564320E+04   -0.14089E+00   -0.41109E+01  1376   0.914E+00    0.106E+00
DAV:   2    -0.136571107830E+04   -0.21544E+00   -0.22804E+00  2304   0.361E+00    0.547E-01
DAV:   3    -0.136572439946E+04   -0.13321E-01   -0.18747E-01  2608   0.709E-01    0.453E-01
DAV:   4    -0.136572198642E+04    0.24130E-02   -0.17184E-02  2608   0.320E-01    0.336E-01
DAV:   5    -0.136571857432E+04    0.34121E-02   -0.92828E-03  2336   0.202E-01    0.140E-01
DAV:   6    -0.136571868749E+04   -0.11317E-03   -0.85306E-03  2320   0.174E-01    0.110E-01
DAV:   7    -0.136571870125E+04   -0.13767E-04   -0.36263E-03  2384   0.111E-01    0.887E-02
DAV:   8    -0.136571866410E+04    0.37156E-04   -0.11473E-03  2568   0.657E-02    0.447E-02
DAV:   9    -0.136571864590E+04    0.18198E-04   -0.30791E-04  2480   0.351E-02    0.280E-02
DAV:  10    -0.136571865179E+04   -0.58924E-05   -0.94845E-05  2456   0.188E-02    0.197E-02
DAV:  11    -0.136571865137E+04    0.42762E-06   -0.45184E-05  2408   0.136E-02    0.135E-02
DAV:  12    -0.136571865025E+04    0.11146E-05   -0.25010E-05  2248   0.111E-02    0.112E-02
DAV:  13    -0.136571864933E+04    0.92341E-06   -0.15970E-05  1864   0.749E-03    0.573E-03
DAV:  14    -0.136571864899E+04    0.33976E-06   -0.27513E-06  1120   0.497E-03
  11 F= -.13657186E+04 E0= -.13657186E+04  d E =-.363896E+00
 BRION: g(F)=  0.157E+00 g(S)=  0.000E+00 retain N=  3 mean eig= 4.88
 eig:   6.393  6.393  1.854
 bond charge predicted
       N       E                     dE             d eps       ncg     rms          rms(c)
DAV:   1    -0.136586371560E+04   -0.14507E+00   -0.27141E+01  1368   0.741E+00    0.877E-01
DAV:   2    -0.136600479428E+04   -0.14108E+00   -0.14957E+00  2304   0.292E+00    0.449E-01
DAV:   3    -0.136601347978E+04   -0.86855E-02   -0.12246E-01  2600   0.571E-01    0.368E-01
DAV:   4    -0.136601173172E+04    0.17481E-02   -0.11476E-02  2600   0.259E-01    0.263E-01
DAV:   5    -0.136600979884E+04    0.19329E-02   -0.65185E-03  2328   0.162E-01    0.990E-02
DAV:   6    -0.136601000079E+04   -0.20195E-03   -0.43917E-03  2424   0.120E-01    0.888E-02
DAV:   7    -0.136600995896E+04    0.41835E-04   -0.15486E-03  2448   0.756E-02    0.610E-02
DAV:   8    -0.136600994475E+04    0.14210E-04   -0.66108E-04  2528   0.480E-02    0.313E-02
DAV:   9    -0.136600994072E+04    0.40313E-05   -0.11402E-04  2312   0.232E-02    0.229E-02
DAV:  10    -0.136600994115E+04   -0.43311E-06   -0.39317E-05  2400   0.121E-02    0.129E-02
DAV:  11    -0.136600994130E+04   -0.14977E-06   -0.15345E-05  2064   0.853E-03    0.682E-03
DAV:  12    -0.136600994135E+04   -0.50873E-07   -0.92193E-06  1712   0.668E-03
  12 F= -.13660099E+04 E0= -.13660099E+04  d E =-.291292E+00
 BRION: g(F)=  0.143E+00 g(S)=  0.000E+00 retain N=  3 mean eig= 4.33
 eig:   5.755  5.755  1.476
 bond charge predicted
       N       E                     dE             d eps       ncg     rms          rms(c)
DAV:   1    -0.136614968273E+04   -0.13974E+00   -0.19726E+01  1384   0.630E+00    0.733E-01
DAV:   2    -0.136625116081E+04   -0.10148E+00   -0.10684E+00  2296   0.250E+00    0.372E-01
DAV:   3    -0.136625728753E+04   -0.61267E-02   -0.86038E-02  2584   0.480E-01    0.300E-01
DAV:   4    -0.136625599791E+04    0.12896E-02   -0.79325E-03  2592   0.214E-01    0.215E-01
DAV:   5    -0.136625457493E+04    0.14230E-02   -0.42654E-03  2304   0.137E-01    0.823E-02
DAV:   6    -0.136625469506E+04   -0.12012E-03   -0.33233E-03  2392   0.105E-01    0.694E-02
DAV:   7    -0.136625469300E+04    0.20504E-05   -0.11057E-03  2408   0.621E-02    0.537E-02
DAV:   8    -0.136625467733E+04    0.15675E-04   -0.42790E-04  2568   0.386E-02    0.265E-02
DAV:   9    -0.136625467059E+04    0.67426E-05   -0.98004E-05  2296   0.205E-02    0.176E-02
DAV:  10    -0.136625467195E+04   -0.13631E-05   -0.34579E-05  2352   0.113E-02    0.114E-02
DAV:  11    -0.136625467120E+04    0.75287E-06   -0.10622E-05  1760   0.753E-03    0.584E-03
DAV:  12    -0.136625467143E+04   -0.23106E-06   -0.82415E-06  1648   0.649E-03
  13 F= -.13662547E+04 E0= -.13662547E+04  d E =-.244730E+00
 BRION: g(F)=  0.134E+00 g(S)=  0.000E+00 retain N=  3 mean eig= 3.73
 eig:   4.924  4.924  1.330
 bond charge predicted
       N       E                     dE             d eps       ncg     rms          rms(c)
DAV:   1    -0.136639842253E+04   -0.14375E+00   -0.20481E+01  1376   0.643E+00    0.737E-01
DAV:   2    -0.136650471154E+04   -0.10629E+00   -0.11194E+00  2304   0.256E+00    0.373E-01
DAV:   3    -0.136651142908E+04   -0.67175E-02   -0.90966E-02  2584   0.488E-01    0.304E-01
DAV:   4    -0.136651037497E+04    0.10541E-02   -0.80034E-03  2600   0.217E-01    0.228E-01
DAV:   5    -0.136650887392E+04    0.15011E-02   -0.42958E-03  2304   0.135E-01    0.938E-02
DAV:   6    -0.136650894182E+04   -0.67905E-04   -0.35539E-03  2336   0.109E-01    0.716E-02
DAV:   7    -0.136650894265E+04   -0.83243E-06   -0.14291E-03  2448   0.704E-02    0.553E-02
DAV:   8    -0.136650892660E+04    0.16052E-04   -0.47929E-04  2544   0.436E-02    0.305E-02
DAV:   9    -0.136650891989E+04    0.67066E-05   -0.12076E-04  2376   0.219E-02    0.193E-02
DAV:  10    -0.136650892141E+04   -0.15112E-05   -0.39309E-05  2416   0.119E-02    0.115E-02
DAV:  11    -0.136650892169E+04   -0.28599E-06   -0.10982E-05  1832   0.780E-03    0.755E-03
DAV:  12    -0.136650892145E+04    0.23776E-06   -0.97973E-06  1584   0.695E-03
  14 F= -.13665089E+04 E0= -.13665089E+04  d E =-.254250E+00
 BRION: g(F)=  0.128E+00 g(S)=  0.000E+00 retain N=  3 mean eig= 3.89
 eig:   5.128  5.128  1.400
 bond charge predicted
       N       E                     dE             d eps       ncg     rms          rms(c)
DAV:   1    -0.136665285809E+04   -0.14394E+00   -0.25566E+01  1376   0.718E+00    0.815E-01
DAV:   2    -0.136678445876E+04   -0.13160E+00   -0.13838E+00  2312   0.284E+00    0.411E-01
DAV:   3    -0.136679268690E+04   -0.82281E-02   -0.11137E-01  2600   0.539E-01    0.332E-01
DAV:   4    -0.136679135177E+04    0.13351E-02   -0.95286E-03  2616   0.238E-01    0.248E-01
DAV:   5    -0.136678950721E+04    0.18446E-02   -0.50871E-03  2312   0.146E-01    0.103E-01
DAV:   6    -0.136678957167E+04   -0.64458E-04   -0.42682E-03  2304   0.118E-01    0.760E-02
DAV:   7    -0.136678958364E+04   -0.11971E-04   -0.16967E-03  2432   0.760E-02    0.605E-02
DAV:   8    -0.136678956372E+04    0.19916E-04   -0.54594E-04  2576   0.463E-02    0.334E-02
DAV:   9    -0.136678955279E+04    0.10930E-04   -0.15445E-04  2296   0.244E-02    0.204E-02
DAV:  10    -0.136678955564E+04   -0.28449E-05   -0.54335E-05  2400   0.138E-02    0.131E-02
DAV:  11    -0.136678955524E+04    0.40140E-06   -0.16502E-05  2040   0.901E-03    0.765E-03
DAV:  12    -0.136678955521E+04    0.24476E-07   -0.10595E-05  1744   0.718E-03    0.641E-03
DAV:  13    -0.136678955486E+04    0.35328E-06   -0.44420E-06  1344   0.522E-03
  15 F= -.13667896E+04 E0= -.13667896E+04  d E =-.280633E+00
 BRION: g(F)=  0.123E+00 g(S)=  0.000E+00 retain N=  3 mean eig= 4.31
 eig:   5.662  5.662  1.605
 bond charge predicted
       N       E                     dE             d eps       ncg     rms          rms(c)
DAV:   1    -0.136693071556E+04   -0.14116E+00   -0.26672E+01  1376   0.732E+00    0.845E-01
DAV:   2    -0.136706827921E+04   -0.13756E+00   -0.14450E+00  2304   0.289E+00    0.423E-01
DAV:   3    -0.136707693302E+04   -0.86538E-02   -0.11681E-01  2584   0.557E-01    0.342E-01
DAV:   4    -0.136707549777E+04    0.14353E-02   -0.10341E-02  2600   0.245E-01    0.252E-01
DAV:   5    -0.136707365680E+04    0.18410E-02   -0.55027E-03  2312   0.152E-01    0.102E-01
DAV:   6    -0.136707377382E+04   -0.11702E-03   -0.43273E-03  2320   0.120E-01    0.802E-02
DAV:   7    -0.136707377122E+04    0.25940E-05   -0.17164E-03  2464   0.767E-02    0.614E-02
DAV:   8    -0.136707375062E+04    0.20601E-04   -0.59805E-04  2544   0.480E-02    0.344E-02
DAV:   9    -0.136707374139E+04    0.92341E-05   -0.15123E-04  2384   0.247E-02    0.219E-02
DAV:  10    -0.136707374288E+04   -0.14953E-05   -0.55996E-05  2440   0.140E-02    0.128E-02
DAV:  11    -0.136707374308E+04   -0.19901E-06   -0.14647E-05  2040   0.892E-03    0.774E-03
DAV:  12    -0.136707374311E+04   -0.25961E-07   -0.12437E-05  1720   0.705E-03    0.653E-03
DAV:  13    -0.136707374272E+04    0.38558E-06   -0.41669E-06  1296   0.552E-03
  16 F= -.13670737E+04 E0= -.13670737E+04  d E =-.284188E+00
 BRION: g(F)=  0.117E+00 g(S)=  0.000E+00 retain N=  3 mean eig= 4.88
 eig:   6.360  6.360  1.933
 bond charge predicted
       N       E                     dE             d eps       ncg     rms          rms(c)
DAV:   1    -0.136720736062E+04   -0.13362E+00   -0.31803E+01  1368   0.798E+00    0.907E-01
DAV:   2    -0.136737100220E+04   -0.16364E+00   -0.17209E+00  2304   0.314E+00    0.457E-01
DAV:   3    -0.136738137410E+04   -0.10372E-01   -0.13900E-01  2592   0.604E-01    0.371E-01
DAV:   4    -0.136737979123E+04    0.15829E-02   -0.11916E-02  2608   0.266E-01    0.277E-01
DAV:   5    -0.136737758726E+04    0.22040E-02   -0.64469E-03  2328   0.160E-01    0.115E-01
DAV:   6    -0.136737767883E+04   -0.91572E-04   -0.50410E-03  2304   0.127E-01    0.868E-02
DAV:   7    -0.136737767590E+04    0.29361E-05   -0.21695E-03  2456   0.857E-02    0.662E-02
DAV:   8    -0.136737765156E+04    0.24339E-04   -0.70387E-04  2536   0.536E-02    0.390E-02
DAV:   9    -0.136737764123E+04    0.10330E-04   -0.19049E-04  2408   0.270E-02    0.240E-02
DAV:  10    -0.136737764348E+04   -0.22489E-05   -0.56511E-05  2480   0.143E-02    0.143E-02
DAV:  11    -0.136737764419E+04   -0.71393E-06   -0.17945E-05  2136   0.942E-03    0.958E-03
DAV:  12    -0.136737764359E+04    0.59533E-06   -0.14602E-05  1824   0.784E-03    0.739E-03
DAV:  13    -0.136737764339E+04    0.20723E-06   -0.72372E-06  1664   0.598E-03
  17 F= -.13673776E+04 E0= -.13673776E+04  d E =-.303901E+00
 BRION: g(F)=  0.110E+00 g(S)=  0.000E+00 retain N=  3 mean eig= 5.53
 eig:   7.316  7.316  1.946
 bond charge predicted
       N       E                     dE             d eps       ncg     rms          rms(c)
DAV:   1    -0.136749588850E+04   -0.11824E+00   -0.35960E+01  1360   0.848E+00    0.974E-01
DAV:   2    -0.136767992926E+04   -0.18404E+00   -0.19321E+00  2312   0.332E+00    0.489E-01
DAV:   3    -0.136769118796E+04   -0.11259E-01   -0.15357E-01  2600   0.635E-01    0.392E-01
DAV:   4    -0.136768918467E+04    0.20033E-02   -0.13564E-02  2616   0.281E-01    0.286E-01
DAV:   5    -0.136768678524E+04    0.23994E-02   -0.70972E-03  2320   0.170E-01    0.116E-01
DAV:   6    -0.136768691856E+04   -0.13331E-03   -0.54060E-03  2352   0.131E-01    0.890E-02
DAV:   7    -0.136768691557E+04    0.29872E-05   -0.21199E-03  2424   0.851E-02    0.672E-02
DAV:   8    -0.136768689421E+04    0.21362E-04   -0.74724E-04  2544   0.533E-02    0.397E-02
DAV:   9    -0.136768688144E+04    0.12772E-04   -0.19241E-04  2408   0.278E-02    0.251E-02
DAV:  10    -0.136768688311E+04   -0.16718E-05   -0.74737E-05  2456   0.162E-02    0.143E-02
DAV:  11    -0.136768688344E+04   -0.32887E-06   -0.20600E-05  2208   0.102E-02    0.816E-03
DAV:  12    -0.136768688342E+04    0.18248E-07   -0.13061E-05  1832   0.754E-03    0.683E-03
DAV:  13    -0.136768688310E+04    0.31960E-06   -0.62627E-06  1536   0.568E-03
  18 F= -.13676869E+04 E0= -.13676869E+04  d E =-.309240E+00
 BRION: g(F)=  0.101E+00 g(S)=  0.000E+00 retain N=  3 mean eig= 5.64
 eig:   7.562  7.562  1.801
 bond charge predicted
       N       E                     dE             d eps       ncg     rms          rms(c)
DAV:   1    -0.136779084920E+04   -0.10397E+00   -0.36543E+01  1360   0.853E+00    0.976E-01
DAV:   2    -0.136797722645E+04   -0.18638E+00   -0.19598E+00  2304   0.333E+00    0.494E-01
DAV:   3    -0.136798866656E+04   -0.11440E-01   -0.15658E-01  2584   0.643E-01    0.398E-01
DAV:   4    -0.136798670299E+04    0.19636E-02   -0.13997E-02  2600   0.283E-01    0.293E-01
DAV:   5    -0.136798424001E+04    0.24630E-02   -0.73843E-03  2272   0.172E-01    0.121E-01
DAV:   6    -0.136798436446E+04   -0.12446E-03   -0.56032E-03  2352   0.133E-01    0.931E-02
DAV:   7    -0.136798435128E+04    0.13180E-04   -0.23091E-03  2472   0.885E-02    0.689E-02
DAV:   8    -0.136798432748E+04    0.23807E-04   -0.80795E-04  2552   0.565E-02    0.415E-02
DAV:   9    -0.136798431671E+04    0.10762E-04   -0.20524E-04  2448   0.286E-02    0.264E-02
DAV:  10    -0.136798431769E+04   -0.97638E-06   -0.69345E-05  2488   0.156E-02    0.148E-02
DAV:  11    -0.136798431873E+04   -0.10429E-05   -0.20252E-05  2160   0.102E-02    0.923E-03
DAV:  12    -0.136798431829E+04    0.44049E-06   -0.14897E-05  1864   0.796E-03    0.718E-03
DAV:  13    -0.136798431812E+04    0.17633E-06   -0.71004E-06  1616   0.571E-03
  19 F= -.13679843E+04 E0= -.13679843E+04  d E =-.297435E+00
 BRION: g(F)=  0.904E-01 g(S)=  0.000E+00 retain N=  2 mean eig= 3.93
 eig:   3.929  3.929
 bond charge predicted
       N       E                     dE             d eps       ncg     rms          rms(c)
DAV:   1    -0.136808983738E+04   -0.10552E+00   -0.21116E+01  1360   0.648E+00    0.740E-01
DAV:   2    -0.136819492894E+04   -0.10509E+00   -0.11049E+00  2304   0.249E+00    0.371E-01
DAV:   3    -0.136820121707E+04   -0.62881E-02   -0.87310E-02  2608   0.487E-01    0.296E-01
DAV:   4    -0.136819995640E+04    0.12607E-02   -0.76057E-03  2608   0.210E-01    0.212E-01
DAV:   5    -0.136819859084E+04    0.13656E-02   -0.44580E-03  2272   0.131E-01    0.798E-02
DAV:   6    -0.136819872017E+04   -0.12934E-03   -0.28781E-03  2400   0.947E-02    0.712E-02
DAV:   7    -0.136819870097E+04    0.19201E-04   -0.10250E-03  2464   0.600E-02    0.481E-02
DAV:   8    -0.136819868772E+04    0.13255E-04   -0.37383E-04  2528   0.374E-02    0.261E-02
DAV:   9    -0.136819868448E+04    0.32416E-05   -0.78091E-05  2304   0.187E-02    0.181E-02
DAV:  10    -0.136819868478E+04   -0.30699E-06   -0.31964E-05  2336   0.109E-02    0.903E-03
DAV:  11    -0.136819868476E+04    0.19456E-07   -0.81357E-06  1648   0.742E-03
  20 F= -.13681987E+04 E0= -.13681987E+04  d E =-.214367E+00
 BRION: g(F)=  0.829E-01 g(S)=  0.000E+00 retain N=  3 mean eig= 5.16
 eig:   6.887  6.887  1.707
