 running on  160 total cores
 distrk:  each k-point on  160 cores,    1 groups
 distr:  one band on   20 cores,    8 groups
 using from now: INCAR     
 vasp.5.4.4.18Apr17-6-g9f103f2a35 (build May 01 2020 14:22:42) gamma-only       
  
 POSCAR found type information on POSCAR  O  La Zr Li Al
 POSCAR found :  5 types and     190 ions
 scaLAPACK will be used
 LDA part: xc-table for Pade appr. of Perdew
 POSCAR, INCAR and KPOINTS ok, starting setup
 FFT: planning ...
 WAVECAR not read
 WARNING: random wavefunctions but no delay for mixing, default for NELMDL
 entering main loop
       N       E                     dE             d eps       ncg     rms          rms(c)
DAV:   1     0.253901735450E+05    0.25390E+05   -0.42133E+05  1576   0.253E+03
DAV:   2     0.938017459243E+04   -0.16010E+05   -0.14781E+05  1408   0.705E+02
DAV:   3     0.261605632398E+04   -0.67641E+04   -0.61640E+04  1520   0.357E+02
DAV:   4    -0.402858327548E+03   -0.30189E+04   -0.28287E+04  2032   0.226E+02
DAV:   5    -0.141142347619E+04   -0.10086E+04   -0.97090E+03  2528   0.139E+02    0.117E+02
DAV:   6    -0.129850550757E+04    0.11292E+03   -0.14724E+03  2440   0.656E+01    0.501E+01
DAV:   7    -0.132051474974E+04   -0.22009E+02   -0.37662E+02  2576   0.340E+01    0.251E+01
DAV:   8    -0.132845581990E+04   -0.79411E+01   -0.23840E+02  2536   0.257E+01    0.243E+01
DAV:   9    -0.132377619790E+04    0.46796E+01   -0.39154E+01  2528   0.140E+01    0.103E+01
DAV:  10    -0.132368938761E+04    0.86810E-01   -0.20587E+01  2488   0.795E+00    0.776E+00
DAV:  11    -0.132404029150E+04   -0.35090E+00   -0.55401E+00  2600   0.420E+00    0.670E+00
DAV:  12    -0.132403538797E+04    0.49035E-02   -0.18254E+00  2616   0.265E+00    0.547E+00
DAV:  13    -0.132396327962E+04    0.72108E-01   -0.21139E+00  2464   0.255E+00    0.367E+00
DAV:  14    -0.132399686326E+04   -0.33584E-01   -0.41137E-01  2512   0.142E+00    0.227E+00
DAV:  15    -0.132398410917E+04    0.12754E-01   -0.17835E-01  2472   0.808E-01    0.184E+00
DAV:  16    -0.132394611289E+04    0.37996E-01   -0.85920E-02  2472   0.515E-01    0.137E+00
DAV:  17    -0.132393274576E+04    0.13367E-01   -0.33062E-02  2504   0.342E-01    0.116E+00
DAV:  18    -0.132391705270E+04    0.15693E-01   -0.13939E-02  2360   0.239E-01    0.957E-01
DAV:  19    -0.132390544454E+04    0.11608E-01   -0.10995E-02  2504   0.177E-01    0.652E-01
DAV:  20    -0.132390229510E+04    0.31494E-02   -0.40429E-03  2552   0.110E-01    0.548E-01
DAV:  21    -0.132389789752E+04    0.43976E-02   -0.25762E-03  2208   0.983E-02    0.330E-01
DAV:  22    -0.132389610565E+04    0.17919E-02   -0.39340E-03  2048   0.108E-01    0.678E-02
DAV:  23    -0.132389641655E+04   -0.31090E-03   -0.17807E-03  2480   0.646E-02    0.119E-01
DAV:  24    -0.132389627103E+04    0.14551E-03   -0.30566E-04  2472   0.390E-02    0.538E-02
DAV:  25    -0.132389625425E+04    0.16783E-04   -0.29155E-04  2304   0.245E-02    0.178E-02
DAV:  26    -0.132389626693E+04   -0.12675E-04   -0.59318E-05  2336   0.139E-02    0.288E-02
DAV:  27    -0.132389625476E+04    0.12163E-04   -0.19062E-05  1864   0.105E-02    0.733E-03
DAV:  28    -0.132389625589E+04   -0.11292E-05   -0.12170E-05  1584   0.682E-03    0.471E-03
DAV:  29    -0.132389625513E+04    0.76118E-06   -0.45693E-06  1208   0.498E-03
   1 F= -.13238963E+04 E0= -.13238597E+04  d E =-.132390E+04
 BRION: g(F)=  0.658E+02 g(S)=  0.000E+00
 bond charge predicted
       N       E                     dE             d eps       ncg     rms          rms(c)
DAV:   1    -0.129433731161E+04    0.29559E+02   -0.73412E+03  1752   0.130E+02    0.274E+01
DAV:   2    -0.135301459492E+04   -0.58677E+02   -0.67695E+02  2592   0.593E+01    0.144E+01
DAV:   3    -0.135137748300E+04    0.16371E+01   -0.39423E+01  2616   0.156E+01    0.987E+00
DAV:   4    -0.134916181162E+04    0.22157E+01   -0.12668E+01  2472   0.745E+00    0.480E+00
DAV:   5    -0.134881931069E+04    0.34250E+00   -0.39767E+00  2608   0.462E+00    0.315E+00
DAV:   6    -0.134873452694E+04    0.84784E-01   -0.35614E+00  2512   0.361E+00    0.202E+00
DAV:   7    -0.134871246199E+04    0.22065E-01   -0.83024E-01  2528   0.203E+00    0.153E+00
DAV:   8    -0.134870389062E+04    0.85714E-02   -0.37809E-01  2624   0.104E+00    0.674E-01
DAV:   9    -0.134870284785E+04    0.10428E-02   -0.52315E-02  2624   0.526E-01    0.345E-01
DAV:  10    -0.134870220768E+04    0.64016E-03   -0.16510E-02  2608   0.306E-01    0.194E-01
DAV:  11    -0.134870280029E+04   -0.59261E-03   -0.96439E-03  2624   0.201E-01    0.139E-01
DAV:  12    -0.134870281613E+04   -0.15837E-04   -0.22217E-03  2616   0.970E-02    0.509E-02
DAV:  13    -0.134870287563E+04   -0.59503E-04   -0.92053E-04  2624   0.558E-02    0.322E-02
DAV:  14    -0.134870287761E+04   -0.19821E-05   -0.17407E-04  2624   0.317E-02    0.163E-02
DAV:  15    -0.134870288308E+04   -0.54626E-05   -0.88334E-05  2608   0.175E-02    0.106E-02
DAV:  16    -0.134870288496E+04   -0.18891E-05   -0.22472E-05  2376   0.105E-02    0.813E-03
DAV:  17    -0.134870288425E+04    0.71179E-06   -0.57444E-06  1424   0.633E-03
   2 F= -.13487029E+04 E0= -.13487029E+04  d E =-.248066E+02
 BRION: g(F)=  0.278E+02 g(S)=  0.000E+00 retain N=  1 mean eig= 0.65
 eig:   0.646
 bond charge predicted
       N       E                     dE             d eps       ncg     rms          rms(c)
DAV:   1    -0.134004142010E+04    0.86615E+01   -0.25217E+03  1496   0.724E+01    0.140E+01
DAV:   2    -0.135597416282E+04   -0.15933E+02   -0.19448E+02  2448   0.308E+01    0.119E+01
DAV:   3    -0.135647196267E+04   -0.49780E+00   -0.15887E+01  2592   0.904E+00    0.961E+00
DAV:   4    -0.135578749664E+04    0.68447E+00   -0.38170E+00  2536   0.398E+00    0.578E+00
DAV:   5    -0.135559541708E+04    0.19208E+00   -0.27885E+00  2208   0.342E+00    0.382E+00
DAV:   6    -0.135543692432E+04    0.15849E+00   -0.18789E+00  2496   0.252E+00    0.221E+00
DAV:   7    -0.135541796044E+04    0.18964E-01   -0.76669E-01  2464   0.151E+00    0.930E-01
DAV:   8    -0.135541681024E+04    0.11502E-02   -0.80944E-02  2584   0.649E-01    0.630E-01
DAV:   9    -0.135541712465E+04   -0.31440E-03   -0.35251E-02  2520   0.349E-01    0.496E-01
DAV:  10    -0.135541361527E+04    0.35094E-02   -0.14531E-02  2552   0.263E-01    0.219E-01
DAV:  11    -0.135541408105E+04   -0.46578E-03   -0.13970E-02  2448   0.189E-01    0.102E-01
DAV:  12    -0.135541399313E+04    0.87927E-04   -0.16444E-03  2608   0.930E-02    0.435E-02
DAV:  13    -0.135541404574E+04   -0.52612E-04   -0.65928E-04  2608   0.443E-02    0.279E-02
DAV:  14    -0.135541404377E+04    0.19711E-05   -0.11348E-04  2440   0.269E-02    0.166E-02
DAV:  15    -0.135541404863E+04   -0.48587E-05   -0.10098E-04  2424   0.162E-02    0.102E-02
DAV:  16    -0.135541404848E+04    0.14843E-06   -0.14263E-05  2040   0.921E-03    0.651E-03
DAV:  17    -0.135541404866E+04   -0.18427E-06   -0.74354E-06  1600   0.556E-03
   3 F= -.13554140E+04 E0= -.13554140E+04  d E =-.671116E+01
 BRION: g(F)=  0.529E+01 g(S)=  0.000E+00 retain N=  2 mean eig= 1.16
 eig:   0.492  1.837
 bond charge predicted
       N       E                     dE             d eps       ncg     rms          rms(c)
DAV:   1    -0.135658001315E+04   -0.11660E+01   -0.34946E+02  1368   0.271E+01    0.528E+00
DAV:   2    -0.135829598487E+04   -0.17160E+01   -0.19794E+01  2296   0.103E+01    0.232E+00
DAV:   3    -0.135835528263E+04   -0.59298E-01   -0.17770E+00  2600   0.252E+00    0.198E+00
DAV:   4    -0.135829975646E+04    0.55526E-01   -0.34662E-01  2592   0.130E+00    0.106E+00
DAV:   5    -0.135828345279E+04    0.16304E-01   -0.16257E-01  2240   0.812E-01    0.614E-01
DAV:   6    -0.135828310280E+04    0.34999E-03   -0.88038E-02  2552   0.581E-01    0.455E-01
DAV:   7    -0.135828268781E+04    0.41499E-03   -0.44999E-02  2408   0.371E-01    0.286E-01
DAV:   8    -0.135828244166E+04    0.24614E-03   -0.98317E-03  2592   0.191E-01    0.157E-01
DAV:   9    -0.135828230780E+04    0.13386E-03   -0.26628E-03  2600   0.110E-01    0.973E-02
DAV:  10    -0.135828248146E+04   -0.17366E-03   -0.23288E-03  2240   0.805E-02    0.103E-01
DAV:  11    -0.135828233548E+04    0.14598E-03   -0.91459E-04  2504   0.600E-02    0.410E-02
DAV:  12    -0.135828235794E+04   -0.22457E-04   -0.61368E-04  2512   0.420E-02    0.343E-02
DAV:  13    -0.135828234582E+04    0.12118E-04   -0.11882E-04  2528   0.232E-02    0.152E-02
DAV:  14    -0.135828234815E+04   -0.23245E-05   -0.30256E-05  2416   0.107E-02    0.778E-03
DAV:  15    -0.135828234814E+04    0.54570E-08   -0.70177E-06  1536   0.616E-03
   4 F= -.13582823E+04 E0= -.13582823E+04  d E =-.286830E+01
 BRION: g(F)=  0.164E+01 g(S)=  0.000E+00 retain N=  3 mean eig= 1.23
 eig:   0.618  1.540  1.540
 bond charge predicted
       N       E                     dE             d eps       ncg     rms          rms(c)
DAV:   1    -0.135899138418E+04   -0.70904E+00   -0.14536E+02  1368   0.172E+01    0.262E+00
DAV:   2    -0.135968354164E+04   -0.69216E+00   -0.74366E+00  2296   0.626E+00    0.132E+00
DAV:   3    -0.135970853354E+04   -0.24992E-01   -0.56226E-01  2592   0.133E+00    0.106E+00
DAV:   4    -0.135969026908E+04    0.18264E-01   -0.10227E-01  2552   0.687E-01    0.566E-01
DAV:   5    -0.135968634066E+04    0.39284E-02   -0.42514E-02  2408   0.423E-01    0.304E-01
DAV:   6    -0.135968658789E+04   -0.24724E-03   -0.21667E-02  2592   0.284E-01    0.200E-01
DAV:   7    -0.135968644339E+04    0.14450E-03   -0.74690E-03  2376   0.164E-01    0.138E-01
DAV:   8    -0.135968642064E+04    0.22758E-04   -0.25791E-03  2496   0.915E-02    0.762E-02
DAV:   9    -0.135968637008E+04    0.50559E-04   -0.68275E-04  2600   0.539E-02    0.468E-02
DAV:  10    -0.135968640840E+04   -0.38323E-04   -0.58928E-04  2440   0.412E-02    0.505E-02
DAV:  11    -0.135968637395E+04    0.34448E-04   -0.27193E-04  2520   0.325E-02    0.167E-02
DAV:  12    -0.135968637788E+04   -0.39275E-05   -0.88757E-05  2368   0.190E-02    0.125E-02
DAV:  13    -0.135968637799E+04   -0.11011E-06   -0.25076E-05  2208   0.962E-03    0.678E-03
DAV:  14    -0.135968637790E+04    0.92405E-07   -0.76187E-06  1648   0.582E-03
   5 F= -.13596864E+04 E0= -.13596864E+04  d E =-.140403E+01
 BRION: g(F)=  0.112E+01 g(S)=  0.000E+00 retain N=  4 mean eig= 1.87
 eig:   3.038  3.038  0.702  0.702
 bond charge predicted
       N       E                     dE             d eps       ncg     rms          rms(c)
DAV:   1    -0.136023504762E+04   -0.54867E+00   -0.13870E+02  1368   0.167E+01    0.213E+00
DAV:   2    -0.136090689351E+04   -0.67185E+00   -0.71017E+00  2288   0.613E+00    0.111E+00
DAV:   3    -0.136093923823E+04   -0.32345E-01   -0.53940E-01  2608   0.127E+00    0.886E-01
DAV:   4    -0.136092653367E+04    0.12705E-01   -0.70302E-02  2584   0.602E-01    0.527E-01
DAV:   5    -0.136092199414E+04    0.45395E-02   -0.31894E-02  2416   0.357E-01    0.228E-01
DAV:   6    -0.136092274033E+04   -0.74619E-03   -0.14172E-02  2576   0.228E-01    0.166E-01
DAV:   7    -0.136092262774E+04    0.11259E-03   -0.50600E-03  2440   0.140E-01    0.108E-01
DAV:   8    -0.136092266727E+04   -0.39531E-04   -0.21305E-03  2520   0.834E-02    0.659E-02
DAV:   9    -0.136092263331E+04    0.33959E-04   -0.39962E-04  2560   0.446E-02    0.458E-02
DAV:  10    -0.136092264662E+04   -0.13309E-04   -0.43999E-04  2424   0.352E-02    0.335E-02
DAV:  11    -0.136092263562E+04    0.11001E-04   -0.14222E-04  2528   0.261E-02    0.121E-02
DAV:  12    -0.136092263970E+04   -0.40751E-05   -0.55416E-05  2408   0.143E-02    0.124E-02
DAV:  13    -0.136092263789E+04    0.18014E-05   -0.16112E-05  1912   0.845E-03    0.504E-03
DAV:  14    -0.136092263792E+04   -0.24593E-07   -0.44968E-06  1264   0.578E-03
   6 F= -.13609226E+04 E0= -.13609226E+04  d E =-.123626E+01
 BRION: g(F)=  0.635E+00 g(S)=  0.000E+00 retain N=  5 mean eig= 2.22
 eig:   4.256  4.256  0.933  0.933  0.729
 bond charge predicted
       N       E                     dE             d eps       ncg     rms          rms(c)
DAV:   1    -0.136134848945E+04   -0.42585E+00   -0.75276E+01  1384   0.124E+01    0.154E+00
DAV:   2    -0.136172885234E+04   -0.38036E+00   -0.40357E+00  2288   0.480E+00    0.794E-01
DAV:   3    -0.136175006849E+04   -0.21216E-01   -0.31732E-01  2616   0.957E-01    0.651E-01
DAV:   4    -0.136174468060E+04    0.53879E-02   -0.35606E-02  2616   0.444E-01    0.428E-01
DAV:   5    -0.136174114716E+04    0.35334E-02   -0.17510E-02  2400   0.265E-01    0.184E-01
DAV:   6    -0.136174152352E+04   -0.37636E-03   -0.97218E-03  2464   0.194E-01    0.152E-01
DAV:   7    -0.136174141375E+04    0.10976E-03   -0.47106E-03  2448   0.132E-01    0.106E-01
DAV:   8    -0.136174141472E+04   -0.96379E-06   -0.23361E-03  2568   0.872E-02    0.646E-02
DAV:   9    -0.136174138285E+04    0.31865E-04   -0.40430E-04  2536   0.432E-02    0.453E-02
DAV:  10    -0.136174137973E+04    0.31204E-05   -0.24789E-04  2592   0.271E-02    0.250E-02
DAV:  11    -0.136174138176E+04   -0.20276E-05   -0.91028E-05  2464   0.201E-02    0.159E-02
DAV:  12    -0.136174137922E+04    0.25333E-05   -0.33587E-05  2312   0.141E-02    0.121E-02
DAV:  13    -0.136174137899E+04    0.23488E-06   -0.32151E-05  2112   0.961E-03    0.614E-03
DAV:  14    -0.136174137868E+04    0.31234E-06   -0.34173E-06  1168   0.537E-03
   7 F= -.13617414E+04 E0= -.13617414E+04  d E =-.818741E+00
 BRION: g(F)=  0.444E+00 g(S)=  0.000E+00 retain N=  6 mean eig= 2.94
 eig:   6.357  6.357  1.666  1.666  0.793  0.793
 bond charge predicted
       N       E                     dE             d eps       ncg     rms          rms(c)
DAV:   1    -0.136210942092E+04   -0.36804E+00   -0.94181E+01  1368   0.139E+01    0.170E+00
DAV:   2    -0.136258222083E+04   -0.47280E+00   -0.49969E+00  2304   0.534E+00    0.855E-01
DAV:   3    -0.136260808109E+04   -0.25860E-01   -0.38377E-01  2616   0.105E+00    0.681E-01
DAV:   4    -0.136260089780E+04    0.71833E-02   -0.42847E-02  2608   0.485E-01    0.434E-01
DAV:   5    -0.136259677058E+04    0.41272E-02   -0.19595E-02  2360   0.296E-01    0.175E-01
DAV:   6    -0.136259745164E+04   -0.68106E-03   -0.11360E-02  2480   0.206E-01    0.146E-01
DAV:   7    -0.136259737324E+04    0.78402E-04   -0.40230E-03  2456   0.123E-01    0.104E-01
DAV:   8    -0.136259735812E+04    0.15119E-04   -0.19813E-03  2536   0.799E-02    0.545E-02
DAV:   9    -0.136259733751E+04    0.20612E-04   -0.34973E-04  2496   0.412E-02    0.399E-02
DAV:  10    -0.136259733597E+04    0.15383E-05   -0.22241E-04  2544   0.277E-02    0.231E-02
DAV:  11    -0.136259733531E+04    0.65802E-06   -0.74856E-05  2464   0.187E-02    0.109E-02
DAV:  12    -0.136259733694E+04   -0.16268E-05   -0.29473E-05  2328   0.116E-02    0.111E-02
DAV:  13    -0.136259733584E+04    0.11024E-05   -0.15759E-05  1808   0.765E-03    0.565E-03
DAV:  14    -0.136259733584E+04   -0.14261E-08   -0.61292E-06  1472   0.574E-03
   8 F= -.13625973E+04 E0= -.13625973E+04  d E =-.855957E+00
 BRION: g(F)=  0.338E+00 g(S)=  0.000E+00 retain N=  7 mean eig= 3.47
 eig:   7.385  7.385  3.293  3.293  1.038  1.038  0.872
 bond charge predicted
       N       E                     dE             d eps       ncg     rms          rms(c)
DAV:   1    -0.136296068078E+04   -0.36334E+00   -0.66431E+01  1392   0.117E+01    0.142E+00
DAV:   2    -0.136330979714E+04   -0.34912E+00   -0.37348E+00  2288   0.468E+00    0.719E-01
DAV:   3    -0.136333099622E+04   -0.21199E-01   -0.30249E-01  2576   0.918E-01    0.586E-01
DAV:   4    -0.136332673967E+04    0.42565E-02   -0.32285E-02  2584   0.430E-01    0.395E-01
DAV:   5    -0.136332381761E+04    0.29221E-02   -0.15341E-02  2376   0.242E-01    0.167E-01
DAV:   6    -0.136332412605E+04   -0.30844E-03   -0.76501E-03  2472   0.167E-01    0.125E-01
DAV:   7    -0.136332409754E+04    0.28508E-04   -0.39318E-03  2496   0.119E-01    0.879E-02
DAV:   8    -0.136332411039E+04   -0.12847E-04   -0.17010E-03  2576   0.777E-02    0.614E-02
DAV:   9    -0.136332408160E+04    0.28789E-04   -0.33857E-04  2536   0.386E-02    0.418E-02
DAV:  10    -0.136332408041E+04    0.11861E-05   -0.16994E-04  2584   0.232E-02    0.225E-02
DAV:  11    -0.136332408166E+04   -0.12496E-05   -0.55551E-05  2432   0.153E-02    0.139E-02
DAV:  12    -0.136332407987E+04    0.17989E-05   -0.26487E-05  2264   0.117E-02    0.888E-03
DAV:  13    -0.136332408022E+04   -0.35125E-06   -0.19162E-05  2104   0.787E-03    0.509E-03
DAV:  14    -0.136332408002E+04    0.19230E-06   -0.13360E-06   968   0.431E-03
   9 F= -.13633241E+04 E0= -.13633241E+04  d E =-.726744E+00
 BRION: g(F)=  0.284E+00 g(S)=  0.000E+00 retain N=  6 mean eig= 3.56
 eig:   7.217  7.217  2.398  2.398  1.063  1.063
 bond charge predicted
       N       E                     dE             d eps       ncg     rms          rms(c)
DAV:   1    -0.136366375443E+04   -0.33967E+00   -0.48045E+01  1384   0.991E+00    0.120E+00
DAV:   2    -0.136391774849E+04   -0.25399E+00   -0.27108E+00  2288   0.397E+00    0.611E-01
DAV:   3    -0.136393235947E+04   -0.14611E-01   -0.21707E-01  2584   0.788E-01    0.484E-01
DAV:   4    -0.136392864741E+04    0.37121E-02   -0.23852E-02  2560   0.366E-01    0.315E-01
DAV:   5    -0.136392656666E+04    0.20807E-02   -0.10208E-02  2400   0.201E-01    0.131E-01
DAV:   6    -0.136392673306E+04   -0.16640E-03   -0.50586E-03  2448   0.134E-01    0.844E-02
DAV:   7    -0.136392677235E+04   -0.39292E-04   -0.21493E-03  2504   0.894E-02    0.642E-02
DAV:   8    -0.136392677959E+04   -0.72364E-05   -0.85125E-04  2584   0.550E-02    0.416E-02
DAV:   9    -0.136392676982E+04    0.97692E-05   -0.19898E-04  2520   0.297E-02    0.294E-02
DAV:  10    -0.136392677026E+04   -0.43967E-06   -0.11099E-04  2584   0.194E-02    0.180E-02
DAV:  11    -0.136392676921E+04    0.10477E-05   -0.44896E-05  2368   0.135E-02    0.811E-03
DAV:  12    -0.136392676935E+04   -0.13901E-06   -0.13556E-05  1920   0.889E-03    0.630E-03
DAV:  13    -0.136392676932E+04    0.30763E-07   -0.75945E-06  1504   0.542E-03
  10 F= -.13639268E+04 E0= -.13639268E+04  d E =-.602689E+00
 BRION: g(F)=  0.249E+00 g(S)=  0.000E+00 retain N=  5 mean eig= 4.12
 eig:   7.603  7.603  1.280  2.047  2.047
 bond charge predicted
       N       E                     dE             d eps       ncg     rms          rms(c)
DAV:   1    -0.136422557653E+04   -0.29881E+00   -0.39082E+01  1384   0.899E+00    0.109E+00
DAV:   2    -0.136443111537E+04   -0.20554E+00   -0.21909E+00  2296   0.355E+00    0.551E-01
DAV:   3    -0.136444304295E+04   -0.11928E-01   -0.17553E-01  2584   0.711E-01    0.434E-01
DAV:   4    -0.136444004838E+04    0.29946E-02   -0.18771E-02  2568   0.326E-01    0.287E-01
DAV:   5    -0.136443817180E+04    0.18766E-02   -0.85198E-03  2384   0.184E-01    0.117E-01
DAV:   6    -0.136443832765E+04   -0.15584E-03   -0.43948E-03  2440   0.125E-01    0.807E-02
DAV:   7    -0.136443835000E+04   -0.22347E-04   -0.17918E-03  2456   0.803E-02    0.591E-02
DAV:   8    -0.136443835404E+04   -0.40477E-05   -0.73907E-04  2592   0.513E-02    0.379E-02
DAV:   9    -0.136443834632E+04    0.77228E-05   -0.15935E-04  2528   0.271E-02    0.267E-02
DAV:  10    -0.136443834576E+04    0.56381E-06   -0.86040E-05  2560   0.171E-02    0.147E-02
DAV:  11    -0.136443834594E+04   -0.18746E-06   -0.29904E-05  2368   0.116E-02    0.739E-03
DAV:  12    -0.136443834602E+04   -0.74942E-07   -0.10239E-05  1840   0.779E-03    0.615E-03
DAV:  13    -0.136443834578E+04    0.23867E-06   -0.54545E-06  1344   0.528E-03
  11 F= -.13644383E+04 E0= -.13644383E+04  d E =-.511576E+00
 BRION: g(F)=  0.218E+00 g(S)=  0.000E+00 retain N=  3 mean eig= 4.47
 eig:   5.834  5.834  1.729
 bond charge predicted
       N       E                     dE             d eps       ncg     rms          rms(c)
DAV:   1    -0.136472398721E+04   -0.28564E+00   -0.49746E+01  1384   0.101E+01    0.122E+00
DAV:   2    -0.136498833203E+04   -0.26434E+00   -0.28320E+00  2304   0.403E+00    0.622E-01
DAV:   3    -0.136500381039E+04   -0.15478E-01   -0.23041E-01  2568   0.811E-01    0.493E-01
DAV:   4    -0.136500005735E+04    0.37530E-02   -0.24853E-02  2560   0.375E-01    0.330E-01
DAV:   5    -0.136499758811E+04    0.24692E-02   -0.11097E-02  2392   0.207E-01    0.141E-01
DAV:   6    -0.136499767770E+04   -0.89586E-04   -0.58508E-03  2416   0.146E-01    0.944E-02
DAV:   7    -0.136499772694E+04   -0.49247E-04   -0.29001E-03  2464   0.101E-01    0.722E-02
DAV:   8    -0.136499773121E+04   -0.42633E-05   -0.10644E-03  2616   0.628E-02    0.488E-02
DAV:   9    -0.136499771698E+04    0.14226E-04   -0.26298E-04  2528   0.332E-02    0.332E-02
DAV:  10    -0.136499771726E+04   -0.27880E-06   -0.13438E-04  2576   0.210E-02    0.204E-02
DAV:  11    -0.136499771645E+04    0.81318E-06   -0.51208E-05  2432   0.147E-02    0.987E-03
DAV:  12    -0.136499771650E+04   -0.51834E-07   -0.19330E-05  2104   0.991E-03    0.796E-03
DAV:  13    -0.136499771631E+04    0.18526E-06   -0.10589E-05  1712   0.630E-03    0.438E-03
DAV:  14    -0.136499771613E+04    0.18152E-06   -0.24926E-06  1056   0.514E-03
  12 F= -.13649977E+04 E0= -.13649977E+04  d E =-.559370E+00
 BRION: g(F)=  0.183E+00 g(S)=  0.000E+00 retain N=  3 mean eig= 5.26
 eig:   7.013  7.013  1.750
 bond charge predicted
       N       E                     dE             d eps       ncg     rms          rms(c)
DAV:   1    -0.136521486921E+04   -0.21715E+00   -0.37953E+01  1376   0.887E+00    0.107E+00
DAV:   2    -0.136541338361E+04   -0.19851E+00   -0.21233E+00  2288   0.352E+00    0.537E-01
DAV:   3    -0.136542488105E+04   -0.11497E-01   -0.17175E-01  2568   0.714E-01    0.429E-01
DAV:   4    -0.136542200725E+04    0.28738E-02   -0.18368E-02  2576   0.319E-01    0.293E-01
DAV:   5    -0.136541976906E+04    0.22382E-02   -0.98263E-03  2320   0.192E-01    0.118E-01
DAV:   6    -0.136541994562E+04   -0.17656E-03   -0.52494E-03  2456   0.139E-01    0.995E-02
DAV:   7    -0.136541993392E+04    0.11703E-04   -0.23738E-03  2432   0.898E-02    0.674E-02
DAV:   8    -0.136541992706E+04    0.68592E-05   -0.91265E-04  2600   0.579E-02    0.394E-02
DAV:   9    -0.136541992143E+04    0.56324E-05   -0.16428E-04  2520   0.284E-02    0.288E-02
DAV:  10    -0.136541992117E+04    0.26305E-06   -0.10264E-04  2480   0.180E-02    0.157E-02
DAV:  11    -0.136541992120E+04   -0.35929E-07   -0.35516E-05  2392   0.135E-02    0.745E-03
DAV:  12    -0.136541992186E+04   -0.66108E-06   -0.15174E-05  2048   0.871E-03    0.762E-03
DAV:  13    -0.136541992122E+04    0.64644E-06   -0.48707E-06  1312   0.547E-03
  13 F= -.13654199E+04 E0= -.13654199E+04  d E =-.422205E+00
 BRION: g(F)=  0.158E+00 g(S)=  0.000E+00 retain N=  3 mean eig= 4.50
 eig:   5.837  5.837  1.817
 bond charge predicted
       N       E                     dE             d eps       ncg     rms          rms(c)
DAV:   1    -0.136560625991E+04   -0.18634E+00   -0.29279E+01  1376   0.773E+00    0.927E-01
DAV:   2    -0.136575726976E+04   -0.15101E+00   -0.16098E+00  2304   0.303E+00    0.466E-01
DAV:   3    -0.136576579059E+04   -0.85208E-02   -0.12809E-01  2584   0.606E-01    0.375E-01
DAV:   4    -0.136576355302E+04    0.22376E-02   -0.12998E-02  2592   0.269E-01    0.255E-01
DAV:   5    -0.136576175119E+04    0.18018E-02   -0.71107E-03  2336   0.166E-01    0.103E-01
DAV:   6    -0.136576189712E+04   -0.14593E-03   -0.40850E-03  2480   0.120E-01    0.882E-02
DAV:   7    -0.136576187216E+04    0.24965E-04   -0.17307E-03  2440   0.783E-02    0.602E-02
DAV:   8    -0.136576186605E+04    0.61070E-05   -0.71363E-04  2584   0.503E-02    0.345E-02
DAV:   9    -0.136576186015E+04    0.58991E-05   -0.12830E-04  2512   0.246E-02    0.248E-02
DAV:  10    -0.136576185997E+04    0.17801E-06   -0.74441E-05  2496   0.155E-02    0.135E-02
DAV:  11    -0.136576186010E+04   -0.12897E-06   -0.26829E-05  2344   0.114E-02    0.706E-03
DAV:  12    -0.136576186022E+04   -0.11499E-06   -0.94038E-06  1752   0.751E-03
  14 F= -.13657619E+04 E0= -.13657619E+04  d E =-.341939E+00
 BRION: g(F)=  0.140E+00 g(S)=  0.000E+00 retain N=  3 mean eig= 4.88
 eig:   6.376  6.376  1.892
 bond charge predicted
       N       E                     dE             d eps       ncg     rms          rms(c)
DAV:   1    -0.136592199124E+04   -0.16013E+00   -0.17789E+01  1368   0.598E+00    0.729E-01
DAV:   2    -0.136601218965E+04   -0.90198E-01   -0.95540E-01  2304   0.237E+00    0.362E-01
DAV:   3    -0.136601666708E+04   -0.44774E-02   -0.71192E-02  2576   0.458E-01    0.288E-01
DAV:   4    -0.136601506057E+04    0.16065E-02   -0.76890E-03  2560   0.203E-01    0.186E-01
DAV:   5    -0.136601413606E+04    0.92451E-03   -0.49139E-03  2216   0.135E-01    0.672E-02
DAV:   6    -0.136601429468E+04   -0.15862E-03   -0.21014E-03  2584   0.847E-02    0.669E-02
DAV:   7    -0.136601427433E+04    0.20348E-04   -0.69341E-04  2608   0.493E-02    0.397E-02
DAV:   8    -0.136601426287E+04    0.11454E-04   -0.18631E-04  2552   0.283E-02    0.211E-02
DAV:   9    -0.136601426423E+04   -0.13603E-05   -0.40150E-05  2560   0.141E-02    0.129E-02
DAV:  10    -0.136601426570E+04   -0.14612E-05   -0.16230E-05  2208   0.804E-03    0.542E-03
DAV:  11    -0.136601426506E+04    0.63377E-06   -0.18661E-06   992   0.536E-03
  15 F= -.13660143E+04 E0= -.13660143E+04  d E =-.252405E+00
 BRION: g(F)=  0.130E+00 g(S)=  0.000E+00 retain N=  3 mean eig= 3.97
 eig:   5.179  5.179  1.545
 bond charge predicted
       N       E                     dE             d eps       ncg     rms          rms(c)
DAV:   1    -0.136616440677E+04   -0.15014E+00   -0.16720E+01  1368   0.576E+00    0.675E-01
DAV:   2    -0.136624860078E+04   -0.84194E-01   -0.88723E-01  2296   0.227E+00    0.340E-01
DAV:   3    -0.136625274329E+04   -0.41425E-02   -0.65349E-02  2600   0.438E-01    0.268E-01
DAV:   4    -0.136625125484E+04    0.14885E-02   -0.68069E-03  2576   0.191E-01    0.173E-01
DAV:   5    -0.136625032853E+04    0.92631E-03   -0.37773E-03  2304   0.123E-01    0.626E-02
DAV:   6    -0.136625044421E+04   -0.11568E-03   -0.18846E-03  2520   0.794E-02    0.557E-02
DAV:   7    -0.136625043546E+04    0.87480E-05   -0.53963E-04  2544   0.449E-02    0.369E-02
DAV:   8    -0.136625043017E+04    0.52869E-05   -0.21114E-04  2560   0.279E-02    0.191E-02
DAV:   9    -0.136625042952E+04    0.65654E-06   -0.38415E-05  2504   0.138E-02    0.135E-02
DAV:  10    -0.136625042972E+04   -0.19830E-06   -0.19875E-05  2168   0.900E-03    0.649E-03
DAV:  11    -0.136625042943E+04    0.28218E-06   -0.30102E-06  1136   0.622E-03
  16 F= -.13662504E+04 E0= -.13662504E+04  d E =-.236164E+00
 BRION: g(F)=  0.120E+00 g(S)=  0.000E+00 retain N=  3 mean eig= 4.08
 eig:   5.377  5.377  1.477
 bond charge predicted
       N       E                     dE             d eps       ncg     rms          rms(c)
DAV:   1    -0.136640646550E+04   -0.15604E+00   -0.17574E+01  1360   0.587E+00    0.694E-01
DAV:   2    -0.136649393097E+04   -0.87465E-01   -0.92063E-01  2296   0.232E+00    0.348E-01
DAV:   3    -0.136649816994E+04   -0.42390E-02   -0.67507E-02  2600   0.439E-01    0.277E-01
DAV:   4    -0.136649654636E+04    0.16236E-02   -0.70280E-03  2568   0.190E-01    0.175E-01
DAV:   5    -0.136649561382E+04    0.93254E-03   -0.41522E-03  2240   0.129E-01    0.618E-02
DAV:   6    -0.136649576738E+04   -0.15356E-03   -0.19748E-03  2568   0.800E-02    0.606E-02
DAV:   7    -0.136649574697E+04    0.20407E-04   -0.51113E-04  2616   0.441E-02    0.381E-02
DAV:   8    -0.136649573909E+04    0.78832E-05   -0.18675E-04  2544   0.268E-02    0.190E-02
DAV:   9    -0.136649573942E+04   -0.32665E-06   -0.33134E-05  2520   0.130E-02    0.121E-02
DAV:  10    -0.136649574007E+04   -0.65478E-06   -0.13625E-05  2080   0.765E-03    0.505E-03
DAV:  11    -0.136649573991E+04    0.15703E-06   -0.13601E-06   992   0.498E-03
  17 F= -.13664957E+04 E0= -.13664957E+04  d E =-.245310E+00
 BRION: g(F)=  0.114E+00 g(S)=  0.000E+00 retain N=  3 mean eig= 4.32
 eig:   5.736  5.736  1.474
 bond charge predicted
       N       E                     dE             d eps       ncg     rms          rms(c)
DAV:   1    -0.136664458716E+04   -0.14885E+00   -0.14575E+01  1368   0.536E+00    0.624E-01
DAV:   2    -0.136671795521E+04   -0.73368E-01   -0.77415E-01  2320   0.213E+00    0.316E-01
DAV:   3    -0.136672160053E+04   -0.36453E-02   -0.57266E-02  2608   0.396E-01    0.251E-01
DAV:   4    -0.136672033238E+04    0.12682E-02   -0.56388E-03  2576   0.175E-01    0.163E-01
DAV:   5    -0.136671950116E+04    0.83122E-03   -0.33425E-03  2224   0.114E-01    0.583E-02
DAV:   6    -0.136671961561E+04   -0.11446E-03   -0.17000E-03  2512   0.744E-02    0.562E-02
DAV:   7    -0.136671959797E+04    0.17646E-04   -0.52933E-04  2536   0.441E-02    0.361E-02
DAV:   8    -0.136671959240E+04    0.55704E-05   -0.20238E-04  2552   0.272E-02    0.189E-02
DAV:   9    -0.136671959164E+04    0.75487E-06   -0.34683E-05  2472   0.131E-02    0.132E-02
DAV:  10    -0.136671959192E+04   -0.27451E-06   -0.19307E-05  2032   0.870E-03    0.591E-03
DAV:  11    -0.136671959166E+04    0.25853E-06   -0.23679E-06  1056   0.615E-03
  18 F= -.13667196E+04 E0= -.13667196E+04  d E =-.223852E+00
 BRION: g(F)=  0.109E+00 g(S)=  0.000E+00 retain N=  3 mean eig= 4.43
 eig:   5.820  5.820  1.654
 bond charge predicted
       N       E                     dE             d eps       ncg     rms          rms(c)
DAV:   1    -0.136687116517E+04   -0.15157E+00   -0.14658E+01  1376   0.533E+00    0.618E-01
DAV:   2    -0.136694396725E+04   -0.72802E-01   -0.76579E-01  2320   0.210E+00    0.315E-01
DAV:   3    -0.136694742412E+04   -0.34569E-02   -0.55273E-02  2592   0.397E-01    0.246E-01
DAV:   4    -0.136694607864E+04    0.13455E-02   -0.59976E-03  2528   0.173E-01    0.151E-01
DAV:   5    -0.136694542926E+04    0.64938E-03   -0.29782E-03  2352   0.109E-01    0.564E-02
DAV:   6    -0.136694551751E+04   -0.88251E-04   -0.13361E-03  2544   0.658E-02    0.456E-02
DAV:   7    -0.136694550925E+04    0.82555E-05   -0.35946E-04  2560   0.381E-02    0.303E-02
DAV:   8    -0.136694551064E+04   -0.13902E-05   -0.18465E-04  2520   0.243E-02    0.177E-02
DAV:   9    -0.136694550899E+04    0.16546E-05   -0.31045E-05  2488   0.128E-02    0.128E-02
DAV:  10    -0.136694550823E+04    0.75770E-06   -0.21170E-05  2080   0.896E-03    0.557E-03
DAV:  11    -0.136694550820E+04    0.34517E-07   -0.30965E-06  1136   0.615E-03
  19 F= -.13669455E+04 E0= -.13669455E+04  d E =-.225917E+00
 BRION: g(F)=  0.105E+00 g(S)=  0.000E+00 retain N=  3 mean eig= 4.60
 eig:   5.991  5.991  1.833
 bond charge predicted
       N       E                     dE             d eps       ncg     rms          rms(c)
DAV:   1    -0.136709889879E+04   -0.15339E+00   -0.14968E+01  1376   0.542E+00    0.641E-01
DAV:   2    -0.136717465959E+04   -0.75761E-01   -0.80074E-01  2312   0.215E+00    0.325E-01
DAV:   3    -0.136717859427E+04   -0.39347E-02   -0.60793E-02  2592   0.407E-01    0.255E-01
DAV:   4    -0.136717727741E+04    0.13169E-02   -0.62592E-03  2552   0.181E-01    0.161E-01
DAV:   5    -0.136717659678E+04    0.68064E-03   -0.32244E-03  2328   0.111E-01    0.602E-02
DAV:   6    -0.136717668222E+04   -0.85443E-04   -0.14125E-03  2552   0.695E-02    0.484E-02
DAV:   7    -0.136717667745E+04    0.47656E-05   -0.47840E-04  2568   0.428E-02    0.315E-02
DAV:   8    -0.136717667721E+04    0.24644E-06   -0.18033E-04  2560   0.261E-02    0.190E-02
DAV:   9    -0.136717667588E+04    0.13241E-05   -0.37058E-05  2480   0.133E-02    0.134E-02
DAV:  10    -0.136717667597E+04   -0.86889E-07   -0.25098E-05  2240   0.934E-03    0.703E-03
DAV:  11    -0.136717667544E+04    0.52722E-06   -0.33162E-06  1184   0.644E-03
  20 F= -.13671767E+04 E0= -.13671767E+04  d E =-.231167E+00
 BRION: g(F)=  0.102E+00 g(S)=  0.000E+00 retain N=  3 mean eig= 4.37
 eig:   5.678  5.678  1.739
