 running on  160 total cores
 distrk:  each k-point on  160 cores,    1 groups
 distr:  one band on   20 cores,    8 groups
 using from now: INCAR     
 vasp.5.4.4.18Apr17-6-g9f103f2a35 (build May 01 2020 14:22:42) gamma-only       
  
 POSCAR found type information on POSCAR  O  La Zr Li Al
 POSCAR found :  5 types and     190 ions
 scaLAPACK will be used
 LDA part: xc-table for Pade appr. of Perdew
 POSCAR, INCAR and KPOINTS ok, starting setup
 FFT: planning ...
 WAVECAR not read
 WARNING: random wavefunctions but no delay for mixing, default for NELMDL
 entering main loop
       N       E                     dE             d eps       ncg     rms          rms(c)
DAV:   1     0.253156766717E+05    0.25316E+05   -0.42138E+05  1568   0.253E+03
DAV:   2     0.940092557835E+04   -0.15915E+05   -0.14726E+05  1432   0.706E+02
DAV:   3     0.268161522427E+04   -0.67193E+04   -0.61110E+04  1504   0.356E+02
DAV:   4    -0.387914482613E+03   -0.30695E+04   -0.28624E+04  2064   0.222E+02
DAV:   5    -0.142591768448E+04   -0.10380E+04   -0.10045E+04  2528   0.140E+02    0.117E+02
DAV:   6    -0.130266756197E+04    0.12325E+03   -0.14039E+03  2432   0.653E+01    0.502E+01
DAV:   7    -0.132473647171E+04   -0.22069E+02   -0.36795E+02  2576   0.333E+01    0.244E+01
DAV:   8    -0.133414847851E+04   -0.94120E+01   -0.25357E+02  2544   0.261E+01    0.261E+01
DAV:   9    -0.132691258947E+04    0.72359E+01   -0.55243E+01  2488   0.149E+01    0.801E+00
DAV:  10    -0.132784784226E+04   -0.93525E+00   -0.16436E+01  2624   0.811E+00    0.764E+00
DAV:  11    -0.132815298646E+04   -0.30514E+00   -0.63566E+00  2608   0.433E+00    0.436E+00
DAV:  12    -0.132797304331E+04    0.17994E+00   -0.26713E+00  2576   0.363E+00    0.311E+00
DAV:  13    -0.132804357522E+04   -0.70532E-01   -0.95017E-01  2600   0.181E+00    0.219E+00
DAV:  14    -0.132802616934E+04    0.17406E-01   -0.28107E-01  2600   0.110E+00    0.127E+00
DAV:  15    -0.132803384305E+04   -0.76737E-02   -0.95378E-02  2560   0.607E-01    0.106E+00
DAV:  16    -0.132803350271E+04    0.34034E-03   -0.28754E-02  2624   0.327E-01    0.634E-01
DAV:  17    -0.132803188605E+04    0.16167E-02   -0.24603E-02  2424   0.296E-01    0.349E-01
DAV:  18    -0.132803227403E+04   -0.38798E-03   -0.53667E-03  2400   0.158E-01    0.173E-01
DAV:  19    -0.132803233405E+04   -0.60026E-04   -0.17827E-03  2592   0.869E-02    0.117E-01
DAV:  20    -0.132803237377E+04   -0.39715E-04   -0.48939E-04  2600   0.419E-02    0.426E-02
DAV:  21    -0.132803238986E+04   -0.16088E-04   -0.17165E-04  2616   0.234E-02    0.370E-02
DAV:  22    -0.132803240681E+04   -0.16957E-04   -0.67081E-05  2512   0.157E-02    0.124E-02
DAV:  23    -0.132803240423E+04    0.25790E-05   -0.24892E-05  1832   0.982E-03    0.104E-02
DAV:  24    -0.132803240876E+04   -0.45220E-05   -0.11292E-05  1416   0.766E-03    0.317E-03
DAV:  25    -0.132803240890E+04   -0.13843E-06   -0.39652E-06  1016   0.511E-03
   1 F= -.13280324E+04 E0= -.13280324E+04  d E =-.132803E+04
 BRION: g(F)=  0.565E+02 g(S)=  0.000E+00
 bond charge predicted
       N       E                     dE             d eps       ncg     rms          rms(c)
DAV:   1    -0.129864006357E+04    0.29392E+02   -0.67064E+03  1632   0.118E+02    0.271E+01
DAV:   2    -0.135117467641E+04   -0.52535E+02   -0.60486E+02  2576   0.555E+01    0.134E+01
DAV:   3    -0.134978051570E+04    0.13942E+01   -0.35076E+01  2616   0.146E+01    0.895E+00
DAV:   4    -0.134795012361E+04    0.18304E+01   -0.11614E+01  2464   0.718E+00    0.439E+00
DAV:   5    -0.134772080680E+04    0.22932E+00   -0.34552E+00  2528   0.415E+00    0.296E+00
DAV:   6    -0.134763313979E+04    0.87667E-01   -0.24905E+00  2576   0.286E+00    0.167E+00
DAV:   7    -0.134761793682E+04    0.15203E-01   -0.47690E-01  2536   0.165E+00    0.110E+00
DAV:   8    -0.134761714678E+04    0.79004E-03   -0.35083E-01  2584   0.975E-01    0.613E-01
DAV:   9    -0.134761654571E+04    0.60107E-03   -0.45470E-02  2544   0.521E-01    0.422E-01
DAV:  10    -0.134761523251E+04    0.13132E-02   -0.29933E-02  2608   0.315E-01    0.170E-01
DAV:  11    -0.134761605882E+04   -0.82631E-03   -0.98323E-03  2576   0.198E-01    0.154E-01
DAV:  12    -0.134761599950E+04    0.59326E-04   -0.21830E-03  2608   0.943E-02    0.893E-02
DAV:  13    -0.134761595274E+04    0.46756E-04   -0.17207E-03  2464   0.739E-02    0.258E-02
DAV:  14    -0.134761597651E+04   -0.23765E-04   -0.31978E-04  2440   0.399E-02    0.164E-02
DAV:  15    -0.134761598336E+04   -0.68542E-05   -0.71282E-05  2608   0.172E-02    0.905E-03
DAV:  16    -0.134761598416E+04   -0.80133E-06   -0.17293E-05  1832   0.899E-03    0.637E-03
DAV:  17    -0.134761598546E+04   -0.12949E-05   -0.16494E-05  1960   0.723E-03    0.478E-03
DAV:  18    -0.134761598532E+04    0.14013E-06   -0.19498E-06  1072   0.448E-03
   2 F= -.13476160E+04 E0= -.13476160E+04  d E =-.195836E+02
 BRION: g(F)=  0.401E+02 g(S)=  0.000E+00 retain N=  1 mean eig= 0.56
 eig:   0.561
 bond charge predicted
       N       E                     dE             d eps       ncg     rms          rms(c)
DAV:   1    -0.133674626835E+04    0.10870E+02   -0.24589E+03  1440   0.688E+01    0.156E+01
DAV:   2    -0.135582193425E+04   -0.19076E+02   -0.22927E+02  2512   0.303E+01    0.134E+01
DAV:   3    -0.135570352479E+04    0.11841E+00   -0.15959E+01  2600   0.972E+00    0.107E+01
DAV:   4    -0.135480786170E+04    0.89566E+00   -0.93670E+00  2216   0.486E+00    0.560E+00
DAV:   5    -0.135486143029E+04   -0.53569E-01   -0.29173E+00  2312   0.348E+00    0.506E+00
DAV:   6    -0.135443677392E+04    0.42466E+00   -0.38064E+00  2320   0.349E+00    0.143E+00
DAV:   7    -0.135448577710E+04   -0.49003E-01   -0.99083E-01  2328   0.192E+00    0.106E+00
DAV:   8    -0.135448368696E+04    0.20901E-02   -0.19669E-01  2600   0.761E-01    0.614E-01
DAV:   9    -0.135447975257E+04    0.39344E-02   -0.65538E-02  2584   0.473E-01    0.287E-01
DAV:  10    -0.135448098970E+04   -0.12371E-02   -0.17922E-02  2472   0.248E-01    0.193E-01
DAV:  11    -0.135448054231E+04    0.44740E-03   -0.25319E-03  2624   0.136E-01    0.120E-01
DAV:  12    -0.135448068493E+04   -0.14262E-03   -0.54126E-03  2288   0.105E-01    0.884E-02
DAV:  13    -0.135448059034E+04    0.94590E-04   -0.90914E-04  2512   0.654E-02    0.511E-02
DAV:  14    -0.135448058886E+04    0.14774E-05   -0.66386E-04  2600   0.401E-02    0.208E-02
DAV:  15    -0.135448058885E+04    0.83674E-08   -0.99148E-05  2568   0.204E-02    0.878E-03
DAV:  16    -0.135448059113E+04   -0.22820E-05   -0.24397E-05  2400   0.993E-03    0.482E-03
DAV:  17    -0.135448059190E+04   -0.77042E-06   -0.59001E-06  1472   0.581E-03
   3 F= -.13544806E+04 E0= -.13544806E+04  d E =-.686461E+01
 BRION: g(F)=  0.103E+02 g(S)=  0.000E+00 retain N=  2 mean eig= 1.01
 eig:   0.382  1.646
 bond charge predicted
       N       E                     dE             d eps       ncg     rms          rms(c)
DAV:   1    -0.135546132268E+04   -0.98073E+00   -0.41807E+02  1368   0.254E+01    0.546E+00
DAV:   2    -0.135775141782E+04   -0.22901E+01   -0.25762E+01  2464   0.103E+01    0.290E+00
DAV:   3    -0.135769288946E+04    0.58528E-01   -0.14126E+00  2592   0.286E+00    0.224E+00
DAV:   4    -0.135761428316E+04    0.78606E-01   -0.65766E-01  2256   0.139E+00    0.106E+00
DAV:   5    -0.135761257395E+04    0.17092E-02   -0.18426E-01  2488   0.859E-01    0.951E-01
DAV:   6    -0.135760167453E+04    0.10899E-01   -0.14922E-01  2416   0.666E-01    0.380E-01
DAV:   7    -0.135760226601E+04   -0.59149E-03   -0.44264E-02  2400   0.384E-01    0.341E-01
DAV:   8    -0.135760183855E+04    0.42747E-03   -0.12450E-02  2400   0.188E-01    0.240E-01
DAV:   9    -0.135760106248E+04    0.77606E-03   -0.60323E-03  2352   0.129E-01    0.922E-02
DAV:  10    -0.135760134389E+04   -0.28141E-03   -0.46274E-03  2504   0.105E-01    0.104E-01
DAV:  11    -0.135760114164E+04    0.20225E-03   -0.90678E-04  2520   0.685E-02    0.502E-02
DAV:  12    -0.135760116062E+04   -0.18986E-04   -0.68671E-04  2496   0.405E-02    0.191E-02
DAV:  13    -0.135760116809E+04   -0.74648E-05   -0.62897E-05  2544   0.175E-02    0.187E-02
DAV:  14    -0.135760116439E+04    0.36965E-05   -0.18892E-05  2224   0.891E-03    0.128E-02
DAV:  15    -0.135760116315E+04    0.12443E-05   -0.19313E-05  1896   0.769E-03    0.350E-03
DAV:  16    -0.135760116312E+04    0.25757E-07   -0.22924E-06  1096   0.413E-03
   4 F= -.13576012E+04 E0= -.13576012E+04  d E =-.312057E+01
 BRION: g(F)=  0.349E+01 g(S)=  0.000E+00 retain N=  3 mean eig= 1.53
 eig:   3.957  0.338  0.290
 bond charge predicted
       N       E                     dE             d eps       ncg     rms          rms(c)
DAV:   1    -0.135883130953E+04   -0.12301E+01   -0.20256E+02  1360   0.200E+01    0.343E+00
DAV:   2    -0.135980146592E+04   -0.97016E+00   -0.10615E+01  2312   0.770E+00    0.167E+00
DAV:   3    -0.135981857067E+04   -0.17105E-01   -0.76276E-01  2600   0.162E+00    0.138E+00
DAV:   4    -0.135978608272E+04    0.32488E-01   -0.19033E-01  2536   0.881E-01    0.681E-01
DAV:   5    -0.135978122624E+04    0.48565E-02   -0.62737E-02  2432   0.528E-01    0.426E-01
DAV:   6    -0.135978085155E+04    0.37469E-03   -0.42655E-02  2568   0.389E-01    0.233E-01
DAV:   7    -0.135978084788E+04    0.36688E-05   -0.14586E-02  2224   0.216E-01    0.188E-01
DAV:   8    -0.135978083358E+04    0.14303E-04   -0.45113E-03  2376   0.115E-01    0.112E-01
DAV:   9    -0.135978069734E+04    0.13623E-03   -0.16579E-03  2624   0.754E-02    0.619E-02
DAV:  10    -0.135978076636E+04   -0.69017E-04   -0.11409E-03  2536   0.596E-02    0.728E-02
DAV:  11    -0.135978069958E+04    0.66785E-04   -0.48374E-04  2536   0.416E-02    0.254E-02
DAV:  12    -0.135978070619E+04   -0.66096E-05   -0.15821E-04  2464   0.241E-02    0.131E-02
DAV:  13    -0.135978070827E+04   -0.20879E-05   -0.31252E-05  2416   0.110E-02    0.807E-03
DAV:  14    -0.135978070820E+04    0.68016E-07   -0.73058E-06  1504   0.610E-03
   5 F= -.13597807E+04 E0= -.13597807E+04  d E =-.217955E+01
 BRION: g(F)=  0.140E+01 g(S)=  0.000E+00 retain N=  4 mean eig= 1.56
 eig:   2.462  2.462  0.657  0.657
 bond charge predicted
       N       E                     dE             d eps       ncg     rms          rms(c)
DAV:   1    -0.136044902226E+04   -0.66831E+00   -0.16770E+02  1352   0.183E+01    0.256E+00
DAV:   2    -0.136125796275E+04   -0.80894E+00   -0.85584E+00  2296   0.690E+00    0.132E+00
DAV:   3    -0.136128590848E+04   -0.27946E-01   -0.59616E-01  2592   0.135E+00    0.107E+00
DAV:   4    -0.136126566453E+04    0.20244E-01   -0.10253E-01  2536   0.680E-01    0.582E-01
DAV:   5    -0.136126128530E+04    0.43792E-02   -0.43218E-02  2440   0.419E-01    0.297E-01
DAV:   6    -0.136126190918E+04   -0.62388E-03   -0.21248E-02  2584   0.275E-01    0.182E-01
DAV:   7    -0.136126179451E+04    0.11467E-03   -0.69158E-03  2336   0.162E-01    0.126E-01
DAV:   8    -0.136126186443E+04   -0.69922E-04   -0.26333E-03  2416   0.892E-02    0.734E-02
DAV:   9    -0.136126181128E+04    0.53153E-04   -0.58917E-04  2608   0.521E-02    0.469E-02
DAV:  10    -0.136126184592E+04   -0.34643E-04   -0.63874E-04  2504   0.414E-02    0.463E-02
DAV:  11    -0.136126181689E+04    0.29037E-04   -0.28211E-04  2496   0.324E-02    0.132E-02
DAV:  12    -0.136126182134E+04   -0.44564E-05   -0.65894E-05  2224   0.183E-02    0.988E-03
DAV:  13    -0.136126182209E+04   -0.74923E-06   -0.23482E-05  2024   0.857E-03    0.634E-03
DAV:  14    -0.136126182165E+04    0.43867E-06   -0.29604E-06  1088   0.571E-03
   6 F= -.13612618E+04 E0= -.13612618E+04  d E =-.148111E+01
 BRION: g(F)=  0.991E+00 g(S)=  0.000E+00 retain N=  5 mean eig= 1.74
 eig:   3.190  3.190  0.859  0.859  0.596
 bond charge predicted
       N       E                     dE             d eps       ncg     rms          rms(c)
DAV:   1    -0.136178169675E+04   -0.51987E+00   -0.11312E+02  1360   0.150E+01    0.202E+00
DAV:   2    -0.136233245467E+04   -0.55076E+00   -0.57903E+00  2272   0.567E+00    0.105E+00
DAV:   3    -0.136235555229E+04   -0.23098E-01   -0.42731E-01  2600   0.114E+00    0.817E-01
DAV:   4    -0.136234286509E+04    0.12687E-01   -0.67989E-02  2560   0.557E-01    0.418E-01
DAV:   5    -0.136234125544E+04    0.16096E-02   -0.24538E-02  2512   0.322E-01    0.209E-01
DAV:   6    -0.136234170825E+04   -0.45281E-03   -0.11033E-02  2616   0.194E-01    0.117E-01
DAV:   7    -0.136234167946E+04    0.28797E-04   -0.24727E-03  2272   0.106E-01    0.839E-02
DAV:   8    -0.136234170897E+04   -0.29512E-04   -0.11231E-03  2344   0.576E-02    0.426E-02
DAV:   9    -0.136234170176E+04    0.72093E-05   -0.21415E-04  2616   0.345E-02    0.286E-02
DAV:  10    -0.136234170905E+04   -0.72947E-05   -0.23456E-04  2544   0.264E-02    0.232E-02
DAV:  11    -0.136234170466E+04    0.43937E-05   -0.65217E-05  2432   0.172E-02    0.102E-02
DAV:  12    -0.136234170575E+04   -0.10871E-05   -0.28194E-05  2232   0.102E-02    0.656E-03
DAV:  13    -0.136234170530E+04    0.44958E-06   -0.21806E-06  1016   0.575E-03
   7 F= -.13623417E+04 E0= -.13623417E+04  d E =-.107988E+01
 BRION: g(F)=  0.659E+00 g(S)=  0.000E+00 retain N=  6 mean eig= 1.78
 eig:   3.327  3.327  1.330  1.330  0.684  0.684
 bond charge predicted
       N       E                     dE             d eps       ncg     rms          rms(c)
DAV:   1    -0.136273077934E+04   -0.38907E+00   -0.45509E+01  1384   0.936E+00    0.129E+00
DAV:   2    -0.136295507358E+04   -0.22429E+00   -0.23817E+00  2296   0.359E+00    0.642E-01
DAV:   3    -0.136296517719E+04   -0.10104E-01   -0.18380E-01  2608   0.716E-01    0.507E-01
DAV:   4    -0.136296032048E+04    0.48567E-02   -0.24629E-02  2568   0.346E-01    0.284E-01
DAV:   5    -0.136295894383E+04    0.13766E-02   -0.10804E-02  2408   0.206E-01    0.129E-01
DAV:   6    -0.136295917104E+04   -0.22721E-03   -0.47321E-03  2576   0.131E-01    0.922E-02
DAV:   7    -0.136295914327E+04    0.27770E-04   -0.16047E-03  2384   0.782E-02    0.629E-02
DAV:   8    -0.136295915154E+04   -0.82767E-05   -0.67595E-04  2504   0.460E-02    0.374E-02
DAV:   9    -0.136295913893E+04    0.12620E-04   -0.12312E-04  2536   0.253E-02    0.265E-02
DAV:  10    -0.136295914293E+04   -0.40035E-05   -0.17404E-04  2248   0.213E-02    0.203E-02
DAV:  11    -0.136295913854E+04    0.43884E-05   -0.48287E-05  2352   0.153E-02    0.785E-03
DAV:  12    -0.136295913989E+04   -0.13525E-05   -0.21708E-05  2088   0.866E-03    0.649E-03
DAV:  13    -0.136295913925E+04    0.64490E-06   -0.19326E-06  1032   0.544E-03
   8 F= -.13629591E+04 E0= -.13629591E+04  d E =-.617434E+00
 BRION: g(F)=  0.435E+00 g(S)=  0.000E+00 retain N=  7 mean eig= 2.19
 eig:   4.621  4.621  1.932  1.932  0.820  0.820  0.604
 bond charge predicted
       N       E                     dE             d eps       ncg     rms          rms(c)
DAV:   1    -0.136328844865E+04   -0.32931E+00   -0.10699E+02  1376   0.147E+01    0.174E+00
DAV:   2    -0.136382612407E+04   -0.53768E+00   -0.56633E+00  2296   0.570E+00    0.890E-01
DAV:   3    -0.136385468693E+04   -0.28563E-01   -0.43608E-01  2592   0.110E+00    0.699E-01
DAV:   4    -0.136384603826E+04    0.86487E-02   -0.48283E-02  2584   0.503E-01    0.440E-01
DAV:   5    -0.136384156518E+04    0.44731E-02   -0.21164E-02  2384   0.300E-01    0.173E-01
DAV:   6    -0.136384217595E+04   -0.61077E-03   -0.11336E-02  2488   0.205E-01    0.132E-01
DAV:   7    -0.136384217655E+04   -0.59973E-06   -0.43127E-03  2384   0.127E-01    0.960E-02
DAV:   8    -0.136384218849E+04   -0.11938E-04   -0.18144E-03  2544   0.774E-02    0.553E-02
DAV:   9    -0.136384217463E+04    0.13859E-04   -0.36186E-04  2520   0.418E-02    0.427E-02
DAV:  10    -0.136384217249E+04    0.21411E-05   -0.27140E-04  2536   0.292E-02    0.265E-02
DAV:  11    -0.136384216978E+04    0.27153E-05   -0.10584E-04  2480   0.214E-02    0.116E-02
DAV:  12    -0.136384217107E+04   -0.12888E-05   -0.33596E-05  2328   0.128E-02    0.109E-02
DAV:  13    -0.136384217013E+04    0.93252E-06   -0.16795E-05  1832   0.776E-03    0.546E-03
DAV:  14    -0.136384217009E+04    0.39552E-07   -0.53113E-06  1392   0.580E-03
   9 F= -.13638422E+04 E0= -.13638422E+04  d E =-.883031E+00
 BRION: g(F)=  0.309E+00 g(S)=  0.000E+00 retain N=  8 mean eig= 2.73
 eig:   5.898  5.898  2.827  2.827  1.358  1.358  1.060  0.626
 bond charge predicted
       N       E                     dE             d eps       ncg     rms          rms(c)
DAV:   1    -0.136401905238E+04   -0.17688E+00   -0.11233E+02  1376   0.149E+01    0.178E+00
DAV:   2    -0.136459852964E+04   -0.57948E+00   -0.61079E+00  2296   0.589E+00    0.911E-01
DAV:   3    -0.136462994940E+04   -0.31420E-01   -0.47502E-01  2600   0.114E+00    0.734E-01
DAV:   4    -0.136462134419E+04    0.86052E-02   -0.49380E-02  2584   0.511E-01    0.487E-01
DAV:   5    -0.136461507802E+04    0.62662E-02   -0.20958E-02  2384   0.296E-01    0.199E-01
DAV:   6    -0.136461537186E+04   -0.29384E-03   -0.13768E-02  2416   0.217E-01    0.132E-01
DAV:   7    -0.136461543972E+04   -0.67856E-04   -0.54784E-03  2400   0.140E-01    0.106E-01
DAV:   8    -0.136461542380E+04    0.15916E-04   -0.19866E-03  2592   0.835E-02    0.621E-02
DAV:   9    -0.136461540379E+04    0.20012E-04   -0.54587E-04  2552   0.470E-02    0.429E-02
DAV:  10    -0.136461540998E+04   -0.61918E-05   -0.22685E-04  2552   0.285E-02    0.297E-02
DAV:  11    -0.136461540574E+04    0.42446E-05   -0.10573E-04  2448   0.209E-02    0.150E-02
DAV:  12    -0.136461540491E+04    0.83030E-06   -0.46927E-05  2312   0.150E-02    0.116E-02
DAV:  13    -0.136461540471E+04    0.20038E-06   -0.26338E-05  2208   0.929E-03    0.638E-03
DAV:  14    -0.136461540476E+04   -0.49244E-07   -0.79883E-06  1712   0.567E-03
  10 F= -.13646154E+04 E0= -.13646154E+04  d E =-.773235E+00
 BRION: g(F)=  0.223E+00 g(S)=  0.000E+00 retain N=  7 mean eig= 3.41
 eig:   7.559  7.559  2.969  2.969  0.784  1.024  1.024
 bond charge predicted
       N       E                     dE             d eps       ncg     rms          rms(c)
DAV:   1    -0.136467434961E+04   -0.58945E-01   -0.95105E+01  1376   0.139E+01    0.169E+00
DAV:   2    -0.136517770950E+04   -0.50336E+00   -0.53502E+00  2288   0.553E+00    0.842E-01
DAV:   3    -0.136520666156E+04   -0.28952E-01   -0.42456E-01  2592   0.109E+00    0.712E-01
DAV:   4    -0.136520077825E+04    0.58833E-02   -0.41665E-02  2608   0.481E-01    0.519E-01
DAV:   5    -0.136519348827E+04    0.72900E-02   -0.21389E-02  2344   0.296E-01    0.226E-01
DAV:   6    -0.136519362631E+04   -0.13803E-03   -0.18212E-02  2272   0.252E-01    0.165E-01
DAV:   7    -0.136519367659E+04   -0.50285E-04   -0.87077E-03  2432   0.169E-01    0.142E-01
DAV:   8    -0.136519355762E+04    0.11897E-03   -0.29345E-03  2560   0.106E-01    0.806E-02
DAV:   9    -0.136519351302E+04    0.44603E-04   -0.86965E-04  2544   0.560E-02    0.467E-02
DAV:  10    -0.136519352854E+04   -0.15523E-04   -0.23943E-04  2616   0.303E-02    0.337E-02
DAV:  11    -0.136519352981E+04   -0.12715E-05   -0.96742E-05  2432   0.203E-02    0.263E-02
DAV:  12    -0.136519352280E+04    0.70112E-05   -0.91060E-05  2320   0.193E-02    0.190E-02
DAV:  13    -0.136519352092E+04    0.18783E-05   -0.49292E-05  2304   0.132E-02    0.102E-02
DAV:  14    -0.136519352075E+04    0.16703E-06   -0.13449E-05  1768   0.694E-03    0.458E-03
DAV:  15    -0.136519352052E+04    0.23689E-06   -0.20822E-06  1048   0.445E-03
  11 F= -.13651935E+04 E0= -.13651935E+04  d E =-.578116E+00
 BRION: g(F)=  0.170E+00 g(S)=  0.000E+00 retain N=  6 mean eig= 3.61
 eig:   6.548  6.548  2.877  2.877  1.405  1.405
 bond charge predicted
       N       E                     dE             d eps       ncg     rms          rms(c)
DAV:   1    -0.136524647741E+04   -0.52957E-01   -0.59674E+01  1376   0.110E+01    0.128E+00
DAV:   2    -0.136555542621E+04   -0.30895E+00   -0.32618E+00  2296   0.434E+00    0.654E-01
DAV:   3    -0.136557265048E+04   -0.17224E-01   -0.25206E-01  2608   0.832E-01    0.543E-01
DAV:   4    -0.136556902977E+04    0.36207E-02   -0.22578E-02  2608   0.357E-01    0.406E-01
DAV:   5    -0.136556380240E+04    0.52274E-02   -0.13073E-02  2192   0.234E-01    0.166E-01
DAV:   6    -0.136556406526E+04   -0.26286E-03   -0.12214E-02  2256   0.193E-01    0.127E-01
DAV:   7    -0.136556408830E+04   -0.23036E-04   -0.42791E-03  2368   0.115E-01    0.105E-01
DAV:   8    -0.136556402702E+04    0.61281E-04   -0.14349E-03  2584   0.730E-02    0.555E-02
DAV:   9    -0.136556398287E+04    0.44146E-04   -0.48496E-04  2360   0.423E-02    0.318E-02
DAV:  10    -0.136556399388E+04   -0.11003E-04   -0.13452E-04  2464   0.231E-02    0.247E-02
DAV:  11    -0.136556398734E+04    0.65413E-05   -0.63403E-05  2376   0.158E-02    0.116E-02
DAV:  12    -0.136556398839E+04   -0.10530E-05   -0.31556E-05  2264   0.115E-02    0.103E-02
DAV:  13    -0.136556398772E+04    0.66825E-06   -0.11713E-05  1784   0.682E-03    0.559E-03
DAV:  14    -0.136556398755E+04    0.17225E-06   -0.43820E-06  1304   0.501E-03
  12 F= -.13655640E+04 E0= -.13655640E+04  d E =-.370467E+00
 BRION: g(F)=  0.144E+00 g(S)=  0.000E+00 retain N=  6 mean eig= 3.86
 eig:   7.608  7.608  2.390  2.390  1.586  1.586
 bond charge predicted
       N       E                     dE             d eps       ncg     rms          rms(c)
DAV:   1    -0.136562547298E+04   -0.61485E-01   -0.44621E+01  1384   0.957E+00    0.112E+00
DAV:   2    -0.136585972711E+04   -0.23425E+00   -0.24814E+00  2288   0.379E+00    0.574E-01
DAV:   3    -0.136587314072E+04   -0.13414E-01   -0.19545E-01  2584   0.740E-01    0.485E-01
DAV:   4    -0.136587067248E+04    0.24682E-02   -0.18112E-02  2600   0.319E-01    0.367E-01
DAV:   5    -0.136586681090E+04    0.38616E-02   -0.96010E-03  2296   0.203E-01    0.168E-01
DAV:   6    -0.136586666983E+04    0.14106E-03   -0.99375E-03  2216   0.188E-01    0.110E-01
DAV:   7    -0.136586679002E+04   -0.12018E-03   -0.49719E-03  2360   0.125E-01    0.106E-01
DAV:   8    -0.136586672202E+04    0.67999E-04   -0.11981E-03  2544   0.711E-02    0.677E-02
DAV:   9    -0.136586666977E+04    0.52250E-04   -0.59008E-04  2568   0.436E-02    0.319E-02
DAV:  10    -0.136586668364E+04   -0.13877E-04   -0.18222E-04  2528   0.268E-02    0.237E-02
DAV:  11    -0.136586668509E+04   -0.14416E-05   -0.63864E-05  2232   0.162E-02    0.196E-02
DAV:  12    -0.136586668169E+04    0.33917E-05   -0.59929E-05  2288   0.159E-02    0.167E-02
DAV:  13    -0.136586667957E+04    0.21245E-05   -0.33035E-05  2184   0.112E-02    0.103E-02
DAV:  14    -0.136586667880E+04    0.76952E-06   -0.11472E-05  1792   0.656E-03    0.342E-03
DAV:  15    -0.136586667879E+04    0.14537E-07   -0.10494E-06   904   0.376E-03
  13 F= -.13658667E+04 E0= -.13658667E+04  d E =-.302691E+00
 BRION: g(F)=  0.120E+00 g(S)=  0.000E+00 retain N=  3 mean eig= 4.10
 eig:   5.362  5.362  1.564
 bond charge predicted
       N       E                     dE             d eps       ncg     rms          rms(c)
DAV:   1    -0.136587923342E+04   -0.12555E-01   -0.54198E+01  1384   0.105E+01    0.122E+00
DAV:   2    -0.136616032081E+04   -0.28109E+00   -0.29676E+00  2288   0.414E+00    0.616E-01
DAV:   3    -0.136617623187E+04   -0.15911E-01   -0.23038E-01  2592   0.792E-01    0.508E-01
DAV:   4    -0.136617311536E+04    0.31165E-02   -0.21070E-02  2608   0.342E-01    0.377E-01
DAV:   5    -0.136616882699E+04    0.42884E-02   -0.10778E-02  2272   0.217E-01    0.163E-01
DAV:   6    -0.136616887681E+04   -0.49822E-04   -0.10186E-02  2288   0.184E-01    0.110E-01
DAV:   7    -0.136616894199E+04   -0.65179E-04   -0.41036E-03  2408   0.116E-01    0.953E-02
DAV:   8    -0.136616889675E+04    0.45244E-04   -0.12348E-03  2592   0.697E-02    0.552E-02
DAV:   9    -0.136616886542E+04    0.31325E-04   -0.42228E-04  2504   0.390E-02    0.309E-02
DAV:  10    -0.136616887459E+04   -0.91684E-05   -0.13058E-04  2536   0.224E-02    0.221E-02
DAV:  11    -0.136616887428E+04    0.30792E-06   -0.47387E-05  2408   0.146E-02    0.157E-02
DAV:  12    -0.136616887262E+04    0.16662E-05   -0.35534E-05  2248   0.123E-02    0.129E-02
DAV:  13    -0.136616887139E+04    0.12300E-05   -0.20021E-05  1960   0.842E-03    0.670E-03
DAV:  14    -0.136616887107E+04    0.31864E-06   -0.52634E-06  1440   0.549E-03
  14 F= -.13661689E+04 E0= -.13661689E+04  d E =-.302192E+00
 BRION: g(F)=  0.101E+00 g(S)=  0.000E+00 retain N=  3 mean eig= 4.76
 eig:   6.413  6.413  1.464
 bond charge predicted
       N       E                     dE             d eps       ncg     rms          rms(c)
DAV:   1    -0.136623992984E+04   -0.71058E-01   -0.21667E+01  1376   0.670E+00    0.775E-01
DAV:   2    -0.136635113533E+04   -0.11121E+00   -0.11774E+00  2312   0.263E+00    0.397E-01
DAV:   3    -0.136635718396E+04   -0.60486E-02   -0.89201E-02  2576   0.509E-01    0.320E-01
DAV:   4    -0.136635575075E+04    0.14332E-02   -0.88492E-03  2584   0.220E-01    0.228E-01
DAV:   5    -0.136635435332E+04    0.13974E-02   -0.49648E-03  2264   0.141E-01    0.886E-02
DAV:   6    -0.136635449294E+04   -0.13962E-03   -0.31928E-03  2376   0.103E-01    0.771E-02
DAV:   7    -0.136635447272E+04    0.20226E-04   -0.12530E-03  2368   0.656E-02    0.545E-02
DAV:   8    -0.136635446289E+04    0.98277E-05   -0.53886E-04  2560   0.431E-02    0.300E-02
DAV:   9    -0.136635445760E+04    0.52875E-05   -0.10012E-04  2384   0.218E-02    0.212E-02
DAV:  10    -0.136635445794E+04   -0.34063E-06   -0.48087E-05  2456   0.127E-02    0.114E-02
DAV:  11    -0.136635445800E+04   -0.54468E-07   -0.14010E-05  1936   0.888E-03    0.691E-03
DAV:  12    -0.136635445805E+04   -0.57960E-07   -0.92810E-06  1704   0.637E-03
  15 F= -.13663545E+04 E0= -.13663545E+04  d E =-.185587E+00
 BRION: g(F)=  0.895E-01 g(S)=  0.000E+00 retain N=  3 mean eig= 4.43
 eig:   5.890  5.890  1.513
 bond charge predicted
       N       E                     dE             d eps       ncg     rms          rms(c)
DAV:   1    -0.136642341466E+04   -0.68957E-01   -0.24894E+01  1384   0.711E+00    0.810E-01
DAV:   2    -0.136655012189E+04   -0.12671E+00   -0.13342E+00  2296   0.277E+00    0.411E-01
DAV:   3    -0.136655721164E+04   -0.70898E-02   -0.10191E-01  2576   0.537E-01    0.329E-01
DAV:   4    -0.136655569020E+04    0.15214E-02   -0.96666E-03  2568   0.230E-01    0.236E-01
DAV:   5    -0.136655406968E+04    0.16205E-02   -0.49097E-03  2288   0.149E-01    0.918E-02
DAV:   6    -0.136655420402E+04   -0.13433E-03   -0.38570E-03  2376   0.114E-01    0.734E-02
DAV:   7    -0.136655421061E+04   -0.65972E-05   -0.13311E-03  2416   0.684E-02    0.576E-02
DAV:   8    -0.136655419799E+04    0.12623E-04   -0.47724E-04  2576   0.408E-02    0.302E-02
DAV:   9    -0.136655418879E+04    0.91970E-05   -0.12549E-04  2360   0.230E-02    0.193E-02
DAV:  10    -0.136655419126E+04   -0.24643E-05   -0.44727E-05  2384   0.132E-02    0.134E-02
DAV:  11    -0.136655419001E+04    0.12447E-05   -0.15140E-05  1984   0.880E-03    0.703E-03
DAV:  12    -0.136655419018E+04   -0.17171E-06   -0.95509E-06  1792   0.677E-03
  16 F= -.13665542E+04 E0= -.13665542E+04  d E =-.199732E+00
 BRION: g(F)=  0.819E-01 g(S)=  0.000E+00 retain N=  3 mean eig= 5.21
 eig:   6.882  6.882  1.880
 bond charge predicted
       N       E                     dE             d eps       ncg     rms          rms(c)
DAV:   1    -0.136662515457E+04   -0.70965E-01   -0.21354E+01  1376   0.663E+00    0.754E-01
DAV:   2    -0.136673430469E+04   -0.10915E+00   -0.11539E+00  2312   0.260E+00    0.385E-01
DAV:   3    -0.136674064206E+04   -0.63374E-02   -0.89234E-02  2576   0.502E-01    0.307E-01
DAV:   4    -0.136673938343E+04    0.12586E-02   -0.83848E-03  2568   0.217E-01    0.219E-01
DAV:   5    -0.136673816776E+04    0.12157E-02   -0.46772E-03  2312   0.136E-01    0.838E-02
DAV:   6    -0.136673830301E+04   -0.13526E-03   -0.27553E-03  2440   0.965E-02    0.706E-02
DAV:   7    -0.136673828973E+04    0.13284E-04   -0.10666E-03  2448   0.611E-02    0.472E-02
DAV:   8    -0.136673828538E+04    0.43478E-05   -0.42138E-04  2544   0.394E-02    0.274E-02
DAV:   9    -0.136673828192E+04    0.34652E-05   -0.75760E-05  2416   0.192E-02    0.197E-02
DAV:  10    -0.136673828205E+04   -0.13578E-06   -0.37157E-05  2520   0.115E-02    0.945E-03
DAV:  11    -0.136673828232E+04   -0.27099E-06   -0.77979E-06  1576   0.756E-03
  17 F= -.13667383E+04 E0= -.13667383E+04  d E =-.184092E+00
 BRION: g(F)=  0.772E-01 g(S)=  0.000E+00 retain N=  3 mean eig= 4.38
 eig:   5.669  5.669  1.792
 bond charge predicted
       N       E                     dE             d eps       ncg     rms          rms(c)
DAV:   1    -0.136681413049E+04   -0.75848E-01   -0.14075E+01  1368   0.534E+00    0.607E-01
DAV:   2    -0.136688593570E+04   -0.71805E-01   -0.75607E-01  2304   0.207E+00    0.311E-01
DAV:   3    -0.136689010828E+04   -0.41726E-02   -0.58706E-02  2568   0.407E-01    0.244E-01
DAV:   4    -0.136688926538E+04    0.84290E-03   -0.55240E-03  2568   0.175E-01    0.173E-01
DAV:   5    -0.136688847714E+04    0.78825E-03   -0.27143E-03  2352   0.109E-01    0.675E-02
DAV:   6    -0.136688854360E+04   -0.66465E-04   -0.18566E-03  2432   0.800E-02    0.511E-02
DAV:   7    -0.136688854857E+04   -0.49709E-05   -0.65883E-04  2440   0.490E-02    0.385E-02
DAV:   8    -0.136688854503E+04    0.35455E-05   -0.24589E-04  2568   0.297E-02    0.212E-02
DAV:   9    -0.136688854205E+04    0.29729E-05   -0.56712E-05  2408   0.158E-02    0.143E-02
DAV:  10    -0.136688854256E+04   -0.50169E-06   -0.22680E-05  2344   0.957E-03    0.873E-03
DAV:  11    -0.136688854206E+04    0.49405E-06   -0.48610E-06  1248   0.649E-03
  18 F= -.13668885E+04 E0= -.13668885E+04  d E =-.150260E+00
 BRION: g(F)=  0.724E-01 g(S)=  0.000E+00 retain N=  3 mean eig= 4.62
 eig:   6.131  6.131  1.592
 bond charge predicted
       N       E                     dE             d eps       ncg     rms          rms(c)
DAV:   1    -0.136696771642E+04   -0.79174E-01   -0.95495E+00  1376   0.439E+00    0.491E-01
DAV:   2    -0.136701615170E+04   -0.48435E-01   -0.50979E-01  2304   0.170E+00    0.249E-01
DAV:   3    -0.136701924131E+04   -0.30896E-02   -0.41126E-02  2576   0.330E-01    0.197E-01
DAV:   4    -0.136701875941E+04    0.48190E-03   -0.34818E-03  2576   0.142E-01    0.144E-01
DAV:   5    -0.136701821608E+04    0.54333E-03   -0.18688E-03  2344   0.896E-02    0.546E-02
DAV:   6    -0.136701827157E+04   -0.55489E-04   -0.12874E-03  2432   0.651E-02    0.441E-02
DAV:   7    -0.136701827197E+04   -0.39930E-06   -0.43252E-04  2464   0.398E-02    0.313E-02
DAV:   8    -0.136701826908E+04    0.28949E-05   -0.16249E-04  2544   0.243E-02    0.171E-02
DAV:   9    -0.136701826686E+04    0.22204E-05   -0.34319E-05  2304   0.125E-02    0.118E-02
DAV:  10    -0.136701826696E+04   -0.10102E-06   -0.12259E-05  1992   0.731E-03    0.590E-03
DAV:  11    -0.136701826683E+04    0.12451E-06   -0.14763E-06   992   0.486E-03
  19 F= -.13670183E+04 E0= -.13670183E+04  d E =-.129725E+00
 BRION: g(F)=  0.692E-01 g(S)=  0.000E+00 retain N=  3 mean eig= 4.13
 eig:   5.515  5.515  1.374
 bond charge predicted
       N       E                     dE             d eps       ncg     rms          rms(c)
DAV:   1    -0.136710069805E+04   -0.82431E-01   -0.11772E+01  1368   0.490E+00    0.551E-01
DAV:   2    -0.136716087119E+04   -0.60173E-01   -0.63562E-01  2296   0.191E+00    0.280E-01
DAV:   3    -0.136716478168E+04   -0.39105E-02   -0.52102E-02  2568   0.376E-01    0.221E-01
DAV:   4    -0.136716419744E+04    0.58424E-03   -0.45820E-03  2576   0.162E-01    0.162E-01
DAV:   5    -0.136716354930E+04    0.64814E-03   -0.24211E-03  2368   0.998E-02    0.647E-02
DAV:   6    -0.136716359980E+04   -0.50494E-04   -0.15506E-03  2432   0.734E-02    0.504E-02
DAV:   7    -0.136716360086E+04   -0.10626E-05   -0.63136E-04  2472   0.476E-02    0.350E-02
DAV:   8    -0.136716359867E+04    0.21948E-05   -0.22825E-04  2544   0.293E-02    0.210E-02
DAV:   9    -0.136716359591E+04    0.27572E-05   -0.48334E-05  2392   0.147E-02    0.142E-02
DAV:  10    -0.136716359608E+04   -0.17296E-06   -0.20752E-05  2240   0.882E-03    0.730E-03
DAV:  11    -0.136716359604E+04    0.43961E-07   -0.27780E-06  1096   0.604E-03
  20 F= -.13671636E+04 E0= -.13671636E+04  d E =-.145329E+00
 BRION: g(F)=  0.667E-01 g(S)=  0.000E+00 retain N=  3 mean eig= 3.96
 eig:   5.260  5.260  1.353
