 running on  160 total cores
 distrk:  each k-point on  160 cores,    1 groups
 distr:  one band on   20 cores,    8 groups
 using from now: INCAR     
 vasp.5.4.4.18Apr17-6-g9f103f2a35 (build May 01 2020 14:22:42) gamma-only       
  
 POSCAR found type information on POSCAR  O  La Zr Li Al
 POSCAR found :  5 types and     190 ions
 scaLAPACK will be used
 LDA part: xc-table for Pade appr. of Perdew
 POSCAR, INCAR and KPOINTS ok, starting setup
 FFT: planning ...
 WAVECAR not read
 WARNING: random wavefunctions but no delay for mixing, default for NELMDL
 entering main loop
       N       E                     dE             d eps       ncg     rms          rms(c)
DAV:   1     0.253946051419E+05    0.25395E+05   -0.42150E+05  1560   0.253E+03
DAV:   2     0.944998170325E+04   -0.15945E+05   -0.14696E+05  1424   0.709E+02
DAV:   3     0.267459279413E+04   -0.67754E+04   -0.61763E+04  1504   0.357E+02
DAV:   4    -0.389961770543E+03   -0.30646E+04   -0.28687E+04  2048   0.224E+02
DAV:   5    -0.142136891535E+04   -0.10314E+04   -0.99838E+03  2528   0.139E+02    0.117E+02
DAV:   6    -0.130097261606E+04    0.12040E+03   -0.14118E+03  2456   0.655E+01    0.502E+01
DAV:   7    -0.132294893448E+04   -0.21976E+02   -0.36682E+02  2576   0.332E+01    0.244E+01
DAV:   8    -0.133313161258E+04   -0.10183E+02   -0.26303E+02  2528   0.262E+01    0.269E+01
DAV:   9    -0.132502053115E+04    0.81111E+01   -0.58632E+01  2456   0.151E+01    0.803E+00
DAV:  10    -0.132603227450E+04   -0.10117E+01   -0.16193E+01  2624   0.816E+00    0.765E+00
DAV:  11    -0.132627281355E+04   -0.24054E+00   -0.64468E+00  2608   0.438E+00    0.422E+00
DAV:  12    -0.132612632503E+04    0.14649E+00   -0.25715E+00  2568   0.360E+00    0.300E+00
DAV:  13    -0.132619592852E+04   -0.69603E-01   -0.87019E-01  2576   0.179E+00    0.215E+00
DAV:  14    -0.132617847048E+04    0.17458E-01   -0.27367E-01  2616   0.106E+00    0.132E+00
DAV:  15    -0.132618603942E+04   -0.75689E-02   -0.92438E-02  2560   0.601E-01    0.109E+00
DAV:  16    -0.132618501108E+04    0.10283E-02   -0.36606E-02  2616   0.350E-01    0.599E-01
DAV:  17    -0.132618336231E+04    0.16488E-02   -0.22523E-02  2512   0.296E-01    0.310E-01
DAV:  18    -0.132618371111E+04   -0.34880E-03   -0.49309E-03  2512   0.149E-01    0.140E-01
DAV:  19    -0.132618376832E+04   -0.57214E-04   -0.16926E-03  2584   0.806E-02    0.109E-01
DAV:  20    -0.132618381314E+04   -0.44816E-04   -0.50184E-04  2624   0.415E-02    0.254E-02
DAV:  21    -0.132618382761E+04   -0.14471E-04   -0.16309E-04  2608   0.230E-02    0.345E-02
DAV:  22    -0.132618384680E+04   -0.19188E-04   -0.71387E-05  2424   0.170E-02    0.134E-02
DAV:  23    -0.132618384267E+04    0.41272E-05   -0.29539E-05  2032   0.990E-03    0.911E-03
DAV:  24    -0.132618384644E+04   -0.37729E-05   -0.95170E-06  1160   0.747E-03    0.236E-03
DAV:  25    -0.132618384549E+04    0.94657E-06   -0.49065E-06  1048   0.534E-03
   1 F= -.13261838E+04 E0= -.13261838E+04  d E =-.132618E+04
 BRION: g(F)=  0.631E+02 g(S)=  0.000E+00
 bond charge predicted
       N       E                     dE             d eps       ncg     rms          rms(c)
DAV:   1    -0.129992089965E+04    0.26263E+02   -0.65220E+03  1752   0.119E+02    0.288E+01
DAV:   2    -0.135250259560E+04   -0.52582E+02   -0.60031E+02  2584   0.572E+01    0.140E+01
DAV:   3    -0.135084023792E+04    0.16624E+01   -0.33916E+01  2592   0.143E+01    0.954E+00
DAV:   4    -0.134933229125E+04    0.15079E+01   -0.12732E+01  2456   0.688E+00    0.465E+00
DAV:   5    -0.134920182206E+04    0.13047E+00   -0.29464E+00  2576   0.383E+00    0.299E+00
DAV:   6    -0.134914307318E+04    0.58749E-01   -0.22274E+00  2448   0.270E+00    0.170E+00
DAV:   7    -0.134914747269E+04   -0.43995E-02   -0.48593E-01  2552   0.154E+00    0.127E+00
DAV:   8    -0.134913527205E+04    0.12201E-01   -0.27795E-01  2608   0.910E-01    0.507E-01
DAV:   9    -0.134913895073E+04   -0.36787E-02   -0.59711E-02  2576   0.467E-01    0.374E-01
DAV:  10    -0.134913775135E+04    0.11994E-02   -0.11614E-02  2616   0.263E-01    0.224E-01
DAV:  11    -0.134913839794E+04   -0.64659E-03   -0.14760E-02  2600   0.199E-01    0.144E-01
DAV:  12    -0.134913833254E+04    0.65401E-04   -0.20225E-03  2584   0.104E-01    0.661E-02
DAV:  13    -0.134913835486E+04   -0.22315E-04   -0.86376E-04  2624   0.538E-02    0.292E-02
DAV:  14    -0.134913836594E+04   -0.11085E-04   -0.17553E-04  2616   0.269E-02    0.138E-02
DAV:  15    -0.134913836975E+04   -0.38117E-05   -0.52733E-05  2624   0.150E-02    0.819E-03
DAV:  16    -0.134913837248E+04   -0.27304E-05   -0.28815E-05  2568   0.104E-02    0.735E-03
DAV:  17    -0.134913837190E+04    0.58579E-06   -0.44835E-06  1272   0.644E-03
   2 F= -.13491384E+04 E0= -.13491384E+04  d E =-.229545E+02
 BRION: g(F)=  0.350E+02 g(S)=  0.000E+00 retain N=  1 mean eig= 0.61
 eig:   0.606
 bond charge predicted
       N       E                     dE             d eps       ncg     rms          rms(c)
DAV:   1    -0.133170553917E+04    0.17433E+02   -0.26748E+03  1368   0.706E+01    0.154E+01
DAV:   2    -0.135718062113E+04   -0.25475E+02   -0.30215E+02  2544   0.327E+01    0.158E+01
DAV:   3    -0.135688168560E+04    0.29894E+00   -0.19206E+01  2568   0.101E+01    0.126E+01
DAV:   4    -0.135581105869E+04    0.10706E+01   -0.12595E+01  2280   0.515E+00    0.687E+00
DAV:   5    -0.135591042878E+04   -0.99370E-01   -0.37470E+00  2392   0.345E+00    0.566E+00
DAV:   6    -0.135540157130E+04    0.50886E+00   -0.47426E+00  2376   0.383E+00    0.155E+00
DAV:   7    -0.135546063490E+04   -0.59064E-01   -0.11840E+00  2224   0.217E+00    0.130E+00
DAV:   8    -0.135545865998E+04    0.19749E-02   -0.28462E-01  2520   0.817E-01    0.735E-01
DAV:   9    -0.135545467735E+04    0.39826E-02   -0.10599E-01  2592   0.549E-01    0.405E-01
DAV:  10    -0.135545577113E+04   -0.10938E-02   -0.24427E-02  2304   0.317E-01    0.208E-01
DAV:  11    -0.135545558980E+04    0.18132E-03   -0.81797E-03  2592   0.172E-01    0.109E-01
DAV:  12    -0.135545577866E+04   -0.18886E-03   -0.39238E-03  2552   0.106E-01    0.813E-02
DAV:  13    -0.135545574138E+04    0.37283E-04   -0.78165E-04  2608   0.547E-02    0.446E-02
DAV:  14    -0.135545574946E+04   -0.80822E-05   -0.39411E-04  2616   0.330E-02    0.197E-02
DAV:  15    -0.135545575386E+04   -0.43943E-05   -0.10757E-04  2608   0.195E-02    0.124E-02
DAV:  16    -0.135545575656E+04   -0.27031E-05   -0.35410E-05  2512   0.102E-02    0.783E-03
DAV:  17    -0.135545575670E+04   -0.14005E-06   -0.77551E-06  1296   0.635E-03
   3 F= -.13554558E+04 E0= -.13554558E+04  d E =-.631738E+01
 BRION: g(F)=  0.752E+01 g(S)=  0.000E+00 retain N=  2 mean eig= 0.68
 eig:   0.383  0.969
 bond charge predicted
       N       E                     dE             d eps       ncg     rms          rms(c)
DAV:   1    -0.135684831410E+04   -0.13926E+01   -0.37013E+02  1392   0.270E+01    0.490E+00
DAV:   2    -0.135887107938E+04   -0.20228E+01   -0.23036E+01  2344   0.113E+01    0.249E+00
DAV:   3    -0.135892338078E+04   -0.52301E-01   -0.18021E+00  2616   0.263E+00    0.204E+00
DAV:   4    -0.135886169262E+04    0.61688E-01   -0.40339E-01  2584   0.135E+00    0.109E+00
DAV:   5    -0.135884463288E+04    0.17060E-01   -0.15311E-01  2328   0.829E-01    0.637E-01
DAV:   6    -0.135884397408E+04    0.65880E-03   -0.89813E-02  2568   0.590E-01    0.446E-01
DAV:   7    -0.135884371802E+04    0.25607E-03   -0.41332E-02  2424   0.365E-01    0.290E-01
DAV:   8    -0.135884361058E+04    0.10744E-03   -0.10771E-02  2552   0.196E-01    0.154E-01
DAV:   9    -0.135884349032E+04    0.12025E-03   -0.29755E-03  2592   0.110E-01    0.955E-02
DAV:  10    -0.135884359899E+04   -0.10867E-03   -0.16653E-03  2448   0.773E-02    0.961E-02
DAV:  11    -0.135884349634E+04    0.10265E-03   -0.10094E-03  2480   0.597E-02    0.341E-02
DAV:  12    -0.135884351404E+04   -0.17701E-04   -0.33119E-04  2496   0.365E-02    0.271E-02
DAV:  13    -0.135884351046E+04    0.35851E-05   -0.91770E-05  2528   0.189E-02    0.134E-02
DAV:  14    -0.135884351153E+04   -0.10698E-05   -0.32528E-05  2520   0.104E-02    0.606E-03
DAV:  15    -0.135884351200E+04   -0.47106E-06   -0.36799E-06  1184   0.561E-03
   4 F= -.13588435E+04 E0= -.13588435E+04  d E =-.338776E+01
 BRION: g(F)=  0.287E+01 g(S)=  0.000E+00 retain N=  3 mean eig= 0.82
 eig:   1.739  0.525  0.194
 bond charge predicted
       N       E                     dE             d eps       ncg     rms          rms(c)
DAV:   1    -0.135986988048E+04   -0.10264E+01   -0.18115E+02  1328   0.187E+01    0.346E+00
DAV:   2    -0.136073216724E+04   -0.86229E+00   -0.93687E+00  2288   0.709E+00    0.166E+00
DAV:   3    -0.136074356209E+04   -0.11395E-01   -0.62812E-01  2552   0.151E+00    0.134E+00
DAV:   4    -0.136071770632E+04    0.25856E-01   -0.21512E-01  2456   0.889E-01    0.649E-01
DAV:   5    -0.136071672910E+04    0.97722E-03   -0.59220E-02  2472   0.497E-01    0.481E-01
DAV:   6    -0.136071531759E+04    0.14115E-02   -0.38031E-02  2592   0.339E-01    0.193E-01
DAV:   7    -0.136071540044E+04   -0.82849E-04   -0.93350E-03  2456   0.184E-01    0.148E-01
DAV:   8    -0.136071537907E+04    0.21369E-04   -0.28087E-03  2384   0.977E-02    0.840E-02
DAV:   9    -0.136071532412E+04    0.54949E-04   -0.13997E-03  2544   0.641E-02    0.463E-02
DAV:  10    -0.136071534377E+04   -0.19649E-04   -0.44195E-04  2488   0.412E-02    0.424E-02
DAV:  11    -0.136071532499E+04    0.18777E-04   -0.22248E-04  2520   0.270E-02    0.159E-02
DAV:  12    -0.136071532733E+04   -0.23385E-05   -0.62560E-05  2368   0.158E-02    0.821E-03
DAV:  13    -0.136071532862E+04   -0.12881E-05   -0.14942E-05  2040   0.802E-03    0.597E-03
DAV:  14    -0.136071532841E+04    0.20691E-06   -0.32820E-06  1176   0.505E-03
   5 F= -.13607153E+04 E0= -.13607153E+04  d E =-.187182E+01
 BRION: g(F)=  0.150E+01 g(S)=  0.000E+00 retain N=  4 mean eig= 1.26
 eig:   1.860  1.860  0.668  0.668
 bond charge predicted
       N       E                     dE             d eps       ncg     rms          rms(c)
DAV:   1    -0.136124164706E+04   -0.52632E+00   -0.25013E+02  1368   0.227E+01    0.369E+00
DAV:   2    -0.136249645436E+04   -0.12548E+01   -0.13295E+01  2256   0.852E+00    0.175E+00
DAV:   3    -0.136254779426E+04   -0.51340E-01   -0.99007E-01  2584   0.183E+00    0.140E+00
DAV:   4    -0.136251929672E+04    0.28498E-01   -0.20115E-01  2504   0.933E-01    0.716E-01
DAV:   5    -0.136251640362E+04    0.28931E-02   -0.71535E-02  2456   0.547E-01    0.431E-01
DAV:   6    -0.136251641979E+04   -0.16172E-04   -0.30382E-02  2576   0.332E-01    0.230E-01
DAV:   7    -0.136251624297E+04    0.17682E-03   -0.10195E-02  2448   0.200E-01    0.137E-01
DAV:   8    -0.136251638905E+04   -0.14608E-03   -0.35193E-03  2512   0.112E-01    0.898E-02
DAV:   9    -0.136251629920E+04    0.89846E-04   -0.96827E-04  2592   0.666E-02    0.521E-02
DAV:  10    -0.136251633522E+04   -0.36018E-04   -0.75382E-04  2560   0.464E-02    0.420E-02
DAV:  11    -0.136251631432E+04    0.20894E-04   -0.24251E-04  2544   0.318E-02    0.130E-02
DAV:  12    -0.136251631818E+04   -0.38612E-05   -0.56789E-05  2160   0.174E-02    0.910E-03
DAV:  13    -0.136251631939E+04   -0.12025E-05   -0.21645E-05  2064   0.803E-03    0.586E-03
DAV:  14    -0.136251631915E+04    0.24046E-06   -0.26473E-06  1080   0.540E-03
   6 F= -.13625163E+04 E0= -.13625163E+04  d E =-.180099E+01
 BRION: g(F)=  0.841E+00 g(S)=  0.000E+00 retain N=  5 mean eig= 1.27
 eig:   1.853  1.853  0.957  0.957  0.720
 bond charge predicted
       N       E                     dE             d eps       ncg     rms          rms(c)
DAV:   1    -0.136297269086E+04   -0.45637E+00   -0.88968E+01  1376   0.135E+01    0.186E+00
DAV:   2    -0.136342511585E+04   -0.45242E+00   -0.47964E+00  2296   0.524E+00    0.916E-01
DAV:   3    -0.136344666578E+04   -0.21550E-01   -0.36777E-01  2616   0.105E+00    0.724E-01
DAV:   4    -0.136343744215E+04    0.92236E-02   -0.52067E-02  2552   0.519E-01    0.413E-01
DAV:   5    -0.136343494794E+04    0.24942E-02   -0.22260E-02  2424   0.304E-01    0.191E-01
DAV:   6    -0.136343551045E+04   -0.56251E-03   -0.10173E-02  2520   0.192E-01    0.135E-01
DAV:   7    -0.136343543228E+04    0.78161E-04   -0.33700E-03  2384   0.117E-01    0.966E-02
DAV:   8    -0.136343544615E+04   -0.13863E-04   -0.18648E-03  2424   0.745E-02    0.568E-02
DAV:   9    -0.136343542290E+04    0.23244E-04   -0.28968E-04  2544   0.392E-02    0.412E-02
DAV:  10    -0.136343542098E+04    0.19208E-05   -0.36129E-04  2472   0.331E-02    0.280E-02
DAV:  11    -0.136343541617E+04    0.48127E-05   -0.10210E-04  2456   0.218E-02    0.113E-02
DAV:  12    -0.136343541867E+04   -0.25013E-05   -0.37359E-05  2360   0.120E-02    0.101E-02
DAV:  13    -0.136343541780E+04    0.86862E-06   -0.11083E-05  1776   0.717E-03    0.454E-03
DAV:  14    -0.136343541792E+04   -0.12094E-06   -0.46696E-06  1312   0.547E-03
   7 F= -.13634354E+04 E0= -.13634354E+04  d E =-.919099E+00
 BRION: g(F)=  0.523E+00 g(S)=  0.000E+00 retain N=  6 mean eig= 1.81
 eig:   3.434  3.434  1.236  1.236  0.772  0.772
 bond charge predicted
       N       E                     dE             d eps       ncg     rms          rms(c)
DAV:   1    -0.136374145404E+04   -0.30604E+00   -0.78907E+01  1384   0.128E+01    0.180E+00
DAV:   2    -0.136415527437E+04   -0.41382E+00   -0.44161E+00  2288   0.518E+00    0.919E-01
DAV:   3    -0.136417772144E+04   -0.22447E-01   -0.34768E-01  2600   0.101E+00    0.736E-01
DAV:   4    -0.136417008518E+04    0.76363E-02   -0.45851E-02  2576   0.496E-01    0.434E-01
DAV:   5    -0.136416791143E+04    0.21738E-02   -0.23964E-02  2360   0.304E-01    0.196E-01
DAV:   6    -0.136416853011E+04   -0.61868E-03   -0.94569E-03  2584   0.189E-01    0.157E-01
DAV:   7    -0.136416834281E+04    0.18730E-03   -0.39933E-03  2568   0.121E-01    0.963E-02
DAV:   8    -0.136416832531E+04    0.17500E-04   -0.15605E-03  2608   0.753E-02    0.539E-02
DAV:   9    -0.136416830507E+04    0.20243E-04   -0.28974E-04  2568   0.382E-02    0.338E-02
DAV:  10    -0.136416831923E+04   -0.14163E-04   -0.21323E-04  2512   0.253E-02    0.247E-02
DAV:  11    -0.136416831323E+04    0.60021E-05   -0.62656E-05  2416   0.174E-02    0.103E-02
DAV:  12    -0.136416831465E+04   -0.14169E-05   -0.25064E-05  2200   0.104E-02    0.941E-03
DAV:  13    -0.136416831395E+04    0.69202E-06   -0.87137E-06  1632   0.646E-03
   8 F= -.13641683E+04 E0= -.13641683E+04  d E =-.732896E+00
 BRION: g(F)=  0.350E+00 g(S)=  0.000E+00 retain N=  7 mean eig= 2.20
 eig:   4.554  4.554  1.858  1.858  0.874  0.874  0.852
 bond charge predicted
       N       E                     dE             d eps       ncg     rms          rms(c)
DAV:   1    -0.136431300724E+04   -0.14469E+00   -0.11573E+02  1384   0.153E+01    0.184E+00
DAV:   2    -0.136490947978E+04   -0.59647E+00   -0.63007E+00  2288   0.607E+00    0.928E-01
DAV:   3    -0.136494271139E+04   -0.33232E-01   -0.49056E-01  2608   0.116E+00    0.749E-01
DAV:   4    -0.136493436504E+04    0.83464E-02   -0.48720E-02  2608   0.524E-01    0.505E-01
DAV:   5    -0.136492816274E+04    0.62023E-02   -0.24934E-02  2336   0.311E-01    0.200E-01
DAV:   6    -0.136492880441E+04   -0.64167E-03   -0.14104E-02  2440   0.219E-01    0.157E-01
DAV:   7    -0.136492876401E+04    0.40408E-04   -0.61313E-03  2432   0.146E-01    0.112E-01
DAV:   8    -0.136492875075E+04    0.13253E-04   -0.23114E-03  2576   0.923E-02    0.685E-02
DAV:   9    -0.136492871574E+04    0.35008E-04   -0.54024E-04  2456   0.485E-02    0.475E-02
DAV:  10    -0.136492872239E+04   -0.66458E-05   -0.32487E-04  2456   0.320E-02    0.282E-02
DAV:  11    -0.136492872212E+04    0.26613E-06   -0.12132E-04  2488   0.234E-02    0.161E-02
DAV:  12    -0.136492872216E+04   -0.32567E-07   -0.51274E-05  2336   0.157E-02    0.147E-02
DAV:  13    -0.136492872038E+04    0.17796E-05   -0.32341E-05  2184   0.102E-02    0.719E-03
DAV:  14    -0.136492872041E+04   -0.38097E-07   -0.10555E-05  1760   0.622E-03    0.325E-03
DAV:  15    -0.136492872057E+04   -0.15786E-06   -0.10064E-06   984   0.381E-03
   9 F= -.13649287E+04 E0= -.13649287E+04  d E =-.760407E+00
 BRION: g(F)=  0.257E+00 g(S)=  0.000E+00 retain N=  8 mean eig= 2.57
 eig:   5.787  5.787  1.767  1.767  1.810  1.810  0.908  0.908
 bond charge predicted
       N       E                     dE             d eps       ncg     rms          rms(c)
DAV:   1    -0.136506779099E+04   -0.13907E+00   -0.72394E+01  1376   0.121E+01    0.142E+00
DAV:   2    -0.136543911953E+04   -0.37133E+00   -0.39248E+00  2296   0.480E+00    0.725E-01
DAV:   3    -0.136545961310E+04   -0.20494E-01   -0.30432E-01  2600   0.913E-01    0.582E-01
DAV:   4    -0.136545413388E+04    0.54792E-02   -0.29229E-02  2592   0.404E-01    0.394E-01
DAV:   5    -0.136545000793E+04    0.41259E-02   -0.15145E-02  2344   0.249E-01    0.151E-01
DAV:   6    -0.136545041992E+04   -0.41198E-03   -0.92882E-03  2400   0.180E-01    0.120E-01
DAV:   7    -0.136545043304E+04   -0.13125E-04   -0.37208E-03  2472   0.115E-01    0.877E-02
DAV:   8    -0.136545041676E+04    0.16277E-04   -0.12809E-03  2600   0.682E-02    0.492E-02
DAV:   9    -0.136545039660E+04    0.20168E-04   -0.31289E-04  2432   0.373E-02    0.345E-02
DAV:  10    -0.136545040214E+04   -0.55409E-05   -0.18699E-04  2464   0.249E-02    0.221E-02
DAV:  11    -0.136545039964E+04    0.24986E-05   -0.68705E-05  2432   0.182E-02    0.111E-02
DAV:  12    -0.136545040090E+04   -0.12591E-05   -0.30982E-05  2304   0.118E-02    0.109E-02
DAV:  13    -0.136545039977E+04    0.11229E-05   -0.13669E-05  1760   0.714E-03    0.544E-03
DAV:  14    -0.136545039979E+04   -0.20606E-07   -0.68357E-06  1552   0.568E-03
  10 F= -.13654504E+04 E0= -.13654504E+04  d E =-.521679E+00
 BRION: g(F)=  0.207E+00 g(S)=  0.000E+00 retain N=  7 mean eig= 3.20
 eig:   6.632  6.632  2.777  2.777  1.301  1.301  1.004
 bond charge predicted
       N       E                     dE             d eps       ncg     rms          rms(c)
DAV:   1    -0.136557967588E+04   -0.12928E+00   -0.52195E+01  1384   0.103E+01    0.122E+00
DAV:   2    -0.136585219016E+04   -0.27251E+00   -0.28826E+00  2304   0.413E+00    0.629E-01
DAV:   3    -0.136586767110E+04   -0.15481E-01   -0.22539E-01  2600   0.781E-01    0.507E-01
DAV:   4    -0.136586383523E+04    0.38359E-02   -0.21373E-02  2592   0.349E-01    0.348E-01
DAV:   5    -0.136586077382E+04    0.30614E-02   -0.11281E-02  2336   0.212E-01    0.130E-01
DAV:   6    -0.136586111259E+04   -0.33877E-03   -0.65747E-03  2424   0.146E-01    0.105E-01
DAV:   7    -0.136586109797E+04    0.14619E-04   -0.23639E-03  2472   0.912E-02    0.732E-02
DAV:   8    -0.136586108341E+04    0.14563E-04   -0.95708E-04  2600   0.593E-02    0.423E-02
DAV:   9    -0.136586107134E+04    0.12075E-04   -0.20526E-04  2424   0.308E-02    0.299E-02
DAV:  10    -0.136586107343E+04   -0.20943E-05   -0.11168E-04  2464   0.195E-02    0.159E-02
DAV:  11    -0.136586107354E+04   -0.10607E-06   -0.32940E-05  2376   0.129E-02    0.872E-03
DAV:  12    -0.136586107407E+04   -0.53195E-06   -0.17157E-05  2184   0.880E-03    0.799E-03
DAV:  13    -0.136586107345E+04    0.62257E-06   -0.63295E-06  1536   0.555E-03
  11 F= -.13658611E+04 E0= -.13658611E+04  d E =-.410674E+00
 BRION: g(F)=  0.172E+00 g(S)=  0.000E+00 retain N=  7 mean eig= 3.64
 eig:   7.583  7.583  3.320  3.320  1.306  1.306  1.087
 bond charge predicted
       N       E                     dE             d eps       ncg     rms          rms(c)
DAV:   1    -0.136595590625E+04   -0.94832E-01   -0.48573E+01  1376   0.991E+00    0.115E+00
DAV:   2    -0.136620783051E+04   -0.25192E+00   -0.26678E+00  2304   0.394E+00    0.595E-01
DAV:   3    -0.136622237673E+04   -0.14546E-01   -0.21019E-01  2608   0.745E-01    0.488E-01
DAV:   4    -0.136621926383E+04    0.31129E-02   -0.18452E-02  2608   0.328E-01    0.355E-01
DAV:   5    -0.136621564070E+04    0.36231E-02   -0.10769E-02  2280   0.207E-01    0.142E-01
DAV:   6    -0.136621587036E+04   -0.22966E-03   -0.80777E-03  2368   0.162E-01    0.114E-01
DAV:   7    -0.136621585069E+04    0.19671E-04   -0.31177E-03  2424   0.102E-01    0.839E-02
DAV:   8    -0.136621582328E+04    0.27410E-04   -0.11252E-03  2576   0.647E-02    0.459E-02
DAV:   9    -0.136621580166E+04    0.21623E-04   -0.28627E-04  2304   0.344E-02    0.300E-02
DAV:  10    -0.136621580608E+04   -0.44263E-05   -0.11102E-04  2352   0.196E-02    0.180E-02
DAV:  11    -0.136621580512E+04    0.96050E-06   -0.35766E-05  2400   0.130E-02    0.974E-03
DAV:  12    -0.136621580598E+04   -0.85949E-06   -0.20767E-05  2192   0.932E-03    0.958E-03
DAV:  13    -0.136621580507E+04    0.91012E-06   -0.87840E-06  1728   0.608E-03
  12 F= -.13662158E+04 E0= -.13662158E+04  d E =-.354732E+00
 BRION: g(F)=  0.144E+00 g(S)=  0.000E+00 retain N=  3 mean eig= 4.14
 eig:   5.511  5.511  1.383
 bond charge predicted
       N       E                     dE             d eps       ncg     rms          rms(c)
DAV:   1    -0.136626665500E+04   -0.50849E-01   -0.63608E+01  1384   0.113E+01    0.130E+00
DAV:   2    -0.136659780965E+04   -0.33115E+00   -0.35029E+00  2304   0.449E+00    0.677E-01
DAV:   3    -0.136661711618E+04   -0.19307E-01   -0.27883E-01  2608   0.856E-01    0.544E-01
DAV:   4    -0.136661283427E+04    0.42819E-02   -0.24532E-02  2608   0.381E-01    0.390E-01
DAV:   5    -0.136660852191E+04    0.43124E-02   -0.13012E-02  2328   0.232E-01    0.158E-01
DAV:   6    -0.136660867923E+04   -0.15732E-03   -0.94873E-03  2360   0.179E-01    0.116E-01
DAV:   7    -0.136660872067E+04   -0.41441E-04   -0.39185E-03  2440   0.116E-01    0.880E-02
DAV:   8    -0.136660869734E+04    0.23328E-04   -0.12820E-03  2592   0.700E-02    0.518E-02
DAV:   9    -0.136660867176E+04    0.25576E-04   -0.36333E-04  2424   0.383E-02    0.330E-02
DAV:  10    -0.136660867765E+04   -0.58845E-05   -0.15907E-04  2448   0.235E-02    0.208E-02
DAV:  11    -0.136660867725E+04    0.40254E-06   -0.53778E-05  2424   0.161E-02    0.120E-02
DAV:  12    -0.136660867765E+04   -0.40783E-06   -0.30760E-05  2264   0.116E-02    0.115E-02
DAV:  13    -0.136660867639E+04    0.12660E-05   -0.14972E-05  1776   0.756E-03    0.613E-03
DAV:  14    -0.136660867634E+04    0.44907E-07   -0.82151E-06  1664   0.590E-03
  13 F= -.13666087E+04 E0= -.13666087E+04  d E =-.392871E+00
 BRION: g(F)=  0.120E+00 g(S)=  0.000E+00 retain N=  3 mean eig= 5.31
 eig:   7.185  7.185  1.550
 bond charge predicted
       N       E                     dE             d eps       ncg     rms          rms(c)
DAV:   1    -0.136669147108E+04   -0.82795E-01   -0.37409E+01  1376   0.876E+00    0.102E+00
DAV:   2    -0.136688440888E+04   -0.19294E+00   -0.20576E+00  2288   0.345E+00    0.525E-01
DAV:   3    -0.136689661434E+04   -0.12205E-01   -0.17157E-01  2600   0.690E-01    0.429E-01
DAV:   4    -0.136689430232E+04    0.23120E-02   -0.14964E-02  2600   0.298E-01    0.311E-01
DAV:   5    -0.136689181253E+04    0.24898E-02   -0.91404E-03  2336   0.188E-01    0.125E-01
DAV:   6    -0.136689199029E+04   -0.17777E-03   -0.57064E-03  2392   0.141E-01    0.107E-01
DAV:   7    -0.136689195431E+04    0.35987E-04   -0.24374E-03  2456   0.922E-02    0.710E-02
DAV:   8    -0.136689194212E+04    0.12185E-04   -0.99001E-04  2576   0.597E-02    0.413E-02
DAV:   9    -0.136689193003E+04    0.12096E-04   -0.18750E-04  2400   0.296E-02    0.293E-02
DAV:  10    -0.136689192999E+04    0.32727E-07   -0.10498E-04  2440   0.182E-02    0.146E-02
DAV:  11    -0.136689193108E+04   -0.10837E-05   -0.27828E-05  2328   0.120E-02    0.872E-03
DAV:  12    -0.136689193120E+04   -0.12548E-06   -0.13751E-05  1944   0.829E-03    0.810E-03
DAV:  13    -0.136689193054E+04    0.66226E-06   -0.73968E-06  1552   0.603E-03
  14 F= -.13668919E+04 E0= -.13668919E+04  d E =-.283254E+00
 BRION: g(F)=  0.106E+00 g(S)=  0.000E+00 retain N=  3 mean eig= 4.96
 eig:   2.082  6.402  6.402
 bond charge predicted
       N       E                     dE             d eps       ncg     rms          rms(c)
DAV:   1    -0.136697040826E+04   -0.78477E-01   -0.30755E+01  1376   0.789E+00    0.904E-01
DAV:   2    -0.136712881493E+04   -0.15841E+00   -0.16805E+00  2296   0.308E+00    0.464E-01
DAV:   3    -0.136713850217E+04   -0.96872E-02   -0.13785E-01  2600   0.609E-01    0.373E-01
DAV:   4    -0.136713650364E+04    0.19985E-02   -0.11817E-02  2600   0.268E-01    0.271E-01
DAV:   5    -0.136713435366E+04    0.21500E-02   -0.68587E-03  2312   0.171E-01    0.110E-01
DAV:   6    -0.136713445068E+04   -0.97026E-04   -0.49536E-03  2344   0.133E-01    0.897E-02
DAV:   7    -0.136713445936E+04   -0.86793E-05   -0.20528E-03  2464   0.838E-02    0.651E-02
DAV:   8    -0.136713444406E+04    0.15298E-04   -0.70335E-04  2560   0.510E-02    0.351E-02
DAV:   9    -0.136713443136E+04    0.12705E-04   -0.16996E-04  2288   0.269E-02    0.231E-02
DAV:  10    -0.136713443301E+04   -0.16551E-05   -0.72240E-05  2376   0.163E-02    0.139E-02
DAV:  11    -0.136713443261E+04    0.40627E-06   -0.23311E-05  2232   0.107E-02    0.664E-03
DAV:  12    -0.136713443326E+04   -0.65193E-06   -0.11183E-05  1816   0.740E-03    0.677E-03
DAV:  13    -0.136713443256E+04    0.70111E-06   -0.25173E-06  1056   0.521E-03
  15 F= -.13671344E+04 E0= -.13671344E+04  d E =-.242502E+00
 BRION: g(F)=  0.947E-01 g(S)=  0.000E+00 retain N=  2 mean eig= 3.96
 eig:   3.965  3.965
 bond charge predicted
       N       E                     dE             d eps       ncg     rms          rms(c)
DAV:   1    -0.136721373253E+04   -0.79299E-01   -0.22874E+01  1384   0.681E+00    0.786E-01
DAV:   2    -0.136733097871E+04   -0.11725E+00   -0.12456E+00  2296   0.266E+00    0.403E-01
DAV:   3    -0.136733831465E+04   -0.73359E-02   -0.10322E-01  2592   0.530E-01    0.324E-01
DAV:   4    -0.136733689362E+04    0.14210E-02   -0.88687E-03  2592   0.231E-01    0.235E-01
DAV:   5    -0.136733536716E+04    0.15265E-02   -0.53625E-03  2296   0.149E-01    0.938E-02
DAV:   6    -0.136733547265E+04   -0.10550E-03   -0.35382E-03  2384   0.110E-01    0.806E-02
DAV:   7    -0.136733546316E+04    0.94941E-05   -0.13374E-03  2480   0.694E-02    0.549E-02
DAV:   8    -0.136733544958E+04    0.13584E-04   -0.51923E-04  2560   0.435E-02    0.290E-02
DAV:   9    -0.136733544287E+04    0.67080E-05   -0.10738E-04  2288   0.219E-02    0.200E-02
DAV:  10    -0.136733544312E+04   -0.25371E-06   -0.49498E-05  2336   0.135E-02    0.102E-02
DAV:  11    -0.136733544319E+04   -0.67870E-07   -0.12857E-05  1944   0.865E-03    0.485E-03
DAV:  12    -0.136733544384E+04   -0.64574E-06   -0.90285E-06  1648   0.582E-03
  16 F= -.13673354E+04 E0= -.13673354E+04  d E =-.201011E+00
 BRION: g(F)=  0.869E-01 g(S)=  0.000E+00 retain N=  3 mean eig= 4.87
 eig:   6.498  6.498  1.612
 bond charge predicted
       N       E                     dE             d eps       ncg     rms          rms(c)
DAV:   1    -0.136741231471E+04   -0.76872E-01   -0.16742E+01  1384   0.583E+00    0.680E-01
DAV:   2    -0.136749833205E+04   -0.86017E-01   -0.91525E-01  2288   0.228E+00    0.348E-01
DAV:   3    -0.136750376226E+04   -0.54302E-02   -0.76296E-02  2592   0.460E-01    0.281E-01
DAV:   4    -0.136750272824E+04    0.10340E-02   -0.66970E-03  2592   0.200E-01    0.203E-01
DAV:   5    -0.136750164225E+04    0.10860E-02   -0.38707E-03  2320   0.128E-01    0.832E-02
DAV:   6    -0.136750171249E+04   -0.70242E-04   -0.26255E-03  2384   0.963E-02    0.695E-02
DAV:   7    -0.136750170437E+04    0.81203E-05   -0.10541E-03  2448   0.611E-02    0.481E-02
DAV:   8    -0.136750169842E+04    0.59513E-05   -0.43846E-04  2552   0.391E-02    0.268E-02
DAV:   9    -0.136750169227E+04    0.61454E-05   -0.87086E-05  2368   0.198E-02    0.186E-02
DAV:  10    -0.136750169206E+04    0.20785E-06   -0.44835E-05  2384   0.124E-02    0.949E-03
DAV:  11    -0.136750169218E+04   -0.11221E-06   -0.10517E-05  1776   0.800E-03    0.506E-03
DAV:  12    -0.136750169269E+04   -0.51380E-06   -0.87132E-06  1600   0.587E-03
  17 F= -.13675017E+04 E0= -.13675017E+04  d E =-.166249E+00
 BRION: g(F)=  0.770E-01 g(S)=  0.000E+00 retain N=  3 mean eig= 4.73
 eig:   6.388  6.388  1.403
 bond charge predicted
       N       E                     dE             d eps       ncg     rms          rms(c)
DAV:   1    -0.136756913790E+04   -0.67446E-01   -0.21886E+01  1384   0.665E+00    0.750E-01
DAV:   2    -0.136768142539E+04   -0.11229E+00   -0.11890E+00  2304   0.258E+00    0.382E-01
DAV:   3    -0.136768846424E+04   -0.70388E-02   -0.97318E-02  2584   0.514E-01    0.309E-01
DAV:   4    -0.136768725997E+04    0.12043E-02   -0.82095E-03  2592   0.223E-01    0.230E-01
DAV:   5    -0.136768573580E+04    0.15242E-02   -0.46205E-03  2336   0.141E-01    0.980E-02
DAV:   6    -0.136768576001E+04   -0.24209E-04   -0.36358E-03  2296   0.112E-01    0.754E-02
DAV:   7    -0.136768577061E+04   -0.10598E-04   -0.15063E-03  2456   0.729E-02    0.570E-02
DAV:   8    -0.136768575843E+04    0.12176E-04   -0.53112E-04  2544   0.445E-02    0.310E-02
DAV:   9    -0.136768574713E+04    0.11302E-04   -0.14363E-04  2288   0.238E-02    0.193E-02
DAV:  10    -0.136768574927E+04   -0.21354E-05   -0.52641E-05  2408   0.139E-02    0.128E-02
DAV:  11    -0.136768574850E+04    0.76524E-06   -0.18616E-05  2112   0.932E-03    0.661E-03
DAV:  12    -0.136768574877E+04   -0.26420E-06   -0.84611E-06  1744   0.671E-03
  18 F= -.13676857E+04 E0= -.13676857E+04  d E =-.184056E+00
 BRION: g(F)=  0.685E-01 g(S)=  0.000E+00 retain N=  3 mean eig= 5.16
 eig:   7.008  7.008  1.471
 bond charge predicted
       N       E                     dE             d eps       ncg     rms          rms(c)
DAV:   1    -0.136774794657E+04   -0.62198E-01   -0.20069E+01  1384   0.636E+00    0.733E-01
DAV:   2    -0.136785104557E+04   -0.10310E+00   -0.10932E+00  2296   0.249E+00    0.371E-01
DAV:   3    -0.136785748851E+04   -0.64429E-02   -0.89865E-02  2592   0.496E-01    0.301E-01
DAV:   4    -0.136785632525E+04    0.11633E-02   -0.78689E-03  2592   0.216E-01    0.221E-01
DAV:   5    -0.136785496164E+04    0.13636E-02   -0.43511E-03  2336   0.137E-01    0.939E-02
DAV:   6    -0.136785500106E+04   -0.39420E-04   -0.33765E-03  2328   0.110E-01    0.737E-02
DAV:   7    -0.136785500989E+04   -0.88343E-05   -0.14459E-03  2456   0.709E-02    0.561E-02
DAV:   8    -0.136785499847E+04    0.11424E-04   -0.52088E-04  2520   0.433E-02    0.299E-02
DAV:   9    -0.136785498888E+04    0.95916E-05   -0.13200E-04  2312   0.231E-02    0.192E-02
DAV:  10    -0.136785499027E+04   -0.13897E-05   -0.50482E-05  2360   0.135E-02    0.124E-02
DAV:  11    -0.136785498978E+04    0.48726E-06   -0.17825E-05  2144   0.921E-03    0.660E-03
DAV:  12    -0.136785498997E+04   -0.18814E-06   -0.81576E-06  1728   0.663E-03
  19 F= -.13678550E+04 E0= -.13678550E+04  d E =-.169241E+00
 BRION: g(F)=  0.626E-01 g(S)=  0.000E+00 retain N=  3 mean eig= 4.74
 eig:   1.694  6.269  6.269
 bond charge predicted
       N       E                     dE             d eps       ncg     rms          rms(c)
DAV:   1    -0.136791749721E+04   -0.62507E-01   -0.14142E+01  1376   0.534E+00    0.595E-01
DAV:   2    -0.136799020335E+04   -0.72706E-01   -0.76902E-01  2304   0.208E+00    0.305E-01
DAV:   3    -0.136799479498E+04   -0.45916E-02   -0.62716E-02  2584   0.412E-01    0.249E-01
DAV:   4    -0.136799408679E+04    0.70819E-03   -0.53470E-03  2584   0.178E-01    0.186E-01
DAV:   5    -0.136799316031E+04    0.92649E-03   -0.28415E-03  2360   0.108E-01    0.828E-02
DAV:   6    -0.136799314722E+04    0.13087E-04   -0.22608E-03  2272   0.891E-02    0.591E-02
DAV:   7    -0.136799316257E+04   -0.15346E-04   -0.10953E-03  2448   0.613E-02    0.478E-02
DAV:   8    -0.136799315302E+04    0.95447E-05   -0.37461E-04  2528   0.379E-02    0.283E-02
DAV:   9    -0.136799314521E+04    0.78099E-05   -0.10445E-04  2400   0.200E-02    0.168E-02
DAV:  10    -0.136799314685E+04   -0.16412E-05   -0.37517E-05  2392   0.115E-02    0.109E-02
DAV:  11    -0.136799314680E+04    0.54381E-07   -0.11049E-05  1672   0.776E-03    0.777E-03
DAV:  12    -0.136799314644E+04    0.36162E-06   -0.90969E-06  1608   0.702E-03
  20 F= -.13679931E+04 E0= -.13679931E+04  d E =-.138156E+00
 BRION: g(F)=  0.585E-01 g(S)=  0.000E+00 retain N=  3 mean eig= 5.56
 eig:   7.280  7.280  2.129
