 running on  160 total cores
 distrk:  each k-point on  160 cores,    1 groups
 distr:  one band on   20 cores,    8 groups
 using from now: INCAR     
 vasp.5.4.4.18Apr17-6-g9f103f2a35 (build May 01 2020 14:22:42) gamma-only       
  
 POSCAR found type information on POSCAR  O  La Zr Li Al
 POSCAR found :  5 types and     190 ions
 scaLAPACK will be used
 LDA part: xc-table for Pade appr. of Perdew
 POSCAR, INCAR and KPOINTS ok, starting setup
 FFT: planning ...
 WAVECAR not read
 WARNING: random wavefunctions but no delay for mixing, default for NELMDL
 entering main loop
       N       E                     dE             d eps       ncg     rms          rms(c)
DAV:   1     0.252868475126E+05    0.25287E+05   -0.42308E+05  1616   0.253E+03
DAV:   2     0.952006618387E+04   -0.15767E+05   -0.14555E+05  1416   0.709E+02
DAV:   3     0.269737426802E+04   -0.68227E+04   -0.62260E+04  1536   0.355E+02
DAV:   4    -0.371979858489E+03   -0.30694E+04   -0.28748E+04  2040   0.225E+02
DAV:   5    -0.141628303113E+04   -0.10443E+04   -0.10056E+04  2536   0.139E+02    0.116E+02
DAV:   6    -0.130662982591E+04    0.10965E+03   -0.14720E+03  2408   0.663E+01    0.504E+01
DAV:   7    -0.132954684249E+04   -0.22917E+02   -0.40015E+02  2544   0.338E+01    0.253E+01
DAV:   8    -0.133713054131E+04   -0.75837E+01   -0.25828E+02  2520   0.272E+01    0.252E+01
DAV:   9    -0.133139205519E+04    0.57385E+01   -0.49492E+01  2544   0.144E+01    0.808E+00
DAV:  10    -0.133214255162E+04   -0.75050E+00   -0.16568E+01  2608   0.776E+00    0.723E+00
DAV:  11    -0.133252940218E+04   -0.38685E+00   -0.63854E+00  2624   0.424E+00    0.445E+00
DAV:  12    -0.133234785157E+04    0.18155E+00   -0.27633E+00  2560   0.362E+00    0.302E+00
DAV:  13    -0.133241302976E+04   -0.65178E-01   -0.92029E-01  2536   0.174E+00    0.201E+00
DAV:  14    -0.133239911441E+04    0.13915E-01   -0.25525E-01  2616   0.106E+00    0.112E+00
DAV:  15    -0.133240509065E+04   -0.59762E-02   -0.10958E-01  2584   0.616E-01    0.873E-01
DAV:  16    -0.133240501174E+04    0.78902E-04   -0.30562E-02  2608   0.355E-01    0.552E-01
DAV:  17    -0.133240424617E+04    0.76558E-03   -0.24974E-02  2360   0.287E-01    0.329E-01
DAV:  18    -0.133240455274E+04   -0.30657E-03   -0.47343E-03  2456   0.149E-01    0.105E-01
DAV:  19    -0.133240461528E+04   -0.62544E-04   -0.17602E-03  2624   0.810E-02    0.106E-01
DAV:  20    -0.133240466395E+04   -0.48670E-04   -0.53852E-04  2624   0.417E-02    0.365E-02
DAV:  21    -0.133240467901E+04   -0.15056E-04   -0.18125E-04  2616   0.233E-02    0.322E-02
DAV:  22    -0.133240469541E+04   -0.16398E-04   -0.76151E-05  2536   0.154E-02    0.162E-02
DAV:  23    -0.133240469451E+04    0.90290E-06   -0.29918E-05  1632   0.977E-03    0.118E-02
DAV:  24    -0.133240469736E+04   -0.28503E-05   -0.22489E-05  1824   0.906E-03    0.530E-03
DAV:  25    -0.133240469833E+04   -0.97349E-06   -0.45485E-06  1048   0.537E-03
   1 F= -.13324047E+04 E0= -.13324047E+04  d E =-.133240E+04
 BRION: g(F)=  0.452E+02 g(S)=  0.000E+00
 bond charge predicted
       N       E                     dE             d eps       ncg     rms          rms(c)
DAV:   1    -0.131406564568E+04    0.18339E+02   -0.58216E+03  1688   0.115E+02    0.208E+01
DAV:   2    -0.135477656588E+04   -0.40711E+02   -0.47700E+02  2584   0.512E+01    0.118E+01
DAV:   3    -0.135395266803E+04    0.82390E+00   -0.28367E+01  2624   0.136E+01    0.833E+00
DAV:   4    -0.135230417658E+04    0.16485E+01   -0.75420E+00  2472   0.587E+00    0.428E+00
DAV:   5    -0.135186966645E+04    0.43451E+00   -0.25498E+00  2488   0.397E+00    0.270E+00
DAV:   6    -0.135179427605E+04    0.75390E-01   -0.26934E+00  2544   0.321E+00    0.134E+00
DAV:   7    -0.135181771747E+04   -0.23441E-01   -0.63906E-01  2528   0.166E+00    0.121E+00
DAV:   8    -0.135181303340E+04    0.46841E-02   -0.21631E-01  2624   0.808E-01    0.597E-01
DAV:   9    -0.135181091758E+04    0.21158E-02   -0.30919E-02  2624   0.440E-01    0.308E-01
DAV:  10    -0.135180989096E+04    0.10266E-02   -0.16509E-02  2528   0.318E-01    0.157E-01
DAV:  11    -0.135181100176E+04   -0.11108E-02   -0.12347E-02  2592   0.214E-01    0.175E-01
DAV:  12    -0.135181076228E+04    0.23949E-03   -0.34334E-03  2608   0.118E-01    0.493E-02
DAV:  13    -0.135181085317E+04   -0.90899E-04   -0.12778E-03  2616   0.689E-02    0.418E-02
DAV:  14    -0.135181085186E+04    0.13154E-05   -0.25291E-04  2624   0.365E-02    0.341E-02
DAV:  15    -0.135181084753E+04    0.43261E-05   -0.12377E-04  2536   0.207E-02    0.152E-02
DAV:  16    -0.135181084869E+04   -0.11576E-05   -0.27027E-05  2576   0.109E-02    0.112E-02
DAV:  17    -0.135181084798E+04    0.71219E-06   -0.10959E-05  1912   0.710E-03    0.468E-03
DAV:  18    -0.135181084808E+04   -0.99200E-07   -0.61220E-06  1472   0.572E-03
   2 F= -.13518108E+04 E0= -.13518108E+04  d E =-.194061E+02
 BRION: g(F)=  0.184E+02 g(S)=  0.000E+00 retain N=  1 mean eig= 0.67
 eig:   0.673
 bond charge predicted
       N       E                     dE             d eps       ncg     rms          rms(c)
DAV:   1    -0.134698505061E+04    0.48258E+01   -0.16034E+03  1432   0.560E+01    0.108E+01
DAV:   2    -0.135710935709E+04   -0.10124E+02   -0.12473E+02  2520   0.247E+01    0.959E+00
DAV:   3    -0.135748588861E+04   -0.37653E+00   -0.95139E+00  2584   0.704E+00    0.760E+00
DAV:   4    -0.135715155282E+04    0.33434E+00   -0.25638E+00  2584   0.326E+00    0.457E+00
DAV:   5    -0.135699719157E+04    0.15436E+00   -0.11618E+00  2152   0.280E+00    0.275E+00
DAV:   6    -0.135693732526E+04    0.59866E-01   -0.12186E+00  2480   0.200E+00    0.160E+00
DAV:   7    -0.135694115099E+04   -0.38257E-02   -0.33797E-01  2520   0.111E+00    0.965E-01
DAV:   8    -0.135693970306E+04    0.14479E-02   -0.49187E-02  2624   0.450E-01    0.744E-01
DAV:   9    -0.135693650183E+04    0.32012E-02   -0.25703E-02  2504   0.310E-01    0.505E-01
DAV:  10    -0.135693394390E+04    0.25579E-02   -0.14339E-02  2368   0.247E-01    0.312E-01
DAV:  11    -0.135693378301E+04    0.16090E-03   -0.13974E-02  2384   0.192E-01    0.103E-01
DAV:  12    -0.135693373660E+04    0.46407E-04   -0.14632E-03  2568   0.896E-02    0.602E-02
DAV:  13    -0.135693379786E+04   -0.61254E-04   -0.75232E-04  2536   0.498E-02    0.473E-02
DAV:  14    -0.135693377262E+04    0.25232E-04   -0.20077E-04  2520   0.329E-02    0.263E-02
DAV:  15    -0.135693378118E+04   -0.85595E-05   -0.15454E-04  2504   0.213E-02    0.149E-02
DAV:  16    -0.135693377786E+04    0.33210E-05   -0.21367E-05  2184   0.111E-02    0.624E-03
DAV:  17    -0.135693377826E+04   -0.39973E-06   -0.87819E-06  1696   0.645E-03
   3 F= -.13569338E+04 E0= -.13569338E+04  d E =-.512293E+01
 BRION: g(F)=  0.526E+01 g(S)=  0.000E+00 retain N=  2 mean eig= 0.66
 eig:   0.440  0.888
 bond charge predicted
       N       E                     dE             d eps       ncg     rms          rms(c)
DAV:   1    -0.135821504266E+04   -0.12813E+01   -0.35063E+02  1392   0.268E+01    0.566E+00
DAV:   2    -0.135999318184E+04   -0.17781E+01   -0.20134E+01  2304   0.105E+01    0.246E+00
DAV:   3    -0.136004780592E+04   -0.54624E-01   -0.17115E+00  2624   0.251E+00    0.202E+00
DAV:   4    -0.135999228738E+04    0.55519E-01   -0.42276E-01  2584   0.136E+00    0.996E-01
DAV:   5    -0.135998587132E+04    0.64161E-02   -0.13136E-01  2392   0.805E-01    0.656E-01
DAV:   6    -0.135998406278E+04    0.18085E-02   -0.97483E-02  2600   0.585E-01    0.332E-01
DAV:   7    -0.135998438384E+04   -0.32106E-03   -0.24206E-02  2408   0.311E-01    0.264E-01
DAV:   8    -0.135998411177E+04    0.27207E-03   -0.79256E-03  2504   0.160E-01    0.140E-01
DAV:   9    -0.135998403294E+04    0.78824E-04   -0.26079E-03  2616   0.105E-01    0.818E-02
DAV:  10    -0.135998413688E+04   -0.10394E-03   -0.14721E-03  2504   0.732E-02    0.876E-02
DAV:  11    -0.135998406275E+04    0.74134E-04   -0.73971E-04  2520   0.518E-02    0.344E-02
DAV:  12    -0.135998406732E+04   -0.45664E-05   -0.26999E-04  2504   0.314E-02    0.188E-02
DAV:  13    -0.135998407009E+04   -0.27750E-05   -0.57203E-05  2576   0.158E-02    0.115E-02
DAV:  14    -0.135998407061E+04   -0.51763E-06   -0.17921E-05  2136   0.812E-03    0.518E-03
DAV:  15    -0.135998407068E+04   -0.74666E-07   -0.21776E-06  1072   0.510E-03
   4 F= -.13599841E+04 E0= -.13599841E+04  d E =-.305029E+01
 BRION: g(F)=  0.168E+01 g(S)=  0.000E+00 retain N=  3 mean eig= 1.21
 eig:   0.654  1.483  1.483
 bond charge predicted
       N       E                     dE             d eps       ncg     rms          rms(c)
DAV:   1    -0.136081795458E+04   -0.83388E+00   -0.20866E+02  1352   0.209E+01    0.300E+00
DAV:   2    -0.136183785955E+04   -0.10199E+01   -0.10910E+01  2288   0.790E+00    0.147E+00
DAV:   3    -0.136188207902E+04   -0.44219E-01   -0.82781E-01  2600   0.164E+00    0.120E+00
DAV:   4    -0.136186028016E+04    0.21799E-01   -0.13082E-01  2584   0.792E-01    0.695E-01
DAV:   5    -0.136185404741E+04    0.62328E-02   -0.59501E-02  2368   0.485E-01    0.344E-01
DAV:   6    -0.136185493967E+04   -0.89225E-03   -0.25001E-02  2568   0.320E-01    0.259E-01
DAV:   7    -0.136185451581E+04    0.42386E-03   -0.12663E-02  2456   0.210E-01    0.155E-01
DAV:   8    -0.136185456536E+04   -0.49553E-04   -0.42286E-03  2600   0.125E-01    0.922E-02
DAV:   9    -0.136185451200E+04    0.53360E-04   -0.85845E-04  2616   0.634E-02    0.616E-02
DAV:  10    -0.136185454966E+04   -0.37661E-04   -0.73809E-04  2392   0.453E-02    0.506E-02
DAV:  11    -0.136185451882E+04    0.30842E-04   -0.34872E-04  2528   0.380E-02    0.171E-02
DAV:  12    -0.136185452505E+04   -0.62261E-05   -0.11228E-04  2368   0.227E-02    0.157E-02
DAV:  13    -0.136185452406E+04    0.99179E-06   -0.34031E-05  2360   0.110E-02    0.817E-03
DAV:  14    -0.136185452419E+04   -0.13005E-06   -0.13942E-05  1808   0.718E-03    0.395E-03
DAV:  15    -0.136185452442E+04   -0.23683E-06   -0.11505E-06   992   0.441E-03
   5 F= -.13618545E+04 E0= -.13618545E+04  d E =-.187045E+01
 BRION: g(F)=  0.104E+01 g(S)=  0.000E+00 retain N=  4 mean eig= 1.70
 eig:   2.515  2.515  0.880  0.880
 bond charge predicted
       N       E                     dE             d eps       ncg     rms          rms(c)
DAV:   1    -0.136245154647E+04   -0.59702E+00   -0.10230E+02  1384   0.146E+01    0.191E+00
DAV:   2    -0.136296712515E+04   -0.51558E+00   -0.55015E+00  2280   0.554E+00    0.104E+00
DAV:   3    -0.136299529652E+04   -0.28171E-01   -0.45693E-01  2600   0.118E+00    0.842E-01
DAV:   4    -0.136298593100E+04    0.93655E-02   -0.61527E-02  2592   0.553E-01    0.514E-01
DAV:   5    -0.136298219173E+04    0.37393E-02   -0.27000E-02  2352   0.334E-01    0.228E-01
DAV:   6    -0.136298276889E+04   -0.57716E-03   -0.13623E-02  2504   0.235E-01    0.176E-01
DAV:   7    -0.136298265503E+04    0.11386E-03   -0.70156E-03  2424   0.156E-01    0.116E-01
DAV:   8    -0.136298267893E+04   -0.23900E-04   -0.25132E-03  2576   0.930E-02    0.674E-02
DAV:   9    -0.136298264716E+04    0.31776E-04   -0.43828E-04  2576   0.470E-02    0.472E-02
DAV:  10    -0.136298266340E+04   -0.16245E-04   -0.47390E-04  2304   0.355E-02    0.369E-02
DAV:  11    -0.136298264663E+04    0.16774E-04   -0.19693E-04  2496   0.300E-02    0.126E-02
DAV:  12    -0.136298265102E+04   -0.43894E-05   -0.67822E-05  2376   0.170E-02    0.139E-02
DAV:  13    -0.136298264891E+04    0.21062E-05   -0.24019E-05  2096   0.980E-03    0.649E-03
DAV:  14    -0.136298264896E+04   -0.49127E-07   -0.90097E-06  1760   0.636E-03
   6 F= -.13629826E+04 E0= -.13629826E+04  d E =-.112812E+01
 BRION: g(F)=  0.643E+00 g(S)=  0.000E+00 retain N=  5 mean eig= 2.26
 eig:   4.134  4.134  1.139  1.139  0.769
 bond charge predicted
       N       E                     dE             d eps       ncg     rms          rms(c)
DAV:   1    -0.136338911041E+04   -0.40646E+00   -0.10905E+02  1384   0.150E+01    0.193E+00
DAV:   2    -0.136394567188E+04   -0.55656E+00   -0.58805E+00  2280   0.585E+00    0.964E-01
DAV:   3    -0.136397699067E+04   -0.31319E-01   -0.46849E-01  2600   0.116E+00    0.752E-01
DAV:   4    -0.136396776147E+04    0.92292E-02   -0.57641E-02  2592   0.551E-01    0.445E-01
DAV:   5    -0.136396505298E+04    0.27085E-02   -0.23505E-02  2448   0.308E-01    0.190E-01
DAV:   6    -0.136396573473E+04   -0.68175E-03   -0.10361E-02  2592   0.192E-01    0.126E-01
DAV:   7    -0.136396574911E+04   -0.14380E-04   -0.34010E-03  2416   0.120E-01    0.880E-02
DAV:   8    -0.136396578194E+04   -0.32828E-04   -0.15199E-03  2472   0.704E-02    0.522E-02
DAV:   9    -0.136396576715E+04    0.14782E-04   -0.27691E-04  2584   0.390E-02    0.390E-02
DAV:  10    -0.136396576890E+04   -0.17481E-05   -0.32673E-04  2520   0.311E-02    0.246E-02
DAV:  11    -0.136396576483E+04    0.40764E-05   -0.84978E-05  2512   0.199E-02    0.102E-02
DAV:  12    -0.136396576676E+04   -0.19384E-05   -0.29699E-05  2328   0.111E-02    0.813E-03
DAV:  13    -0.136396576610E+04    0.66825E-06   -0.58009E-06  1408   0.625E-03
   7 F= -.13639658E+04 E0= -.13639658E+04  d E =-.983117E+00
 BRION: g(F)=  0.424E+00 g(S)=  0.000E+00 retain N=  6 mean eig= 2.86
 eig:   5.762  5.762  1.924  1.924  0.891  0.891
 bond charge predicted
       N       E                     dE             d eps       ncg     rms          rms(c)
DAV:   1    -0.136423126160E+04   -0.26549E+00   -0.10514E+02  1376   0.147E+01    0.187E+00
DAV:   2    -0.136477441862E+04   -0.54316E+00   -0.57833E+00  2280   0.579E+00    0.919E-01
DAV:   3    -0.136480799354E+04   -0.33575E-01   -0.47463E-01  2600   0.117E+00    0.740E-01
DAV:   4    -0.136480100455E+04    0.69890E-02   -0.52345E-02  2616   0.533E-01    0.480E-01
DAV:   5    -0.136479693040E+04    0.40741E-02   -0.23475E-02  2384   0.301E-01    0.195E-01
DAV:   6    -0.136479754886E+04   -0.61846E-03   -0.11016E-02  2472   0.199E-01    0.147E-01
DAV:   7    -0.136479753719E+04    0.11674E-04   -0.49378E-03  2472   0.134E-01    0.100E-01
DAV:   8    -0.136479755373E+04   -0.16543E-04   -0.21576E-03  2608   0.864E-02    0.626E-02
DAV:   9    -0.136479753343E+04    0.20298E-04   -0.37574E-04  2552   0.444E-02    0.467E-02
DAV:  10    -0.136479753428E+04   -0.84713E-06   -0.28936E-04  2608   0.291E-02    0.246E-02
DAV:  11    -0.136479753400E+04    0.27820E-06   -0.96837E-05  2488   0.206E-02    0.122E-02
DAV:  12    -0.136479753404E+04   -0.40804E-07   -0.27400E-05  2320   0.126E-02    0.996E-03
DAV:  13    -0.136479753384E+04    0.20313E-06   -0.18787E-05  1968   0.760E-03    0.564E-03
DAV:  14    -0.136479753356E+04    0.27411E-06   -0.20043E-06  1000   0.511E-03
   8 F= -.13647975E+04 E0= -.13647975E+04  d E =-.831767E+00
 BRION: g(F)=  0.297E+00 g(S)=  0.000E+00 retain N=  6 mean eig= 3.13
 eig:   7.095  7.095  1.256  1.256  1.024  1.024
 bond charge predicted
       N       E                     dE             d eps       ncg     rms          rms(c)
DAV:   1    -0.136500579091E+04   -0.20826E+00   -0.80525E+01  1384   0.129E+01    0.161E+00
DAV:   2    -0.136541768962E+04   -0.41190E+00   -0.43739E+00  2280   0.505E+00    0.791E-01
DAV:   3    -0.136544227492E+04   -0.24585E-01   -0.35510E-01  2600   0.100E+00    0.623E-01
DAV:   4    -0.136543572306E+04    0.65519E-02   -0.38188E-02  2584   0.456E-01    0.390E-01
DAV:   5    -0.136543268848E+04    0.30346E-02   -0.18125E-02  2360   0.266E-01    0.151E-01
DAV:   6    -0.136543332688E+04   -0.63840E-03   -0.84278E-03  2536   0.170E-01    0.121E-01
DAV:   7    -0.136543330514E+04    0.21745E-04   -0.27539E-03  2560   0.104E-01    0.813E-02
DAV:   8    -0.136543329716E+04    0.79791E-05   -0.11921E-03  2600   0.653E-02    0.445E-02
DAV:   9    -0.136543329096E+04    0.61976E-05   -0.19279E-04  2544   0.332E-02    0.334E-02
DAV:  10    -0.136543329269E+04   -0.17287E-05   -0.15985E-04  2576   0.226E-02    0.168E-02
DAV:  11    -0.136543329226E+04    0.42602E-06   -0.37774E-05  2456   0.138E-02    0.818E-03
DAV:  12    -0.136543329331E+04   -0.10424E-05   -0.13384E-05  1904   0.786E-03    0.666E-03
DAV:  13    -0.136543329272E+04    0.58395E-06   -0.25766E-06  1072   0.535E-03
   9 F= -.13654333E+04 E0= -.13654333E+04  d E =-.635759E+00
 BRION: g(F)=  0.231E+00 g(S)=  0.000E+00 retain N=  4 mean eig= 4.16
 eig:   6.817  6.817  1.498  1.498
 bond charge predicted
       N       E                     dE             d eps       ncg     rms          rms(c)
DAV:   1    -0.136558363484E+04   -0.15034E+00   -0.73264E+01  1384   0.121E+01    0.148E+00
DAV:   2    -0.136596596501E+04   -0.38233E+00   -0.40693E+00  2296   0.487E+00    0.732E-01
DAV:   3    -0.136598913728E+04   -0.23172E-01   -0.33067E-01  2600   0.941E-01    0.596E-01
DAV:   4    -0.136598405230E+04    0.50850E-02   -0.32361E-02  2592   0.425E-01    0.408E-01
DAV:   5    -0.136597989388E+04    0.41584E-02   -0.16648E-02  2360   0.247E-01    0.155E-01
DAV:   6    -0.136598033134E+04   -0.43746E-03   -0.91196E-03  2440   0.173E-01    0.128E-01
DAV:   7    -0.136598030679E+04    0.24550E-04   -0.39352E-03  2464   0.116E-01    0.879E-02
DAV:   8    -0.136598029449E+04    0.12295E-04   -0.14831E-03  2592   0.730E-02    0.529E-02
DAV:   9    -0.136598028034E+04    0.14149E-04   -0.29774E-04  2496   0.372E-02    0.388E-02
DAV:  10    -0.136598028219E+04   -0.18449E-05   -0.16313E-04  2584   0.227E-02    0.211E-02
DAV:  11    -0.136598028271E+04   -0.51901E-06   -0.55970E-05  2424   0.163E-02    0.122E-02
DAV:  12    -0.136598028252E+04    0.18741E-06   -0.26480E-05  2304   0.113E-02    0.992E-03
DAV:  13    -0.136598028206E+04    0.46025E-06   -0.14840E-05  1848   0.713E-03    0.541E-03
DAV:  14    -0.136598028177E+04    0.28833E-06   -0.28576E-06  1104   0.526E-03
  10 F= -.13659803E+04 E0= -.13659803E+04  d E =-.546989E+00
 BRION: g(F)=  0.190E+00 g(S)=  0.000E+00 retain N=  4 mean eig= 4.67
 eig:   7.358  7.358  1.992  1.992
 bond charge predicted
       N       E                     dE             d eps       ncg     rms          rms(c)
DAV:   1    -0.136611931042E+04   -0.13903E+00   -0.56821E+01  1376   0.107E+01    0.125E+00
DAV:   2    -0.136641001624E+04   -0.29071E+00   -0.30751E+00  2304   0.420E+00    0.640E-01
DAV:   3    -0.136642633090E+04   -0.16315E-01   -0.24118E-01  2600   0.813E-01    0.516E-01
DAV:   4    -0.136642227757E+04    0.40533E-02   -0.23293E-02  2592   0.355E-01    0.360E-01
DAV:   5    -0.136641843461E+04    0.38430E-02   -0.11517E-02  2320   0.216E-01    0.141E-01
DAV:   6    -0.136641863023E+04   -0.19563E-03   -0.80891E-03  2344   0.164E-01    0.105E-01
DAV:   7    -0.136641866949E+04   -0.39260E-04   -0.32245E-03  2352   0.102E-01    0.822E-02
DAV:   8    -0.136641864383E+04    0.25667E-04   -0.11168E-03  2624   0.627E-02    0.460E-02
DAV:   9    -0.136641863019E+04    0.13636E-04   -0.29253E-04  2512   0.350E-02    0.309E-02
DAV:  10    -0.136641863489E+04   -0.47004E-05   -0.11355E-04  2536   0.202E-02    0.209E-02
DAV:  11    -0.136641863326E+04    0.16375E-05   -0.47125E-05  2456   0.145E-02    0.117E-02
DAV:  12    -0.136641863329E+04   -0.38388E-07   -0.26354E-05  2264   0.107E-02    0.992E-03
DAV:  13    -0.136641863253E+04    0.76706E-06   -0.11045E-05  1792   0.667E-03    0.538E-03
DAV:  14    -0.136641863251E+04    0.12646E-07   -0.68755E-06  1576   0.534E-03
  11 F= -.13664186E+04 E0= -.13664186E+04  d E =-.438351E+00
 BRION: g(F)=  0.164E+00 g(S)=  0.000E+00 retain N=  3 mean eig= 4.63
 eig:   5.920  5.920  2.038
 bond charge predicted
       N       E                     dE             d eps       ncg     rms          rms(c)
DAV:   1    -0.136652190094E+04   -0.10327E+00   -0.54227E+01  1376   0.104E+01    0.125E+00
DAV:   2    -0.136680205133E+04   -0.28015E+00   -0.29745E+00  2296   0.412E+00    0.639E-01
DAV:   3    -0.136681773088E+04   -0.15680E-01   -0.23604E-01  2600   0.797E-01    0.515E-01
DAV:   4    -0.136681329066E+04    0.44402E-02   -0.24529E-02  2576   0.362E-01    0.340E-01
DAV:   5    -0.136681015902E+04    0.31316E-02   -0.11669E-02  2336   0.215E-01    0.130E-01
DAV:   6    -0.136681047860E+04   -0.31958E-03   -0.68681E-03  2424   0.152E-01    0.103E-01
DAV:   7    -0.136681045903E+04    0.19571E-04   -0.25219E-03  2432   0.955E-02    0.739E-02
DAV:   8    -0.136681045748E+04    0.15460E-05   -0.10656E-03  2584   0.594E-02    0.423E-02
DAV:   9    -0.136681044793E+04    0.95535E-05   -0.21461E-04  2448   0.317E-02    0.321E-02
DAV:  10    -0.136681044789E+04    0.38577E-07   -0.12613E-04  2512   0.205E-02    0.191E-02
DAV:  11    -0.136681044715E+04    0.73850E-06   -0.46058E-05  2360   0.145E-02    0.988E-03
DAV:  12    -0.136681044759E+04   -0.44018E-06   -0.19501E-05  2216   0.973E-03    0.859E-03
DAV:  13    -0.136681044700E+04    0.59555E-06   -0.10020E-05  1712   0.629E-03    0.423E-03
DAV:  14    -0.136681044696E+04    0.37049E-07   -0.33882E-06  1176   0.520E-03
  12 F= -.13668104E+04 E0= -.13668104E+04  d E =-.391814E+00
 BRION: g(F)=  0.140E+00 g(S)=  0.000E+00 retain N=  3 mean eig= 5.16
 eig:   6.812  6.812  1.863
 bond charge predicted
       N       E                     dE             d eps       ncg     rms          rms(c)
DAV:   1    -0.136690963523E+04   -0.99188E-01   -0.37888E+01  1384   0.870E+00    0.999E-01
DAV:   2    -0.136710325851E+04   -0.19362E+00   -0.20471E+00  2304   0.342E+00    0.520E-01
DAV:   3    -0.136711430331E+04   -0.11045E-01   -0.16267E-01  2600   0.660E-01    0.421E-01
DAV:   4    -0.136711168340E+04    0.26199E-02   -0.15172E-02  2584   0.288E-01    0.295E-01
DAV:   5    -0.136710918497E+04    0.24984E-02   -0.76018E-03  2320   0.171E-01    0.117E-01
DAV:   6    -0.136710926940E+04   -0.84426E-04   -0.51812E-03  2352   0.131E-01    0.852E-02
DAV:   7    -0.136710928876E+04   -0.19362E-04   -0.22206E-03  2416   0.862E-02    0.654E-02
DAV:   8    -0.136710927757E+04    0.11192E-04   -0.76075E-04  2592   0.526E-02    0.397E-02
DAV:   9    -0.136710926773E+04    0.98382E-05   -0.19088E-04  2496   0.283E-02    0.270E-02
DAV:  10    -0.136710926914E+04   -0.14133E-05   -0.82533E-05  2552   0.166E-02    0.163E-02
DAV:  11    -0.136710926990E+04   -0.75718E-06   -0.30531E-05  2360   0.119E-02    0.107E-02
DAV:  12    -0.136710926913E+04    0.76454E-06   -0.19240E-05  2184   0.935E-03    0.863E-03
DAV:  13    -0.136710926864E+04    0.49302E-06   -0.97111E-06  1768   0.621E-03
  13 F= -.13671093E+04 E0= -.13671093E+04  d E =-.298822E+00
 BRION: g(F)=  0.121E+00 g(S)=  0.000E+00 retain N=  3 mean eig= 4.85
 eig:   6.447  6.447  1.647
 bond charge predicted
       N       E                     dE             d eps       ncg     rms          rms(c)
DAV:   1    -0.136721383907E+04   -0.10457E+00   -0.17767E+01  1368   0.598E+00    0.703E-01
DAV:   2    -0.136730347402E+04   -0.89635E-01   -0.94404E-01  2288   0.233E+00    0.360E-01
DAV:   3    -0.136730849360E+04   -0.50196E-02   -0.74700E-02  2600   0.456E-01    0.286E-01
DAV:   4    -0.136730705213E+04    0.14415E-02   -0.73291E-03  2576   0.198E-01    0.191E-01
DAV:   5    -0.136730602255E+04    0.10296E-02   -0.39034E-03  2304   0.125E-01    0.686E-02
DAV:   6    -0.136730616060E+04   -0.13806E-03   -0.22604E-03  2464   0.871E-02    0.600E-02
DAV:   7    -0.136730615158E+04    0.90223E-05   -0.74408E-04  2472   0.518E-02    0.419E-02
DAV:   8    -0.136730614592E+04    0.56635E-05   -0.29354E-04  2560   0.321E-02    0.223E-02
DAV:   9    -0.136730614429E+04    0.16289E-05   -0.51928E-05  2456   0.163E-02    0.167E-02
DAV:  10    -0.136730614444E+04   -0.14713E-06   -0.32140E-05  2456   0.106E-02    0.922E-03
DAV:  11    -0.136730614404E+04    0.39337E-06   -0.77206E-06  1568   0.728E-03
  14 F= -.13673061E+04 E0= -.13673061E+04  d E =-.196875E+00
 BRION: g(F)=  0.110E+00 g(S)=  0.000E+00 retain N=  3 mean eig= 4.25
 eig:   5.632  5.632  1.486
 bond charge predicted
       N       E                     dE             d eps       ncg     rms          rms(c)
DAV:   1    -0.136740915294E+04   -0.10301E+00   -0.19155E+01  1368   0.621E+00    0.701E-01
DAV:   2    -0.136750526709E+04   -0.96114E-01   -0.10121E+00  2280   0.240E+00    0.358E-01
DAV:   3    -0.136751111549E+04   -0.58484E-02   -0.81784E-02  2600   0.474E-01    0.291E-01
DAV:   4    -0.136750999423E+04    0.11213E-02   -0.70336E-03  2592   0.198E-01    0.211E-01
DAV:   5    -0.136750867155E+04    0.13227E-02   -0.43277E-03  2224   0.130E-01    0.784E-02
DAV:   6    -0.136750881466E+04   -0.14311E-03   -0.29498E-03  2400   0.977E-02    0.723E-02
DAV:   7    -0.136750879774E+04    0.16921E-04   -0.10419E-03  2408   0.594E-02    0.492E-02
DAV:   8    -0.136750878503E+04    0.12716E-04   -0.36183E-04  2576   0.367E-02    0.253E-02
DAV:   9    -0.136750878164E+04    0.33830E-05   -0.75184E-05  2264   0.185E-02    0.175E-02
DAV:  10    -0.136750878280E+04   -0.11595E-05   -0.29122E-05  2288   0.105E-02    0.899E-03
DAV:  11    -0.136750878248E+04    0.32468E-06   -0.55619E-06  1368   0.696E-03
  15 F= -.13675088E+04 E0= -.13675088E+04  d E =-.202638E+00
 BRION: g(F)=  0.102E+00 g(S)=  0.000E+00 retain N=  3 mean eig= 4.12
 eig:   5.426  5.426  1.519
 bond charge predicted
       N       E                     dE             d eps       ncg     rms          rms(c)
DAV:   1    -0.136760209399E+04   -0.93311E-01   -0.29252E+01  1368   0.767E+00    0.867E-01
DAV:   2    -0.136774947916E+04   -0.14739E+00   -0.15454E+00  2312   0.297E+00    0.445E-01
DAV:   3    -0.136775768596E+04   -0.82068E-02   -0.11827E-01  2600   0.575E-01    0.353E-01
DAV:   4    -0.136775570943E+04    0.19765E-02   -0.10837E-02  2592   0.243E-01    0.245E-01
DAV:   5    -0.136775394535E+04    0.17641E-02   -0.61408E-03  2240   0.155E-01    0.867E-02
DAV:   6    -0.136775417165E+04   -0.22630E-03   -0.37012E-03  2416   0.108E-01    0.772E-02
DAV:   7    -0.136775415670E+04    0.14948E-04   -0.11810E-03  2440   0.641E-02    0.533E-02
DAV:   8    -0.136775414429E+04    0.12411E-04   -0.47042E-04  2552   0.409E-02    0.287E-02
DAV:   9    -0.136775414133E+04    0.29569E-05   -0.85320E-05  2392   0.207E-02    0.212E-02
DAV:  10    -0.136775414163E+04   -0.29163E-06   -0.48514E-05  2472   0.131E-02    0.105E-02
DAV:  11    -0.136775414155E+04    0.78740E-07   -0.94076E-06  1720   0.816E-03
  16 F= -.13677541E+04 E0= -.13677541E+04  d E =-.245359E+00
 BRION: g(F)=  0.945E-01 g(S)=  0.000E+00 retain N=  3 mean eig= 4.16
 eig:   5.444  5.444  1.597
 bond charge predicted
       N       E                     dE             d eps       ncg     rms          rms(c)
DAV:   1    -0.136784781147E+04   -0.93670E-01   -0.23642E+01  1376   0.689E+00    0.778E-01
DAV:   2    -0.136796572664E+04   -0.11792E+00   -0.12389E+00  2296   0.265E+00    0.393E-01
DAV:   3    -0.136797292179E+04   -0.71952E-02   -0.99557E-02  2592   0.520E-01    0.317E-01
DAV:   4    -0.136797157955E+04    0.13422E-02   -0.84744E-03  2592   0.216E-01    0.230E-01
DAV:   5    -0.136796996441E+04    0.16151E-02   -0.51334E-03  2240   0.145E-01    0.846E-02
DAV:   6    -0.136797014790E+04   -0.18350E-03   -0.35982E-03  2424   0.108E-01    0.764E-02
DAV:   7    -0.136797013037E+04    0.17535E-04   -0.11186E-03  2440   0.631E-02    0.536E-02
DAV:   8    -0.136797011396E+04    0.16409E-04   -0.41634E-04  2568   0.388E-02    0.270E-02
DAV:   9    -0.136797010962E+04    0.43405E-05   -0.88943E-05  2232   0.202E-02    0.186E-02
DAV:  10    -0.136797011103E+04   -0.14128E-05   -0.30156E-05  2304   0.110E-02    0.103E-02
DAV:  11    -0.136797011066E+04    0.36893E-06   -0.97512E-06  1712   0.720E-03
  17 F= -.13679701E+04 E0= -.13679701E+04  d E =-.215969E+00
 BRION: g(F)=  0.875E-01 g(S)=  0.000E+00 retain N=  3 mean eig= 4.93
 eig:   6.438  6.438  1.910
 bond charge predicted
       N       E                     dE             d eps       ncg     rms          rms(c)
DAV:   1    -0.136806251297E+04   -0.92402E-01   -0.21884E+01  1376   0.664E+00    0.742E-01
DAV:   2    -0.136817243477E+04   -0.10992E+00   -0.11548E+00  2288   0.255E+00    0.378E-01
DAV:   3    -0.136817923762E+04   -0.68029E-02   -0.93222E-02  2592   0.505E-01    0.305E-01
DAV:   4    -0.136817810522E+04    0.11324E-02   -0.77981E-03  2584   0.208E-01    0.228E-01
DAV:   5    -0.136817654950E+04    0.15557E-02   -0.45038E-03  2256   0.134E-01    0.898E-02
DAV:   6    -0.136817665035E+04   -0.10084E-03   -0.34129E-03  2344   0.103E-01    0.713E-02
DAV:   7    -0.136817664583E+04    0.45195E-05   -0.12113E-03  2416   0.641E-02    0.521E-02
DAV:   8    -0.136817663218E+04    0.13649E-04   -0.45765E-04  2552   0.415E-02    0.294E-02
DAV:   9    -0.136817662684E+04    0.53429E-05   -0.10463E-04  2304   0.211E-02    0.198E-02
DAV:  10    -0.136817662788E+04   -0.10445E-05   -0.41645E-05  2400   0.122E-02    0.107E-02
DAV:  11    -0.136817662764E+04    0.23496E-06   -0.72983E-06  1512   0.734E-03
  18 F= -.13681766E+04 E0= -.13681766E+04  d E =-.206517E+00
 BRION: g(F)=  0.813E-01 g(S)=  0.000E+00 retain N=  3 mean eig= 5.73
 eig:   7.568  7.568  2.060
 bond charge predicted
       N       E                     dE             d eps       ncg     rms          rms(c)
DAV:   1    -0.136825735744E+04   -0.80730E-01   -0.27330E+01  1376   0.742E+00    0.849E-01
DAV:   2    -0.136839561430E+04   -0.13826E+00   -0.14535E+00  2296   0.286E+00    0.430E-01
DAV:   3    -0.136840339063E+04   -0.77763E-02   -0.11217E-01  2576   0.575E-01    0.342E-01
DAV:   4    -0.136840164392E+04    0.17467E-02   -0.10786E-02  2576   0.240E-01    0.240E-01
DAV:   5    -0.136839999279E+04    0.16511E-02   -0.55767E-03  2336   0.152E-01    0.929E-02
DAV:   6    -0.136840013532E+04   -0.14252E-03   -0.36425E-03  2408   0.110E-01    0.736E-02
DAV:   7    -0.136840013453E+04    0.79042E-06   -0.12851E-03  2432   0.683E-02    0.536E-02
DAV:   8    -0.136840012550E+04    0.90235E-05   -0.50945E-04  2576   0.425E-02    0.303E-02
DAV:   9    -0.136840012153E+04    0.39769E-05   -0.11063E-04  2408   0.222E-02    0.212E-02
DAV:  10    -0.136840012218E+04   -0.65097E-06   -0.54878E-05  2464   0.142E-02    0.122E-02
DAV:  11    -0.136840012174E+04    0.43467E-06   -0.14903E-05  1952   0.926E-03    0.590E-03
DAV:  12    -0.136840012229E+04   -0.54543E-06   -0.10994E-05  1800   0.657E-03    0.513E-03
DAV:  13    -0.136840012183E+04    0.45639E-06   -0.15421E-06  1000   0.466E-03
  19 F= -.13684001E+04 E0= -.13684001E+04  d E =-.223494E+00
 BRION: g(F)=  0.745E-01 g(S)=  0.000E+00 retain N=  2 mean eig= 4.04
 eig:   4.044  4.044
 bond charge predicted
       N       E                     dE             d eps       ncg     rms          rms(c)
DAV:   1    -0.136845906169E+04   -0.58939E-01   -0.31523E+01  1376   0.800E+00    0.906E-01
DAV:   2    -0.136861962757E+04   -0.16057E+00   -0.16996E+00  2288   0.308E+00    0.465E-01
DAV:   3    -0.136862965899E+04   -0.10031E-01   -0.14015E-01  2584   0.633E-01    0.381E-01
DAV:   4    -0.136862800525E+04    0.16537E-02   -0.12474E-02  2584   0.263E-01    0.283E-01
DAV:   5    -0.136862576593E+04    0.22393E-02   -0.63385E-03  2376   0.162E-01    0.128E-01
DAV:   6    -0.136862568424E+04    0.81684E-04   -0.55547E-03  2208   0.142E-01    0.876E-02
DAV:   7    -0.136862573344E+04   -0.49198E-04   -0.27511E-03  2392   0.958E-02    0.750E-02
DAV:   8    -0.136862571017E+04    0.23275E-04   -0.73279E-04  2560   0.550E-02    0.487E-02
DAV:   9    -0.136862568727E+04    0.22893E-04   -0.30555E-04  2528   0.320E-02    0.248E-02
DAV:  10    -0.136862569348E+04   -0.62054E-05   -0.89609E-05  2536   0.192E-02    0.172E-02
DAV:  11    -0.136862569550E+04   -0.20170E-05   -0.27707E-05  2272   0.113E-02    0.136E-02
DAV:  12    -0.136862569319E+04    0.23071E-05   -0.27817E-05  2008   0.108E-02    0.107E-02
DAV:  13    -0.136862569262E+04    0.56670E-06   -0.16832E-05  1928   0.780E-03    0.690E-03
DAV:  14    -0.136862569206E+04    0.56638E-06   -0.30752E-06  1112   0.502E-03
  20 F= -.13686257E+04 E0= -.13686257E+04  d E =-.225570E+00
 BRION: g(F)=  0.646E-01 g(S)=  0.000E+00 retain N=  2 mean eig= 4.12
 eig:   4.123  4.123
