 running on  160 total cores
 distrk:  each k-point on  160 cores,    1 groups
 distr:  one band on   20 cores,    8 groups
 using from now: INCAR     
 vasp.5.4.4.18Apr17-6-g9f103f2a35 (build May 01 2020 14:22:42) gamma-only       
  
 POSCAR found type information on POSCAR  O  La Zr Li Al
 POSCAR found :  5 types and     190 ions
 scaLAPACK will be used
 LDA part: xc-table for Pade appr. of Perdew
 POSCAR, INCAR and KPOINTS ok, starting setup
 FFT: planning ...
 WAVECAR not read
 WARNING: random wavefunctions but no delay for mixing, default for NELMDL
 entering main loop
       N       E                     dE             d eps       ncg     rms          rms(c)
DAV:   1     0.253032819422E+05    0.25303E+05   -0.42100E+05  1576   0.253E+03
DAV:   2     0.943496269082E+04   -0.15868E+05   -0.14607E+05  1424   0.709E+02
DAV:   3     0.270373376843E+04   -0.67312E+04   -0.61229E+04  1496   0.357E+02
DAV:   4    -0.377986350479E+03   -0.30817E+04   -0.28737E+04  2048   0.221E+02
DAV:   5    -0.141549558723E+04   -0.10375E+04   -0.10029E+04  2536   0.142E+02    0.116E+02
DAV:   6    -0.130111887818E+04    0.11438E+03   -0.14447E+03  2440   0.664E+01    0.504E+01
DAV:   7    -0.132337260042E+04   -0.22254E+02   -0.39585E+02  2568   0.344E+01    0.255E+01
DAV:   8    -0.133110001066E+04   -0.77274E+01   -0.26310E+02  2544   0.273E+01    0.257E+01
DAV:   9    -0.132484029529E+04    0.62597E+01   -0.49998E+01  2536   0.146E+01    0.826E+00
DAV:  10    -0.132554874057E+04   -0.70845E+00   -0.17295E+01  2624   0.792E+00    0.713E+00
DAV:  11    -0.132590343034E+04   -0.35469E+00   -0.53742E+00  2624   0.420E+00    0.444E+00
DAV:  12    -0.132575177684E+04    0.15165E+00   -0.23135E+00  2552   0.331E+00    0.315E+00
DAV:  13    -0.132579280322E+04   -0.41026E-01   -0.75510E-01  2576   0.168E+00    0.182E+00
DAV:  14    -0.132578716284E+04    0.56404E-02   -0.19942E-01  2624   0.928E-01    0.120E+00
DAV:  15    -0.132579053635E+04   -0.33735E-02   -0.71500E-02  2576   0.519E-01    0.835E-01
DAV:  16    -0.132579085032E+04   -0.31397E-03   -0.23439E-02  2624   0.289E-01    0.482E-01
DAV:  17    -0.132579057592E+04    0.27440E-03   -0.16984E-02  2336   0.247E-01    0.261E-01
DAV:  18    -0.132579080853E+04   -0.23262E-03   -0.35362E-03  2488   0.120E-01    0.103E-01
DAV:  19    -0.132579080080E+04    0.77307E-05   -0.17362E-03  2576   0.841E-02    0.721E-02
DAV:  20    -0.132579084218E+04   -0.41381E-04   -0.47421E-04  2536   0.418E-02    0.171E-02
DAV:  21    -0.132579085416E+04   -0.11972E-04   -0.15441E-04  2584   0.234E-02    0.295E-02
DAV:  22    -0.132579086957E+04   -0.15410E-04   -0.54183E-05  2440   0.146E-02    0.843E-03
DAV:  23    -0.132579086718E+04    0.23827E-05   -0.24275E-05  1992   0.923E-03    0.893E-03
DAV:  24    -0.132579087206E+04   -0.48759E-05   -0.82469E-06  1232   0.736E-03    0.281E-03
DAV:  25    -0.132579087182E+04    0.23689E-06   -0.34659E-06   984   0.477E-03
   1 F= -.13257909E+04 E0= -.13257907E+04  d E =-.132579E+04
 BRION: g(F)=  0.659E+02 g(S)=  0.000E+00
 bond charge predicted
       N       E                     dE             d eps       ncg     rms          rms(c)
DAV:   1    -0.127953874166E+04    0.46252E+02   -0.89554E+03  1776   0.146E+02    0.311E+01
DAV:   2    -0.134758695983E+04   -0.68048E+02   -0.80537E+02  2584   0.645E+01    0.165E+01
DAV:   3    -0.134514625907E+04    0.24407E+01   -0.48834E+01  2624   0.179E+01    0.109E+01
DAV:   4    -0.134217561675E+04    0.29706E+01   -0.15931E+01  2456   0.845E+00    0.509E+00
DAV:   5    -0.134182677003E+04    0.34885E+00   -0.54320E+00  2536   0.527E+00    0.355E+00
DAV:   6    -0.134175479019E+04    0.71980E-01   -0.39056E+00  2552   0.347E+00    0.213E+00
DAV:   7    -0.134168803306E+04    0.66757E-01   -0.63852E-01  2536   0.199E+00    0.106E+00
DAV:   8    -0.134170187127E+04   -0.13838E-01   -0.48018E-01  2592   0.119E+00    0.893E-01
DAV:   9    -0.134169857062E+04    0.33007E-02   -0.64582E-02  2560   0.585E-01    0.666E-01
DAV:  10    -0.134169359425E+04    0.49764E-02   -0.87733E-02  2440   0.502E-01    0.274E-01
DAV:  11    -0.134169539964E+04   -0.18054E-02   -0.25617E-02  2480   0.334E-01    0.289E-01
DAV:  12    -0.134169487934E+04    0.52030E-03   -0.44450E-03  2608   0.142E-01    0.200E-01
DAV:  13    -0.134169436580E+04    0.51354E-03   -0.42188E-03  2464   0.111E-01    0.486E-02
DAV:  14    -0.134169444977E+04   -0.83972E-04   -0.13652E-03  2608   0.695E-02    0.313E-02
DAV:  15    -0.134169446819E+04   -0.18424E-04   -0.16036E-04  2616   0.310E-02    0.334E-02
DAV:  16    -0.134169444954E+04    0.18649E-04   -0.93144E-05  2568   0.190E-02    0.154E-02
DAV:  17    -0.134169445133E+04   -0.17893E-05   -0.42405E-05  2472   0.131E-02    0.658E-03
DAV:  18    -0.134169445106E+04    0.27493E-06   -0.54851E-06  1376   0.686E-03
   2 F= -.13416945E+04 E0= -.13416945E+04  d E =-.159036E+02
 BRION: g(F)=  0.146E+03 g(S)=  0.000E+00 retain N=  1 mean eig= 0.36
 eig:   0.365
 bond charge predicted
       N       E                     dE             d eps       ncg     rms          rms(c)
DAV:   1    -0.132514950556E+04    0.16545E+02   -0.23929E+03  1328   0.621E+01    0.223E+01
DAV:   2    -0.135618595372E+04   -0.31036E+02   -0.42000E+02  2560   0.333E+01    0.196E+01
DAV:   3    -0.135321381671E+04    0.29721E+01   -0.53802E+01  2552   0.151E+01    0.148E+01
DAV:   4    -0.134976563535E+04    0.34482E+01   -0.37569E+01  2248   0.647E+00    0.635E+00
DAV:   5    -0.135064213963E+04   -0.87650E+00   -0.88707E+00  2464   0.418E+00    0.771E+00
DAV:   6    -0.134964390150E+04    0.99824E+00   -0.95167E+00  2472   0.327E+00    0.165E+00
DAV:   7    -0.134974724864E+04   -0.10335E+00   -0.13579E+00  2384   0.255E+00    0.190E+00
DAV:   8    -0.134967424655E+04    0.73002E-01   -0.44965E-01  2528   0.120E+00    0.681E-01
DAV:   9    -0.134967891323E+04   -0.46667E-02   -0.14902E-01  2472   0.688E-01    0.326E-01
DAV:  10    -0.134968053396E+04   -0.16207E-02   -0.30457E-02  2520   0.328E-01    0.265E-01
DAV:  11    -0.134967992056E+04    0.61341E-03   -0.59962E-03  2592   0.177E-01    0.217E-01
DAV:  12    -0.134967930939E+04    0.61116E-03   -0.91500E-03  2304   0.142E-01    0.609E-02
DAV:  13    -0.134967946801E+04   -0.15861E-03   -0.18575E-03  2280   0.869E-02    0.594E-02
DAV:  14    -0.134967946048E+04    0.75281E-05   -0.45874E-04  2456   0.383E-02    0.414E-02
DAV:  15    -0.134967944939E+04    0.11092E-04   -0.23257E-04  2624   0.267E-02    0.162E-02
DAV:  16    -0.134967945015E+04   -0.76584E-06   -0.73229E-05  2576   0.166E-02    0.599E-03
DAV:  17    -0.134967945192E+04   -0.17730E-05   -0.16711E-05  2200   0.905E-03    0.731E-03
DAV:  18    -0.134967945111E+04    0.81841E-06   -0.19222E-06  1104   0.437E-03
   3 F= -.13496795E+04 E0= -.13496795E+04  d E =-.798500E+01
 BRION: g(F)=  0.221E+02 g(S)=  0.000E+00 retain N=  2 mean eig= 1.46
 eig:   0.197  2.725
 bond charge predicted
       N       E                     dE             d eps       ncg     rms          rms(c)
DAV:   1    -0.134841365197E+04    0.12658E+01   -0.89856E+02  1392   0.333E+01    0.978E+00
DAV:   2    -0.135472212848E+04   -0.63085E+01   -0.79571E+01  2496   0.159E+01    0.631E+00
DAV:   3    -0.135424154854E+04    0.48058E+00   -0.52000E+00  2440   0.523E+00    0.468E+00
DAV:   4    -0.135391509258E+04    0.32646E+00   -0.38002E+00  2232   0.253E+00    0.198E+00
DAV:   5    -0.135391580368E+04   -0.71110E-03   -0.63931E-01  2504   0.157E+00    0.195E+00
DAV:   6    -0.135385988024E+04    0.55923E-01   -0.48570E-01  2504   0.123E+00    0.673E-01
DAV:   7    -0.135386585067E+04   -0.59704E-02   -0.20914E-01  2464   0.706E-01    0.665E-01
DAV:   8    -0.135386265744E+04    0.31932E-02   -0.47127E-02  2592   0.394E-01    0.420E-01
DAV:   9    -0.135386066117E+04    0.19963E-02   -0.20271E-02  2560   0.230E-01    0.157E-01
DAV:  10    -0.135386084972E+04   -0.18856E-03   -0.51750E-03  2520   0.121E-01    0.776E-02
DAV:  11    -0.135386079752E+04    0.52205E-04   -0.89345E-04  2624   0.689E-02    0.526E-02
DAV:  12    -0.135386080266E+04   -0.51425E-05   -0.68978E-04  2544   0.440E-02    0.286E-02
DAV:  13    -0.135386080897E+04   -0.63033E-05   -0.13059E-04  2608   0.240E-02    0.186E-02
DAV:  14    -0.135386080752E+04    0.14410E-05   -0.42654E-05  2616   0.123E-02    0.975E-03
DAV:  15    -0.135386080700E+04    0.52803E-06   -0.13712E-05  1864   0.806E-03    0.411E-03
DAV:  16    -0.135386080707E+04   -0.73764E-07   -0.46177E-06  1256   0.510E-03
   4 F= -.13538608E+04 E0= -.13538608E+04  d E =-.418136E+01
 BRION: g(F)=  0.558E+01 g(S)=  0.000E+00 retain N=  2 mean eig= 0.34
 eig:   0.340  0.340
 bond charge predicted
       N       E                     dE             d eps       ncg     rms          rms(c)
DAV:   1    -0.135505966246E+04   -0.11989E+01   -0.30610E+02  1376   0.223E+01    0.430E+00
DAV:   2    -0.135651782992E+04   -0.14582E+01   -0.15634E+01  2272   0.825E+00    0.215E+00
DAV:   3    -0.135650492733E+04    0.12903E-01   -0.90946E-01  2608   0.176E+00    0.168E+00
DAV:   4    -0.135645147874E+04    0.53449E-01   -0.38005E-01  2400   0.114E+00    0.705E-01
DAV:   5    -0.135645203901E+04   -0.56027E-03   -0.97134E-02  2456   0.624E-01    0.566E-01
DAV:   6    -0.135645072770E+04    0.13113E-02   -0.80641E-02  2352   0.451E-01    0.260E-01
DAV:   7    -0.135645050345E+04    0.22425E-03   -0.15162E-02  2320   0.243E-01    0.223E-01
DAV:   8    -0.135645008032E+04    0.42313E-03   -0.64314E-03  2464   0.130E-01    0.872E-02
DAV:   9    -0.135645013880E+04   -0.58487E-04   -0.26402E-03  2488   0.837E-02    0.692E-02
DAV:  10    -0.135645009447E+04    0.44335E-04   -0.60176E-04  2576   0.487E-02    0.349E-02
DAV:  11    -0.135645010418E+04   -0.97062E-05   -0.34022E-04  2592   0.303E-02    0.173E-02
DAV:  12    -0.135645010540E+04   -0.12217E-05   -0.46781E-05  2552   0.135E-02    0.106E-02
DAV:  13    -0.135645010488E+04    0.51408E-06   -0.17062E-05  1920   0.859E-03    0.500E-03
DAV:  14    -0.135645010547E+04   -0.58403E-06   -0.95007E-06  1712   0.621E-03
   5 F= -.13564501E+04 E0= -.13564501E+04  d E =-.258930E+01
 BRION: g(F)=  0.275E+01 g(S)=  0.000E+00 retain N=  3 mean eig= 0.35
 eig:   0.376  0.340  0.340
 bond charge predicted
       N       E                     dE             d eps       ncg     rms          rms(c)
DAV:   1    -0.135709472828E+04   -0.64462E+00   -0.25964E+02  1360   0.222E+01    0.324E+00
DAV:   2    -0.135838718375E+04   -0.12925E+01   -0.13813E+01  2328   0.818E+00    0.170E+00
DAV:   3    -0.135842596218E+04   -0.38778E-01   -0.92270E-01  2608   0.178E+00    0.147E+00
DAV:   4    -0.135839478473E+04    0.31177E-01   -0.16861E-01  2608   0.860E-01    0.848E-01
DAV:   5    -0.135838236331E+04    0.12421E-01   -0.89771E-02  2400   0.545E-01    0.443E-01
DAV:   6    -0.135838324391E+04   -0.88060E-03   -0.36803E-02  2552   0.372E-01    0.381E-01
DAV:   7    -0.135838192875E+04    0.13152E-02   -0.21067E-02  2464   0.257E-01    0.190E-01
DAV:   8    -0.135838194747E+04   -0.18722E-04   -0.57592E-03  2552   0.142E-01    0.936E-02
DAV:   9    -0.135838192054E+04    0.26932E-04   -0.99584E-04  2584   0.646E-02    0.631E-02
DAV:  10    -0.135838196114E+04   -0.40601E-04   -0.59897E-04  2280   0.415E-02    0.473E-02
DAV:  11    -0.135838193047E+04    0.30676E-04   -0.24732E-04  2568   0.329E-02    0.194E-02
DAV:  12    -0.135838193656E+04   -0.60943E-05   -0.13654E-04  2480   0.212E-02    0.160E-02
DAV:  13    -0.135838193441E+04    0.21478E-05   -0.35544E-05  2320   0.120E-02    0.645E-03
DAV:  14    -0.135838193491E+04   -0.49583E-06   -0.84299E-06  1664   0.654E-03
   6 F= -.13583819E+04 E0= -.13583819E+04  d E =-.193183E+01
 BRION: g(F)=  0.202E+01 g(S)=  0.000E+00 retain N=  4 mean eig= 0.47
 eig:   0.319  0.319  0.519  0.728
 bond charge predicted
       N       E                     dE             d eps       ncg     rms          rms(c)
DAV:   1    -0.135885972302E+04   -0.47779E+00   -0.19280E+02  1376   0.193E+01    0.270E+00
DAV:   2    -0.135984607661E+04   -0.98635E+00   -0.10368E+01  2280   0.717E+00    0.138E+00
DAV:   3    -0.135987959003E+04   -0.33513E-01   -0.73844E-01  2600   0.151E+00    0.114E+00
DAV:   4    -0.135985660030E+04    0.22990E-01   -0.11925E-01  2560   0.746E-01    0.675E-01
DAV:   5    -0.135984607161E+04    0.10529E-01   -0.51196E-02  2424   0.437E-01    0.306E-01
DAV:   6    -0.135984676981E+04   -0.69821E-03   -0.28540E-02  2520   0.326E-01    0.238E-01
DAV:   7    -0.135984636250E+04    0.40731E-03   -0.12481E-02  2304   0.206E-01    0.160E-01
DAV:   8    -0.135984646110E+04   -0.98599E-04   -0.54477E-03  2400   0.120E-01    0.937E-02
DAV:   9    -0.135984639450E+04    0.66606E-04   -0.90653E-04  2504   0.611E-02    0.665E-02
DAV:  10    -0.135984638993E+04    0.45672E-05   -0.81202E-04  2392   0.480E-02    0.469E-02
DAV:  11    -0.135984636981E+04    0.20114E-04   -0.28486E-04  2504   0.343E-02    0.171E-02
DAV:  12    -0.135984637451E+04   -0.46973E-05   -0.95877E-05  2448   0.197E-02    0.132E-02
DAV:  13    -0.135984637441E+04    0.98094E-07   -0.30948E-05  2248   0.109E-02    0.782E-03
DAV:  14    -0.135984637484E+04   -0.42334E-06   -0.10276E-05  1808   0.644E-03    0.648E-03
DAV:  15    -0.135984637439E+04    0.45035E-06   -0.24297E-06  1120   0.481E-03
   7 F= -.13598464E+04 E0= -.13598464E+04  d E =-.146444E+01
 BRION: g(F)=  0.104E+01 g(S)=  0.000E+00 retain N=  5 mean eig= 0.87
 eig:   1.624  1.624  0.284  0.284  0.551
 bond charge predicted
       N       E                     dE             d eps       ncg     rms          rms(c)
DAV:   1    -0.136020476271E+04   -0.35839E+00   -0.10503E+02  1376   0.142E+01    0.195E+00
DAV:   2    -0.136073875225E+04   -0.53399E+00   -0.55883E+00  2296   0.541E+00    0.104E+00
DAV:   3    -0.136075902624E+04   -0.20274E-01   -0.40016E-01  2608   0.106E+00    0.813E-01
DAV:   4    -0.136074579972E+04    0.13227E-01   -0.69086E-02  2504   0.562E-01    0.409E-01
DAV:   5    -0.136074412604E+04    0.16737E-02   -0.23583E-02  2480   0.303E-01    0.208E-01
DAV:   6    -0.136074449858E+04   -0.37254E-03   -0.11060E-02  2608   0.181E-01    0.108E-01
DAV:   7    -0.136074444770E+04    0.50881E-04   -0.22723E-03  2264   0.104E-01    0.791E-02
DAV:   8    -0.136074446594E+04   -0.18247E-04   -0.92177E-04  2368   0.513E-02    0.359E-02
DAV:   9    -0.136074447080E+04   -0.48534E-05   -0.17005E-04  2600   0.293E-02    0.241E-02
DAV:  10    -0.136074447365E+04   -0.28576E-05   -0.11753E-04  2576   0.207E-02    0.168E-02
DAV:  11    -0.136074447285E+04    0.80888E-06   -0.47820E-05  2400   0.139E-02    0.873E-03
DAV:  12    -0.136074447301E+04   -0.16349E-06   -0.13744E-05  1800   0.800E-03    0.581E-03
DAV:  13    -0.136074447266E+04    0.34746E-06   -0.23977E-06  1048   0.538E-03
   8 F= -.13607445E+04 E0= -.13607445E+04  d E =-.898098E+00
 BRION: g(F)=  0.541E+00 g(S)=  0.000E+00 retain N=  6 mean eig= 0.62
 eig:   1.194  1.194  0.293  0.293  0.374  0.374
 bond charge predicted
       N       E                     dE             d eps       ncg     rms          rms(c)
DAV:   1    -0.136106425066E+04   -0.31978E+00   -0.56286E+01  1384   0.105E+01    0.143E+00
DAV:   2    -0.136134353990E+04   -0.27929E+00   -0.29276E+00  2296   0.396E+00    0.706E-01
DAV:   3    -0.136135622654E+04   -0.12687E-01   -0.21261E-01  2608   0.766E-01    0.553E-01
DAV:   4    -0.136135041625E+04    0.58103E-02   -0.31284E-02  2512   0.396E-01    0.290E-01
DAV:   5    -0.136134955863E+04    0.85762E-03   -0.12393E-02  2456   0.224E-01    0.137E-01
DAV:   6    -0.136134985478E+04   -0.29615E-03   -0.49606E-03  2616   0.126E-01    0.827E-02
DAV:   7    -0.136134982293E+04    0.31852E-04   -0.94558E-04  2528   0.686E-02    0.572E-02
DAV:   8    -0.136134983666E+04   -0.13732E-04   -0.57742E-04  2488   0.410E-02    0.316E-02
DAV:   9    -0.136134982858E+04    0.80846E-05   -0.94818E-05  2528   0.241E-02    0.211E-02
DAV:  10    -0.136134982942E+04   -0.83983E-06   -0.11062E-04  2424   0.184E-02    0.128E-02
DAV:  11    -0.136134982861E+04    0.81131E-06   -0.22984E-05  2176   0.106E-02    0.653E-03
DAV:  12    -0.136134982906E+04   -0.45083E-06   -0.10186E-05  1608   0.651E-03    0.393E-03
DAV:  13    -0.136134982898E+04    0.80836E-07   -0.11962E-06   992   0.507E-03
   9 F= -.13613498E+04 E0= -.13613498E+04  d E =-.605356E+00
 BRION: g(F)=  0.537E+00 g(S)=  0.000E+00 retain N=  7 mean eig= 1.40
 eig:   5.513  1.373  1.373  0.412  0.412  0.352  0.352
 bond charge predicted
       N       E                     dE             d eps       ncg     rms          rms(c)
DAV:   1    -0.136169193642E+04   -0.34211E+00   -0.69057E+01  1384   0.119E+01    0.141E+00
DAV:   2    -0.136204531515E+04   -0.35338E+00   -0.37309E+00  2296   0.463E+00    0.712E-01
DAV:   3    -0.136206641272E+04   -0.21098E-01   -0.29363E-01  2600   0.905E-01    0.573E-01
DAV:   4    -0.136206229177E+04    0.41210E-02   -0.28901E-02  2592   0.410E-01    0.393E-01
DAV:   5    -0.136205912539E+04    0.31664E-02   -0.15145E-02  2360   0.239E-01    0.156E-01
DAV:   6    -0.136205957147E+04   -0.44608E-03   -0.82796E-03  2496   0.172E-01    0.131E-01
DAV:   7    -0.136205952160E+04    0.49873E-04   -0.38781E-03  2480   0.116E-01    0.885E-02
DAV:   8    -0.136205950730E+04    0.14298E-04   -0.14442E-03  2600   0.732E-02    0.514E-02
DAV:   9    -0.136205949190E+04    0.15396E-04   -0.25904E-04  2528   0.348E-02    0.374E-02
DAV:  10    -0.136205949188E+04    0.25946E-07   -0.17128E-04  2560   0.229E-02    0.194E-02
DAV:  11    -0.136205949318E+04   -0.13061E-05   -0.58693E-05  2400   0.164E-02    0.102E-02
DAV:  12    -0.136205949309E+04    0.99491E-07   -0.19535E-05  2200   0.107E-02    0.866E-03
DAV:  13    -0.136205949282E+04    0.26800E-06   -0.13525E-05  1808   0.681E-03    0.492E-03
DAV:  14    -0.136205949259E+04    0.23091E-06   -0.16199E-06   976   0.483E-03
  10 F= -.13620595E+04 E0= -.13620595E+04  d E =-.709664E+00
 BRION: g(F)=  0.369E+00 g(S)=  0.000E+00 retain N=  8 mean eig= 1.68
 eig:   2.715  2.715  3.052  3.052  0.377  0.377  0.387  0.778
 bond charge predicted
       N       E                     dE             d eps       ncg     rms          rms(c)
DAV:   1    -0.136233437058E+04   -0.27488E+00   -0.94223E+01  1392   0.139E+01    0.165E+00
DAV:   2    -0.136283083832E+04   -0.49647E+00   -0.52438E+00  2304   0.551E+00    0.837E-01
DAV:   3    -0.136286038902E+04   -0.29551E-01   -0.41479E-01  2616   0.107E+00    0.677E-01
DAV:   4    -0.136285429616E+04    0.60929E-02   -0.40290E-02  2616   0.492E-01    0.467E-01
DAV:   5    -0.136284908802E+04    0.52081E-02   -0.19497E-02  2336   0.287E-01    0.187E-01
DAV:   6    -0.136284960559E+04   -0.51756E-03   -0.13318E-02  2424   0.218E-01    0.149E-01
DAV:   7    -0.136284960590E+04   -0.31541E-06   -0.55718E-03  2416   0.140E-01    0.112E-01
DAV:   8    -0.136284957172E+04    0.34181E-04   -0.19925E-03  2608   0.847E-02    0.616E-02
DAV:   9    -0.136284953708E+04    0.34643E-04   -0.48567E-04  2408   0.451E-02    0.408E-02
DAV:  10    -0.136284954539E+04   -0.83153E-05   -0.24193E-04  2464   0.290E-02    0.264E-02
DAV:  11    -0.136284954345E+04    0.19441E-05   -0.92670E-05  2440   0.207E-02    0.141E-02
DAV:  12    -0.136284954456E+04   -0.11134E-05   -0.40536E-05  2328   0.136E-02    0.136E-02
DAV:  13    -0.136284954271E+04    0.18529E-05   -0.25413E-05  1992   0.921E-03    0.614E-03
DAV:  14    -0.136284954273E+04   -0.20489E-07   -0.70234E-06  1568   0.593E-03
  11 F= -.13628495E+04 E0= -.13628495E+04  d E =-.790050E+00
 BRION: g(F)=  0.252E+00 g(S)=  0.000E+00 retain N=  9 mean eig= 2.21
 eig:   6.453  3.926  3.926  2.099  1.511  0.345  0.345  0.869  0.377
 bond charge predicted
       N       E                     dE             d eps       ncg     rms          rms(c)
DAV:   1    -0.136314107416E+04   -0.29153E+00   -0.47302E+01  1384   0.987E+00    0.120E+00
DAV:   2    -0.136339275849E+04   -0.25168E+00   -0.26762E+00  2304   0.397E+00    0.601E-01
DAV:   3    -0.136340749923E+04   -0.14741E-01   -0.21125E-01  2600   0.769E-01    0.489E-01
DAV:   4    -0.136340442926E+04    0.30700E-02   -0.21833E-02  2608   0.356E-01    0.338E-01
DAV:   5    -0.136340175606E+04    0.26732E-02   -0.10461E-02  2384   0.206E-01    0.141E-01
DAV:   6    -0.136340194419E+04   -0.18813E-03   -0.65667E-03  2424   0.153E-01    0.107E-01
DAV:   7    -0.136340192943E+04    0.14755E-04   -0.28605E-03  2456   0.101E-01    0.784E-02
DAV:   8    -0.136340192791E+04    0.15264E-05   -0.12269E-03  2592   0.653E-02    0.480E-02
DAV:   9    -0.136340191062E+04    0.17290E-04   -0.25124E-04  2536   0.330E-02    0.320E-02
DAV:  10    -0.136340191205E+04   -0.14357E-05   -0.11417E-04  2568   0.199E-02    0.185E-02
DAV:  11    -0.136340191332E+04   -0.12724E-05   -0.40449E-05  2408   0.132E-02    0.122E-02
DAV:  12    -0.136340191198E+04    0.13411E-05   -0.18981E-05  2216   0.102E-02    0.886E-03
DAV:  13    -0.136340191179E+04    0.19168E-06   -0.15101E-05  1920   0.711E-03    0.445E-03
DAV:  14    -0.136340191163E+04    0.16518E-06   -0.17087E-06   984   0.453E-03
  12 F= -.13634019E+04 E0= -.13634019E+04  d E =-.552369E+00
 BRION: g(F)=  0.220E+00 g(S)=  0.000E+00 retain N= 10 mean eig= 2.66
 eig:   6.353  6.297  6.297  1.558  1.973  1.973  1.058  0.340  0.340  0.381
 bond charge predicted
       N       E                     dE             d eps       ncg     rms          rms(c)
DAV:   1    -0.136367077944E+04   -0.26887E+00   -0.63787E+01  1400   0.114E+01    0.136E+00
DAV:   2    -0.136400591698E+04   -0.33514E+00   -0.35468E+00  2296   0.454E+00    0.682E-01
DAV:   3    -0.136402422573E+04   -0.18309E-01   -0.27445E-01  2584   0.884E-01    0.551E-01
DAV:   4    -0.136401950373E+04    0.47220E-02   -0.28752E-02  2584   0.405E-01    0.377E-01
DAV:   5    -0.136401547413E+04    0.40296E-02   -0.12899E-02  2352   0.242E-01    0.157E-01
DAV:   6    -0.136401559864E+04   -0.12450E-03   -0.93918E-03  2392   0.183E-01    0.110E-01
DAV:   7    -0.136401564792E+04   -0.49288E-04   -0.36230E-03  2424   0.114E-01    0.898E-02
DAV:   8    -0.136401562992E+04    0.18001E-04   -0.12972E-03  2608   0.674E-02    0.495E-02
DAV:   9    -0.136401560816E+04    0.21759E-04   -0.38780E-04  2512   0.390E-02    0.305E-02
DAV:  10    -0.136401561518E+04   -0.70136E-05   -0.14122E-04  2520   0.235E-02    0.230E-02
DAV:  11    -0.136401561201E+04    0.31682E-05   -0.61677E-05  2440   0.162E-02    0.119E-02
DAV:  12    -0.136401561246E+04   -0.45467E-06   -0.29739E-05  2280   0.116E-02    0.109E-02
DAV:  13    -0.136401561156E+04    0.90577E-06   -0.17415E-05  1896   0.784E-03    0.532E-03
DAV:  14    -0.136401561147E+04    0.90149E-07   -0.44818E-06  1344   0.555E-03
  13 F= -.13640156E+04 E0= -.13640156E+04  d E =-.613700E+00
 BRION: g(F)=  0.187E+00 g(S)=  0.000E+00 retain N=  9 mean eig= 3.02
 eig:   7.870  7.870  3.314  3.314  0.739  0.739  1.346  1.346  0.658
 bond charge predicted
       N       E                     dE             d eps       ncg     rms          rms(c)
DAV:   1    -0.136419631508E+04   -0.18070E+00   -0.69129E+01  1392   0.119E+01    0.142E+00
DAV:   2    -0.136455683233E+04   -0.36052E+00   -0.38177E+00  2288   0.470E+00    0.711E-01
DAV:   3    -0.136457660445E+04   -0.19772E-01   -0.29687E-01  2600   0.931E-01    0.573E-01
DAV:   4    -0.136457143031E+04    0.51741E-02   -0.29958E-02  2592   0.417E-01    0.394E-01
DAV:   5    -0.136456710884E+04    0.43215E-02   -0.14651E-02  2336   0.246E-01    0.162E-01
DAV:   6    -0.136456729749E+04   -0.18866E-03   -0.94875E-03  2408   0.180E-01    0.117E-01
DAV:   7    -0.136456731135E+04   -0.13860E-04   -0.36532E-03  2408   0.112E-01    0.864E-02
DAV:   8    -0.136456730858E+04    0.27736E-05   -0.14470E-03  2568   0.713E-02    0.512E-02
DAV:   9    -0.136456728859E+04    0.19989E-04   -0.33863E-04  2512   0.380E-02    0.343E-02
DAV:  10    -0.136456729110E+04   -0.25088E-05   -0.15029E-04  2544   0.233E-02    0.202E-02
DAV:  11    -0.136456729101E+04    0.85289E-07   -0.56394E-05  2464   0.157E-02    0.112E-02
DAV:  12    -0.136456729135E+04   -0.33120E-06   -0.24443E-05  2304   0.111E-02    0.101E-02
DAV:  13    -0.136456729066E+04    0.69020E-06   -0.14834E-05  1808   0.728E-03    0.537E-03
DAV:  14    -0.136456729059E+04    0.68161E-07   -0.60870E-06  1496   0.570E-03
  14 F= -.13645673E+04 E0= -.13645673E+04  d E =-.551679E+00
 BRION: g(F)=  0.166E+00 g(S)=  0.000E+00 retain N=  3 mean eig= 5.24
 eig:   6.701  6.701  2.327
 bond charge predicted
       N       E                     dE             d eps       ncg     rms          rms(c)
DAV:   1    -0.136476504970E+04   -0.19776E+00   -0.36872E+01  1384   0.862E+00    0.105E+00
DAV:   2    -0.136495761235E+04   -0.19256E+00   -0.20433E+00  2288   0.345E+00    0.535E-01
DAV:   3    -0.136496769608E+04   -0.10084E-01   -0.15901E-01  2600   0.683E-01    0.425E-01
DAV:   4    -0.136496445613E+04    0.32400E-02   -0.17509E-02  2560   0.312E-01    0.274E-01
DAV:   5    -0.136496255464E+04    0.19015E-02   -0.79043E-03  2392   0.177E-01    0.112E-01
DAV:   6    -0.136496267528E+04   -0.12064E-03   -0.40081E-03  2448   0.117E-01    0.758E-02
DAV:   7    -0.136496268016E+04   -0.48752E-05   -0.15330E-03  2488   0.762E-02    0.546E-02
DAV:   8    -0.136496268939E+04   -0.92362E-05   -0.64185E-04  2576   0.461E-02    0.350E-02
DAV:   9    -0.136496268124E+04    0.81506E-05   -0.14276E-04  2536   0.255E-02    0.242E-02
DAV:  10    -0.136496268115E+04    0.91313E-07   -0.80766E-05  2560   0.167E-02    0.139E-02
DAV:  11    -0.136496268094E+04    0.20505E-06   -0.30642E-05  2288   0.116E-02    0.675E-03
DAV:  12    -0.136496268107E+04   -0.12855E-06   -0.10444E-05  1824   0.797E-03    0.581E-03
DAV:  13    -0.136496268076E+04    0.31602E-06   -0.39871E-06  1232   0.515E-03
  15 F= -.13649627E+04 E0= -.13649627E+04  d E =-.395390E+00
 BRION: g(F)=  0.144E+00 g(S)=  0.000E+00 retain N=  3 mean eig= 5.21
 eig:   6.932  6.932  1.760
 bond charge predicted
       N       E                     dE             d eps       ncg     rms          rms(c)
DAV:   1    -0.136510610897E+04   -0.14343E+00   -0.14605E+01  1376   0.544E+00    0.653E-01
DAV:   2    -0.136518064089E+04   -0.74532E-01   -0.78969E-01  2296   0.213E+00    0.336E-01
DAV:   3    -0.136518448836E+04   -0.38475E-02   -0.60760E-02  2592   0.414E-01    0.266E-01
DAV:   4    -0.136518309321E+04    0.13952E-02   -0.65110E-03  2576   0.191E-01    0.168E-01
DAV:   5    -0.136518232818E+04    0.76502E-03   -0.32756E-03  2320   0.117E-01    0.616E-02
DAV:   6    -0.136518242681E+04   -0.98630E-04   -0.17460E-03  2496   0.759E-02    0.506E-02
DAV:   7    -0.136518242561E+04    0.11990E-05   -0.48176E-04  2496   0.429E-02    0.355E-02
DAV:   8    -0.136518242323E+04    0.23825E-05   -0.19967E-04  2568   0.259E-02    0.187E-02
DAV:   9    -0.136518242128E+04    0.19503E-05   -0.38266E-05  2496   0.140E-02    0.136E-02
DAV:  10    -0.136518242112E+04    0.16158E-06   -0.21572E-05  2264   0.938E-03    0.737E-03
DAV:  11    -0.136518242081E+04    0.30645E-06   -0.49446E-06  1352   0.639E-03
  16 F= -.13651824E+04 E0= -.13651824E+04  d E =-.219740E+00
 BRION: g(F)=  0.130E+00 g(S)=  0.000E+00 retain N=  3 mean eig= 3.62
 eig:   4.817  4.817  1.234
 bond charge predicted
       N       E                     dE             d eps       ncg     rms          rms(c)
DAV:   1    -0.136532383864E+04   -0.14142E+00   -0.33397E+01  1376   0.824E+00    0.974E-01
DAV:   2    -0.136549560243E+04   -0.17176E+00   -0.18199E+00  2296   0.323E+00    0.492E-01
DAV:   3    -0.136550508661E+04   -0.94842E-02   -0.14339E-01  2600   0.639E-01    0.387E-01
DAV:   4    -0.136550234201E+04    0.27446E-02   -0.14423E-02  2592   0.286E-01    0.256E-01
DAV:   5    -0.136550058568E+04    0.17563E-02   -0.71391E-03  2328   0.165E-01    0.992E-02
DAV:   6    -0.136550074374E+04   -0.15805E-03   -0.36328E-03  2464   0.110E-01    0.740E-02
DAV:   7    -0.136550074386E+04   -0.12868E-06   -0.13559E-03  2480   0.692E-02    0.503E-02
DAV:   8    -0.136550074738E+04   -0.35158E-05   -0.50248E-04  2584   0.428E-02    0.311E-02
DAV:   9    -0.136550074166E+04    0.57158E-05   -0.10736E-04  2528   0.226E-02    0.221E-02
DAV:  10    -0.136550074246E+04   -0.79731E-06   -0.72510E-05  2536   0.153E-02    0.119E-02
DAV:  11    -0.136550074211E+04    0.35511E-06   -0.22685E-05  2240   0.105E-02    0.548E-03
DAV:  12    -0.136550074251E+04   -0.40760E-06   -0.89542E-06  1752   0.695E-03
  17 F= -.13655007E+04 E0= -.13655007E+04  d E =-.318322E+00
 BRION: g(F)=  0.113E+00 g(S)=  0.000E+00 retain N=  3 mean eig= 4.64
 eig:   6.320  6.320  1.289
 bond charge predicted
       N       E                     dE             d eps       ncg     rms          rms(c)
DAV:   1    -0.136562513483E+04   -0.12439E+00   -0.21936E+01  1376   0.664E+00    0.767E-01
DAV:   2    -0.136573711154E+04   -0.11198E+00   -0.11828E+00  2280   0.258E+00    0.387E-01
DAV:   3    -0.136574390822E+04   -0.67967E-02   -0.95661E-02  2576   0.514E-01    0.309E-01
DAV:   4    -0.136574246902E+04    0.14392E-02   -0.88151E-03  2576   0.224E-01    0.216E-01
DAV:   5    -0.136574119163E+04    0.12774E-02   -0.48470E-03  2248   0.134E-01    0.801E-02
DAV:   6    -0.136574132581E+04   -0.13418E-03   -0.27052E-03  2472   0.923E-02    0.659E-02
DAV:   7    -0.136574132063E+04    0.51715E-05   -0.10093E-03  2512   0.583E-02    0.434E-02
DAV:   8    -0.136574131414E+04    0.64964E-05   -0.31357E-04  2576   0.356E-02    0.254E-02
DAV:   9    -0.136574131188E+04    0.22545E-05   -0.69463E-05  2544   0.176E-02    0.176E-02
DAV:  10    -0.136574131254E+04   -0.65284E-06   -0.36364E-05  2480   0.113E-02    0.831E-03
DAV:  11    -0.136574131251E+04    0.26674E-07   -0.92032E-06  1720   0.775E-03
  18 F= -.13657413E+04 E0= -.13657413E+04  d E =-.240570E+00
 BRION: g(F)=  0.104E+00 g(S)=  0.000E+00 retain N=  3 mean eig= 4.13
 eig:   1.200  5.591  5.591
 bond charge predicted
       N       E                     dE             d eps       ncg     rms          rms(c)
DAV:   1    -0.136585029994E+04   -0.10899E+00   -0.22527E+01  1376   0.674E+00    0.779E-01
DAV:   2    -0.136596477290E+04   -0.11447E+00   -0.12082E+00  2288   0.261E+00    0.390E-01
DAV:   3    -0.136597171739E+04   -0.69445E-02   -0.97641E-02  2584   0.515E-01    0.308E-01
DAV:   4    -0.136597021343E+04    0.15040E-02   -0.89032E-03  2584   0.226E-01    0.214E-01
DAV:   5    -0.136596893000E+04    0.12834E-02   -0.48156E-03  2296   0.134E-01    0.795E-02
DAV:   6    -0.136596905811E+04   -0.12811E-03   -0.27100E-03  2456   0.938E-02    0.643E-02
DAV:   7    -0.136596905797E+04    0.13629E-06   -0.98151E-04  2496   0.576E-02    0.435E-02
DAV:   8    -0.136596905273E+04    0.52415E-05   -0.32037E-04  2560   0.352E-02    0.253E-02
DAV:   9    -0.136596904979E+04    0.29399E-05   -0.70168E-05  2440   0.180E-02    0.176E-02
DAV:  10    -0.136596905035E+04   -0.56620E-06   -0.40761E-05  2480   0.120E-02    0.882E-03
DAV:  11    -0.136596905021E+04    0.14702E-06   -0.10153E-05  1784   0.813E-03    0.427E-03
DAV:  12    -0.136596905079E+04   -0.58771E-06   -0.89041E-06  1648   0.599E-03
  19 F= -.13659691E+04 E0= -.13659691E+04  d E =-.227738E+00
 BRION: g(F)=  0.968E-01 g(S)=  0.000E+00 retain N=  3 mean eig= 5.51
 eig:   7.361  7.361  1.816
 bond charge predicted
       N       E                     dE             d eps       ncg     rms          rms(c)
DAV:   1    -0.136604740799E+04   -0.78358E-01   -0.35002E+01  1376   0.838E+00    0.945E-01
DAV:   2    -0.136622491760E+04   -0.17751E+00   -0.18712E+00  2296   0.322E+00    0.480E-01
DAV:   3    -0.136623623230E+04   -0.11315E-01   -0.15324E-01  2576   0.640E-01    0.385E-01
DAV:   4    -0.136623440678E+04    0.18255E-02   -0.13536E-02  2584   0.277E-01    0.282E-01
DAV:   5    -0.136623222807E+04    0.21787E-02   -0.71882E-03  2288   0.163E-01    0.115E-01
DAV:   6    -0.136623231932E+04   -0.91246E-04   -0.47633E-03  2344   0.124E-01    0.844E-02
DAV:   7    -0.136623233621E+04   -0.16897E-04   -0.21659E-03  2464   0.835E-02    0.615E-02
DAV:   8    -0.136623232163E+04    0.14587E-04   -0.63669E-04  2560   0.509E-02    0.391E-02
DAV:   9    -0.136623231170E+04    0.99315E-05   -0.17507E-04  2496   0.263E-02    0.247E-02
DAV:  10    -0.136623231302E+04   -0.13192E-05   -0.66017E-05  2512   0.151E-02    0.130E-02
DAV:  11    -0.136623231424E+04   -0.12233E-05   -0.20036E-05  2216   0.102E-02    0.841E-03
DAV:  12    -0.136623231380E+04    0.43924E-06   -0.12705E-05  1984   0.768E-03    0.691E-03
DAV:  13    -0.136623231348E+04    0.31617E-06   -0.57032E-06  1504   0.532E-03
  20 F= -.13662323E+04 E0= -.13662323E+04  d E =-.263263E+00
 BRION: g(F)=  0.879E-01 g(S)=  0.000E+00 retain N=  2 mean eig= 4.01
 eig:   4.006  4.006
