 running on  160 total cores
 distrk:  each k-point on  160 cores,    1 groups
 distr:  one band on   20 cores,    8 groups
 using from now: INCAR     
 vasp.5.4.4.18Apr17-6-g9f103f2a35 (build May 01 2020 14:22:42) gamma-only       
  
 POSCAR found type information on POSCAR  O  La Zr Li Al
 POSCAR found :  5 types and     190 ions
 scaLAPACK will be used
 LDA part: xc-table for Pade appr. of Perdew
 POSCAR, INCAR and KPOINTS ok, starting setup
 FFT: planning ...
 WAVECAR not read
 WARNING: random wavefunctions but no delay for mixing, default for NELMDL
 entering main loop
       N       E                     dE             d eps       ncg     rms          rms(c)
DAV:   1     0.253148267869E+05    0.25315E+05   -0.42049E+05  1568   0.253E+03
DAV:   2     0.938637210544E+04   -0.15928E+05   -0.14696E+05  1424   0.705E+02
DAV:   3     0.269218002542E+04   -0.66942E+04   -0.60864E+04  1496   0.355E+02
DAV:   4    -0.385743594398E+03   -0.30779E+04   -0.28670E+04  2048   0.223E+02
DAV:   5    -0.141842415615E+04   -0.10327E+04   -0.99727E+03  2536   0.142E+02    0.116E+02
DAV:   6    -0.129662612925E+04    0.12180E+03   -0.14103E+03  2408   0.659E+01    0.504E+01
DAV:   7    -0.131929852877E+04   -0.22672E+02   -0.38249E+02  2568   0.340E+01    0.245E+01
DAV:   8    -0.132861954117E+04   -0.93210E+01   -0.25083E+02  2536   0.264E+01    0.259E+01
DAV:   9    -0.132161259558E+04    0.70069E+01   -0.52086E+01  2488   0.147E+01    0.817E+00
DAV:  10    -0.132246266033E+04   -0.85006E+00   -0.17143E+01  2616   0.794E+00    0.750E+00
DAV:  11    -0.132273992631E+04   -0.27727E+00   -0.49619E+00  2624   0.415E+00    0.472E+00
DAV:  12    -0.132273113389E+04    0.87924E-02   -0.16303E+00  2568   0.294E+00    0.397E+00
DAV:  13    -0.132269763354E+04    0.33500E-01   -0.14412E+00  2600   0.206E+00    0.254E+00
DAV:  14    -0.132268456287E+04    0.13071E-01   -0.22301E-01  2488   0.111E+00    0.169E+00
DAV:  15    -0.132268309909E+04    0.14638E-02   -0.14827E-01  2488   0.662E-01    0.102E+00
DAV:  16    -0.132268093809E+04    0.21610E-02   -0.44455E-02  2496   0.393E-01    0.644E-01
DAV:  17    -0.132267895929E+04    0.19788E-02   -0.22309E-02  2544   0.273E-01    0.263E-01
DAV:  18    -0.132267927632E+04   -0.31703E-03   -0.67840E-03  2520   0.150E-01    0.130E-01
DAV:  19    -0.132267923439E+04    0.41924E-04   -0.25533E-03  2616   0.938E-02    0.624E-02
DAV:  20    -0.132267929733E+04   -0.62941E-04   -0.10156E-03  2608   0.579E-02    0.312E-02
DAV:  21    -0.132267931442E+04   -0.17090E-04   -0.27122E-04  2568   0.296E-02    0.161E-02
DAV:  22    -0.132267932590E+04   -0.11481E-04   -0.11377E-04  2512   0.169E-02    0.129E-02
DAV:  23    -0.132267933361E+04   -0.77047E-05   -0.39803E-05  2064   0.112E-02    0.603E-03
DAV:  24    -0.132267933164E+04    0.19635E-05   -0.14675E-05  1120   0.742E-03    0.572E-03
DAV:  25    -0.132267933670E+04   -0.50521E-05   -0.63874E-06  1128   0.647E-03    0.539E-03
DAV:  26    -0.132267933466E+04    0.20384E-05   -0.30175E-06   960   0.443E-03    0.171E-03
DAV:  27    -0.132267933493E+04   -0.27113E-06   -0.15092E-06   944   0.366E-03
   1 F= -.13226793E+04 E0= -.13226496E+04  d E =-.132268E+04
 BRION: g(F)=  0.636E+02 g(S)=  0.000E+00
 bond charge predicted
       N       E                     dE             d eps       ncg     rms          rms(c)
DAV:   1    -0.129317411738E+04    0.29505E+02   -0.72156E+03  1736   0.132E+02    0.270E+01
DAV:   2    -0.134973190663E+04   -0.56558E+02   -0.66143E+02  2512   0.590E+01    0.145E+01
DAV:   3    -0.134811595638E+04    0.16160E+01   -0.39408E+01  2624   0.155E+01    0.985E+00
DAV:   4    -0.134580221383E+04    0.23137E+01   -0.13420E+01  2488   0.774E+00    0.471E+00
DAV:   5    -0.134554836848E+04    0.25385E+00   -0.43812E+00  2568   0.471E+00    0.324E+00
DAV:   6    -0.134547613088E+04    0.72238E-01   -0.32404E+00  2592   0.325E+00    0.189E+00
DAV:   7    -0.134544088684E+04    0.35244E-01   -0.61502E-01  2528   0.187E+00    0.113E+00
DAV:   8    -0.134544881130E+04   -0.79245E-02   -0.46577E-01  2592   0.112E+00    0.843E-01
DAV:   9    -0.134544181359E+04    0.69977E-02   -0.60167E-02  2552   0.615E-01    0.515E-01
DAV:  10    -0.134544058060E+04    0.12330E-02   -0.67978E-02  2496   0.441E-01    0.249E-01
DAV:  11    -0.134544108134E+04   -0.50075E-03   -0.13314E-02  2512   0.257E-01    0.187E-01
DAV:  12    -0.134544099464E+04    0.86705E-04   -0.41020E-03  2608   0.115E-01    0.859E-02
DAV:  13    -0.134544097636E+04    0.18279E-04   -0.15555E-03  2616   0.796E-02    0.240E-02
DAV:  14    -0.134544100767E+04   -0.31305E-04   -0.33179E-04  2624   0.381E-02    0.158E-02
DAV:  15    -0.134544101553E+04   -0.78617E-05   -0.69123E-05  2624   0.183E-02    0.108E-02
DAV:  16    -0.134544101573E+04   -0.19780E-06   -0.25187E-05  2384   0.107E-02    0.677E-03
DAV:  17    -0.134544101688E+04   -0.11505E-05   -0.10187E-05  1800   0.767E-03    0.362E-03
DAV:  18    -0.134544101690E+04   -0.21450E-07   -0.23804E-06  1064   0.504E-03
   2 F= -.13454410E+04 E0= -.13454410E+04  d E =-.227617E+02
 BRION: g(F)=  0.428E+02 g(S)=  0.000E+00 retain N=  1 mean eig= 0.57
 eig:   0.570
 bond charge predicted
       N       E                     dE             d eps       ncg     rms          rms(c)
DAV:   1    -0.133308594350E+04    0.12355E+02   -0.25905E+03  1448   0.705E+01    0.156E+01
DAV:   2    -0.135442356012E+04   -0.21338E+02   -0.25924E+02  2528   0.313E+01    0.131E+01
DAV:   3    -0.135401400737E+04    0.40955E+00   -0.18691E+01  2576   0.105E+01    0.104E+01
DAV:   4    -0.135283024555E+04    0.11838E+01   -0.10930E+01  2240   0.501E+00    0.544E+00
DAV:   5    -0.135298306192E+04   -0.15282E+00   -0.40745E+00  2368   0.375E+00    0.556E+00
DAV:   6    -0.135245067621E+04    0.53239E+00   -0.38997E+00  2432   0.363E+00    0.170E+00
DAV:   7    -0.135251167360E+04   -0.60997E-01   -0.13733E+00  2456   0.202E+00    0.134E+00
DAV:   8    -0.135249669903E+04    0.14975E-01   -0.19698E-01  2624   0.876E-01    0.778E-01
DAV:   9    -0.135249094646E+04    0.57526E-02   -0.95287E-02  2464   0.500E-01    0.324E-01
DAV:  10    -0.135249254801E+04   -0.16015E-02   -0.26369E-02  2392   0.284E-01    0.230E-01
DAV:  11    -0.135249175847E+04    0.78954E-03   -0.33202E-03  2616   0.158E-01    0.147E-01
DAV:  12    -0.135249191698E+04   -0.15852E-03   -0.76548E-03  2368   0.126E-01    0.103E-01
DAV:  13    -0.135249176407E+04    0.15292E-03   -0.14457E-03  2536   0.808E-02    0.319E-02
DAV:  14    -0.135249180089E+04   -0.36827E-04   -0.48364E-04  2608   0.389E-02    0.163E-02
DAV:  15    -0.135249180233E+04   -0.14377E-05   -0.68032E-05  2616   0.182E-02    0.847E-03
DAV:  16    -0.135249180487E+04   -0.25367E-05   -0.28378E-05  2360   0.894E-03    0.960E-03
DAV:  17    -0.135249180449E+04    0.37775E-06   -0.25856E-06  1192   0.510E-03
   3 F= -.13524918E+04 E0= -.13524918E+04  d E =-.705079E+01
 BRION: g(F)=  0.863E+01 g(S)=  0.000E+00 retain N=  2 mean eig= 1.13
 eig:   0.391  1.875
 bond charge predicted
       N       E                     dE             d eps       ncg     rms          rms(c)
DAV:   1    -0.135405513021E+04   -0.15633E+01   -0.39118E+02  1376   0.268E+01    0.498E+00
DAV:   2    -0.135608680301E+04   -0.20317E+01   -0.22830E+01  2320   0.103E+01    0.256E+00
DAV:   3    -0.135610934721E+04   -0.22544E-01   -0.16152E+00  2608   0.252E+00    0.205E+00
DAV:   4    -0.135603936150E+04    0.69986E-01   -0.42717E-01  2552   0.135E+00    0.101E+00
DAV:   5    -0.135602843893E+04    0.10923E-01   -0.14368E-01  2440   0.831E-01    0.666E-01
DAV:   6    -0.135602684302E+04    0.15959E-02   -0.10213E-01  2536   0.590E-01    0.360E-01
DAV:   7    -0.135602699369E+04   -0.15067E-03   -0.23102E-02  2520   0.297E-01    0.284E-01
DAV:   8    -0.135602655510E+04    0.43859E-03   -0.78829E-03  2592   0.157E-01    0.140E-01
DAV:   9    -0.135602645558E+04    0.99529E-04   -0.25517E-03  2608   0.103E-01    0.798E-02
DAV:  10    -0.135602654740E+04   -0.91822E-04   -0.13335E-03  2256   0.676E-02    0.845E-02
DAV:  11    -0.135602647127E+04    0.76130E-04   -0.55355E-04  2552   0.454E-02    0.358E-02
DAV:  12    -0.135602647835E+04   -0.70870E-05   -0.36602E-04  2544   0.328E-02    0.246E-02
DAV:  13    -0.135602647835E+04    0.25029E-08   -0.66132E-05  2456   0.175E-02    0.181E-02
DAV:  14    -0.135602647591E+04    0.24412E-05   -0.29735E-05  2392   0.939E-03    0.748E-03
DAV:  15    -0.135602647583E+04    0.84518E-07   -0.55933E-06  1400   0.616E-03
   4 F= -.13560265E+04 E0= -.13560265E+04  d E =-.353467E+01
 BRION: g(F)=  0.294E+01 g(S)=  0.000E+00 retain N=  3 mean eig= 1.22
 eig:   3.063  0.463  0.125
 bond charge predicted
       N       E                     dE             d eps       ncg     rms          rms(c)
DAV:   1    -0.135702419858E+04   -0.99772E+00   -0.18598E+02  1376   0.187E+01    0.310E+00
DAV:   2    -0.135789469703E+04   -0.87050E+00   -0.95449E+00  2280   0.699E+00    0.149E+00
DAV:   3    -0.135790741255E+04   -0.12716E-01   -0.68622E-01  2600   0.150E+00    0.122E+00
DAV:   4    -0.135787492798E+04    0.32485E-01   -0.16046E-01  2552   0.838E-01    0.617E-01
DAV:   5    -0.135786831308E+04    0.66149E-02   -0.59955E-02  2448   0.506E-01    0.384E-01
DAV:   6    -0.135786815125E+04    0.16183E-03   -0.41037E-02  2544   0.383E-01    0.216E-01
DAV:   7    -0.135786825997E+04   -0.10871E-03   -0.13334E-02  2256   0.206E-01    0.184E-01
DAV:   8    -0.135786818200E+04    0.77963E-04   -0.42865E-03  2296   0.111E-01    0.104E-01
DAV:   9    -0.135786806562E+04    0.11639E-03   -0.16687E-03  2616   0.736E-02    0.592E-02
DAV:  10    -0.135786811245E+04   -0.46829E-04   -0.91363E-04  2584   0.559E-02    0.631E-02
DAV:  11    -0.135786806401E+04    0.48439E-04   -0.33452E-04  2528   0.354E-02    0.236E-02
DAV:  12    -0.135786807166E+04   -0.76554E-05   -0.15924E-04  2448   0.225E-02    0.149E-02
DAV:  13    -0.135786807183E+04   -0.16487E-06   -0.27912E-05  2384   0.118E-02    0.919E-03
DAV:  14    -0.135786807182E+04    0.53988E-08   -0.18340E-05  1752   0.722E-03    0.502E-03
DAV:  15    -0.135786807169E+04    0.13299E-06   -0.21523E-06  1048   0.507E-03
   5 F= -.13578681E+04 E0= -.13578681E+04  d E =-.184160E+01
 BRION: g(F)=  0.132E+01 g(S)=  0.000E+00 retain N=  4 mean eig= 1.86
 eig:   3.040  3.040  0.672  0.672
 bond charge predicted
       N       E                     dE             d eps       ncg     rms          rms(c)
DAV:   1    -0.135864355555E+04   -0.77548E+00   -0.21881E+02  1344   0.209E+01    0.289E+00
DAV:   2    -0.135967389672E+04   -0.10303E+01   -0.10906E+01  2288   0.765E+00    0.142E+00
DAV:   3    -0.135971631117E+04   -0.42414E-01   -0.79440E-01  2608   0.158E+00    0.112E+00
DAV:   4    -0.135969427368E+04    0.22037E-01   -0.12433E-01  2552   0.767E-01    0.626E-01
DAV:   5    -0.135968824322E+04    0.60305E-02   -0.46560E-02  2464   0.450E-01    0.297E-01
DAV:   6    -0.135968893397E+04   -0.69075E-03   -0.20919E-02  2560   0.272E-01    0.171E-01
DAV:   7    -0.135968891588E+04    0.18083E-04   -0.57236E-03  2424   0.157E-01    0.116E-01
DAV:   8    -0.135968903699E+04   -0.12110E-03   -0.30336E-03  2464   0.938E-02    0.766E-02
DAV:   9    -0.135968897653E+04    0.60454E-04   -0.52662E-04  2592   0.546E-02    0.513E-02
DAV:  10    -0.135968897999E+04   -0.34580E-05   -0.64717E-04  2480   0.431E-02    0.322E-02
DAV:  11    -0.135968897360E+04    0.63879E-05   -0.15902E-04  2520   0.275E-02    0.124E-02
DAV:  12    -0.135968897720E+04   -0.35956E-05   -0.50554E-05  2440   0.141E-02    0.907E-03
DAV:  13    -0.135968897708E+04    0.12184E-06   -0.12732E-05  1936   0.795E-03    0.530E-03
DAV:  14    -0.135968897695E+04    0.13049E-06   -0.34812E-06  1152   0.545E-03
   6 F= -.13596890E+04 E0= -.13596890E+04  d E =-.182091E+01
 BRION: g(F)=  0.852E+00 g(S)=  0.000E+00 retain N=  5 mean eig= 1.76
 eig:   3.024  3.024  1.022  1.022  0.701
 bond charge predicted
       N       E                     dE             d eps       ncg     rms          rms(c)
DAV:   1    -0.136025783176E+04   -0.56885E+00   -0.51144E+01  1392   0.102E+01    0.158E+00
DAV:   2    -0.136051142405E+04   -0.25359E+00   -0.27354E+00  2288   0.386E+00    0.750E-01
DAV:   3    -0.136052162910E+04   -0.10205E-01   -0.21422E-01  2608   0.816E-01    0.597E-01
DAV:   4    -0.136051525034E+04    0.63788E-02   -0.38285E-02  2544   0.436E-01    0.309E-01
DAV:   5    -0.136051420452E+04    0.10458E-02   -0.14005E-02  2464   0.246E-01    0.172E-01
DAV:   6    -0.136051434672E+04   -0.14220E-03   -0.70185E-03  2560   0.157E-01    0.951E-02
DAV:   7    -0.136051432643E+04    0.20293E-04   -0.19034E-03  2296   0.887E-02    0.716E-02
DAV:   8    -0.136051434845E+04   -0.22019E-04   -0.93553E-04  2408   0.511E-02    0.447E-02
DAV:   9    -0.136051432697E+04    0.21484E-04   -0.18126E-04  2600   0.312E-02    0.288E-02
DAV:  10    -0.136051433117E+04   -0.42043E-05   -0.23664E-04  2448   0.258E-02    0.232E-02
DAV:  11    -0.136051432633E+04    0.48380E-05   -0.69141E-05  2416   0.174E-02    0.837E-03
DAV:  12    -0.136051432767E+04   -0.13335E-05   -0.20414E-05  2144   0.956E-03    0.592E-03
DAV:  13    -0.136051432741E+04    0.25610E-06   -0.28195E-06  1104   0.557E-03
   7 F= -.13605143E+04 E0= -.13605143E+04  d E =-.825350E+00
 BRION: g(F)=  0.617E+00 g(S)=  0.000E+00 retain N=  6 mean eig= 1.95
 eig:   3.309  3.309  1.844  1.844  0.704  0.704
 bond charge predicted
       N       E                     dE             d eps       ncg     rms          rms(c)
DAV:   1    -0.136107205737E+04   -0.55773E+00   -0.11645E+02  1400   0.154E+01    0.195E+00
DAV:   2    -0.136166441867E+04   -0.59236E+00   -0.63187E+00  2296   0.598E+00    0.991E-01
DAV:   3    -0.136169627339E+04   -0.31855E-01   -0.50580E-01  2600   0.122E+00    0.787E-01
DAV:   4    -0.136168610863E+04    0.10165E-01   -0.61095E-02  2600   0.577E-01    0.494E-01
DAV:   5    -0.136168096764E+04    0.51410E-02   -0.27837E-02  2400   0.334E-01    0.211E-01
DAV:   6    -0.136168147240E+04   -0.50476E-03   -0.13250E-02  2496   0.224E-01    0.158E-01
DAV:   7    -0.136168143678E+04    0.35617E-04   -0.59375E-03  2456   0.149E-01    0.111E-01
DAV:   8    -0.136168147328E+04   -0.36499E-04   -0.27453E-03  2560   0.937E-02    0.705E-02
DAV:   9    -0.136168143593E+04    0.37348E-04   -0.44521E-04  2544   0.481E-02    0.509E-02
DAV:  10    -0.136168143342E+04    0.25079E-05   -0.41848E-04  2424   0.345E-02    0.290E-02
DAV:  11    -0.136168143090E+04    0.25178E-05   -0.12454E-04  2480   0.244E-02    0.118E-02
DAV:  12    -0.136168143390E+04   -0.29914E-05   -0.47143E-05  2392   0.140E-02    0.120E-02
DAV:  13    -0.136168143247E+04    0.14284E-05   -0.18168E-05  1984   0.855E-03    0.578E-03
DAV:  14    -0.136168143274E+04   -0.27611E-06   -0.85303E-06  1728   0.593E-03
   8 F= -.13616814E+04 E0= -.13616814E+04  d E =-.116711E+01
 BRION: g(F)=  0.484E+00 g(S)=  0.000E+00 retain N=  7 mean eig= 2.27
 eig:   3.223  3.223  3.460  3.460  0.845  0.845  0.799
 bond charge predicted
       N       E                     dE             d eps       ncg     rms          rms(c)
DAV:   1    -0.136212424987E+04   -0.44282E+00   -0.55256E+01  1400   0.105E+01    0.135E+00
DAV:   2    -0.136241262728E+04   -0.28838E+00   -0.30637E+00  2296   0.418E+00    0.679E-01
DAV:   3    -0.136242813820E+04   -0.15511E-01   -0.24192E-01  2600   0.827E-01    0.546E-01
DAV:   4    -0.136242308513E+04    0.50531E-02   -0.29440E-02  2592   0.397E-01    0.335E-01
DAV:   5    -0.136242079215E+04    0.22930E-02   -0.12957E-02  2384   0.227E-01    0.138E-01
DAV:   6    -0.136242114163E+04   -0.34947E-03   -0.58860E-03  2528   0.144E-01    0.102E-01
DAV:   7    -0.136242110372E+04    0.37906E-04   -0.20985E-03  2520   0.905E-02    0.692E-02
DAV:   8    -0.136242112001E+04   -0.16289E-04   -0.10554E-03  2592   0.577E-02    0.430E-02
DAV:   9    -0.136242110829E+04    0.11714E-04   -0.18156E-04  2496   0.299E-02    0.325E-02
DAV:  10    -0.136242110530E+04    0.29963E-05   -0.14400E-04  2520   0.215E-02    0.178E-02
DAV:  11    -0.136242110524E+04    0.60289E-07   -0.49193E-05  2368   0.148E-02    0.788E-03
DAV:  12    -0.136242110607E+04   -0.83786E-06   -0.14395E-05  1944   0.896E-03    0.725E-03
DAV:  13    -0.136242110568E+04    0.39880E-06   -0.80976E-06  1608   0.578E-03
   9 F= -.13624211E+04 E0= -.13624211E+04  d E =-.739673E+00
 BRION: g(F)=  0.376E+00 g(S)=  0.000E+00 retain N=  8 mean eig= 3.09
 eig:   7.067  7.067  3.290  3.290  1.255  1.255  0.750  0.750
 bond charge predicted
       N       E                     dE             d eps       ncg     rms          rms(c)
DAV:   1    -0.136274863573E+04   -0.32753E+00   -0.12305E+02  1400   0.156E+01    0.190E+00
DAV:   2    -0.136338875168E+04   -0.64012E+00   -0.67755E+00  2304   0.625E+00    0.959E-01
DAV:   3    -0.136342360736E+04   -0.34856E-01   -0.52778E-01  2584   0.120E+00    0.774E-01
DAV:   4    -0.136341337524E+04    0.10232E-01   -0.57486E-02  2568   0.552E-01    0.502E-01
DAV:   5    -0.136340691879E+04    0.64564E-02   -0.26833E-02  2336   0.323E-01    0.193E-01
DAV:   6    -0.136340769563E+04   -0.77684E-03   -0.13859E-02  2440   0.213E-01    0.148E-01
DAV:   7    -0.136340762237E+04    0.73263E-04   -0.50601E-03  2488   0.137E-01    0.100E-01
DAV:   8    -0.136340764476E+04   -0.22387E-04   -0.21461E-03  2600   0.849E-02    0.602E-02
DAV:   9    -0.136340762846E+04    0.16295E-04   -0.39646E-04  2496   0.433E-02    0.457E-02
DAV:  10    -0.136340762853E+04   -0.65484E-07   -0.22008E-04  2576   0.271E-02    0.240E-02
DAV:  11    -0.136340762943E+04   -0.90215E-06   -0.83036E-05  2496   0.192E-02    0.125E-02
DAV:  12    -0.136340762989E+04   -0.46205E-06   -0.30338E-05  2352   0.125E-02    0.106E-02
DAV:  13    -0.136340762946E+04    0.42706E-06   -0.20357E-05  2128   0.806E-03    0.570E-03
DAV:  14    -0.136340762930E+04    0.15917E-06   -0.30618E-06  1120   0.527E-03
  10 F= -.13634076E+04 E0= -.13634076E+04  d E =-.986524E+00
 BRION: g(F)=  0.309E+00 g(S)=  0.000E+00 retain N=  7 mean eig= 3.43
 eig:   7.859  7.859  2.498  2.498  1.092  1.092  1.144
 bond charge predicted
       N       E                     dE             d eps       ncg     rms          rms(c)
DAV:   1    -0.136368297097E+04   -0.27534E+00   -0.93484E+01  1392   0.136E+01    0.163E+00
DAV:   2    -0.136416684531E+04   -0.48387E+00   -0.51157E+00  2304   0.544E+00    0.824E-01
DAV:   3    -0.136419391850E+04   -0.27073E-01   -0.40275E-01  2600   0.105E+00    0.668E-01
DAV:   4    -0.136418673490E+04    0.71836E-02   -0.39948E-02  2592   0.466E-01    0.453E-01
DAV:   5    -0.136418082884E+04    0.59061E-02   -0.21092E-02  2304   0.287E-01    0.171E-01
DAV:   6    -0.136418150393E+04   -0.67509E-03   -0.12830E-02  2432   0.204E-01    0.149E-01
DAV:   7    -0.136418137411E+04    0.12982E-03   -0.46139E-03  2416   0.128E-01    0.102E-01
DAV:   8    -0.136418135977E+04    0.14343E-04   -0.20124E-03  2600   0.823E-02    0.564E-02
DAV:   9    -0.136418134305E+04    0.16715E-04   -0.35035E-04  2408   0.402E-02    0.422E-02
DAV:  10    -0.136418134330E+04   -0.24805E-06   -0.18484E-04  2440   0.245E-02    0.219E-02
DAV:  11    -0.136418134401E+04   -0.70661E-06   -0.64074E-05  2440   0.174E-02    0.111E-02
DAV:  12    -0.136418134526E+04   -0.12467E-05   -0.30578E-05  2376   0.117E-02    0.109E-02
DAV:  13    -0.136418134424E+04    0.10208E-05   -0.15250E-05  1840   0.756E-03    0.584E-03
DAV:  14    -0.136418134418E+04    0.58426E-07   -0.52355E-06  1424   0.555E-03
  11 F= -.13641813E+04 E0= -.13641813E+04  d E =-.773715E+00
 BRION: g(F)=  0.271E+00 g(S)=  0.000E+00 retain N=  6 mean eig= 4.25
 eig:   7.930  7.930  3.535  3.535  1.294  1.294
 bond charge predicted
       N       E                     dE             d eps       ncg     rms          rms(c)
DAV:   1    -0.136445357739E+04   -0.27223E+00   -0.57956E+01  1400   0.107E+01    0.123E+00
DAV:   2    -0.136474653724E+04   -0.29296E+00   -0.30914E+00  2312   0.424E+00    0.638E-01
DAV:   3    -0.136476276474E+04   -0.16227E-01   -0.24250E-01  2600   0.794E-01    0.515E-01
DAV:   4    -0.136475827617E+04    0.44886E-02   -0.23402E-02  2592   0.354E-01    0.347E-01
DAV:   5    -0.136475463470E+04    0.36415E-02   -0.12251E-02  2280   0.216E-01    0.127E-01
DAV:   6    -0.136475499201E+04   -0.35730E-03   -0.72199E-03  2416   0.151E-01    0.104E-01
DAV:   7    -0.136475494998E+04    0.42025E-04   -0.24337E-03  2424   0.921E-02    0.696E-02
DAV:   8    -0.136475495258E+04   -0.25978E-05   -0.94369E-04  2616   0.569E-02    0.393E-02
DAV:   9    -0.136475494608E+04    0.64958E-05   -0.17880E-04  2400   0.291E-02    0.304E-02
DAV:  10    -0.136475494666E+04   -0.57768E-06   -0.91673E-05  2456   0.176E-02    0.160E-02
DAV:  11    -0.136475494683E+04   -0.16452E-06   -0.35252E-05  2400   0.128E-02    0.824E-03
DAV:  12    -0.136475494740E+04   -0.57514E-06   -0.16390E-05  2152   0.892E-03    0.796E-03
DAV:  13    -0.136475494671E+04    0.69228E-06   -0.57182E-06  1424   0.565E-03
  12 F= -.13647549E+04 E0= -.13647549E+04  d E =-.573603E+00
 BRION: g(F)=  0.243E+00 g(S)=  0.000E+00 retain N=  3 mean eig= 5.74
 eig:   7.592  7.592  2.040
 bond charge predicted
       N       E                     dE             d eps       ncg     rms          rms(c)
DAV:   1    -0.136500347476E+04   -0.24853E+00   -0.70796E+01  1368   0.119E+01    0.136E+00
DAV:   2    -0.136535499119E+04   -0.35152E+00   -0.37108E+00  2296   0.461E+00    0.699E-01
DAV:   3    -0.136537520371E+04   -0.20213E-01   -0.29582E-01  2592   0.895E-01    0.561E-01
DAV:   4    -0.136537030409E+04    0.48996E-02   -0.27858E-02  2576   0.385E-01    0.382E-01
DAV:   5    -0.136536605638E+04    0.42477E-02   -0.15108E-02  2216   0.240E-01    0.144E-01
DAV:   6    -0.136536651634E+04   -0.45996E-03   -0.88801E-03  2432   0.170E-01    0.128E-01
DAV:   7    -0.136536642223E+04    0.94105E-04   -0.33449E-03  2472   0.109E-01    0.841E-02
DAV:   8    -0.136536641043E+04    0.11803E-04   -0.13603E-03  2576   0.689E-02    0.487E-02
DAV:   9    -0.136536640136E+04    0.90675E-05   -0.23012E-04  2480   0.334E-02    0.362E-02
DAV:  10    -0.136536640040E+04    0.95640E-06   -0.13401E-04  2488   0.204E-02    0.166E-02
DAV:  11    -0.136536640209E+04   -0.16877E-05   -0.40294E-05  2432   0.145E-02    0.846E-03
DAV:  12    -0.136536640257E+04   -0.47436E-06   -0.17054E-05  2160   0.911E-03    0.829E-03
DAV:  13    -0.136536640200E+04    0.56633E-06   -0.69741E-06  1520   0.575E-03
  13 F= -.13653664E+04 E0= -.13653664E+04  d E =-.611455E+00
 BRION: g(F)=  0.221E+00 g(S)=  0.000E+00 retain N=  3 mean eig= 4.98
 eig:   6.453  6.453  2.046
 bond charge predicted
       N       E                     dE             d eps       ncg     rms          rms(c)
DAV:   1    -0.136560186729E+04   -0.23546E+00   -0.30882E+01  1384   0.785E+00    0.923E-01
DAV:   2    -0.136575526687E+04   -0.15340E+00   -0.16200E+00  2312   0.307E+00    0.469E-01
DAV:   3    -0.136576363477E+04   -0.83679E-02   -0.12674E-01  2600   0.590E-01    0.368E-01
DAV:   4    -0.136576099883E+04    0.26359E-02   -0.12948E-02  2568   0.263E-01    0.232E-01
DAV:   5    -0.136575956016E+04    0.14387E-02   -0.66214E-03  2328   0.163E-01    0.868E-02
DAV:   6    -0.136575977918E+04   -0.21902E-03   -0.33464E-03  2520   0.107E-01    0.752E-02
DAV:   7    -0.136575975910E+04    0.20079E-04   -0.10493E-03  2496   0.629E-02    0.501E-02
DAV:   8    -0.136575975499E+04    0.41085E-05   -0.41437E-04  2584   0.381E-02    0.270E-02
DAV:   9    -0.136575975236E+04    0.26345E-05   -0.72602E-05  2488   0.194E-02    0.200E-02
DAV:  10    -0.136575975270E+04   -0.34134E-06   -0.59418E-05  2296   0.141E-02    0.119E-02
DAV:  11    -0.136575975222E+04    0.47329E-06   -0.18453E-05  2144   0.984E-03    0.533E-03
DAV:  12    -0.136575975280E+04   -0.57358E-06   -0.95857E-06  1744   0.622E-03
  14 F= -.13657598E+04 E0= -.13657598E+04  d E =-.393351E+00
 BRION: g(F)=  0.209E+00 g(S)=  0.000E+00 retain N=  3 mean eig= 3.66
 eig:   4.663  4.663  1.645
 bond charge predicted
       N       E                     dE             d eps       ncg     rms          rms(c)
DAV:   1    -0.136599673952E+04   -0.23699E+00   -0.35256E+01  1360   0.836E+00    0.958E-01
DAV:   2    -0.136617094478E+04   -0.17421E+00   -0.18363E+00  2320   0.324E+00    0.494E-01
DAV:   3    -0.136618054041E+04   -0.95956E-02   -0.14212E-01  2600   0.624E-01    0.385E-01
DAV:   4    -0.136617789454E+04    0.26459E-02   -0.14024E-02  2576   0.271E-01    0.248E-01
DAV:   5    -0.136617628369E+04    0.16109E-02   -0.68681E-03  2328   0.163E-01    0.928E-02
DAV:   6    -0.136617647441E+04   -0.19072E-03   -0.32657E-03  2496   0.105E-01    0.719E-02
DAV:   7    -0.136617646679E+04    0.76228E-05   -0.11490E-03  2512   0.651E-02    0.462E-02
DAV:   8    -0.136617647109E+04   -0.43055E-05   -0.40695E-04  2592   0.390E-02    0.284E-02
DAV:   9    -0.136617646841E+04    0.26807E-05   -0.84257E-05  2504   0.201E-02    0.212E-02
DAV:  10    -0.136617646872E+04   -0.30792E-06   -0.60332E-05  2520   0.138E-02    0.109E-02
DAV:  11    -0.136617646850E+04    0.22557E-06   -0.19500E-05  2168   0.989E-03    0.484E-03
DAV:  12    -0.136617646876E+04   -0.26483E-06   -0.63673E-06  1576   0.612E-03
  15 F= -.13661765E+04 E0= -.13661765E+04  d E =-.416716E+00
 BRION: g(F)=  0.193E+00 g(S)=  0.000E+00 retain N=  3 mean eig= 4.72
 eig:   6.304  6.304  1.541
 bond charge predicted
       N       E                     dE             d eps       ncg     rms          rms(c)
DAV:   1    -0.136640117536E+04   -0.22471E+00   -0.30972E+01  1360   0.785E+00    0.895E-01
DAV:   2    -0.136655477868E+04   -0.15360E+00   -0.16171E+00  2304   0.303E+00    0.455E-01
DAV:   3    -0.136656375854E+04   -0.89799E-02   -0.12734E-01  2592   0.593E-01    0.351E-01
DAV:   4    -0.136656167171E+04    0.20868E-02   -0.11742E-02  2584   0.254E-01    0.233E-01
DAV:   5    -0.136656033280E+04    0.13389E-02   -0.58768E-03  2376   0.147E-01    0.859E-02
DAV:   6    -0.136656049444E+04   -0.16164E-03   -0.27170E-03  2488   0.951E-02    0.653E-02
DAV:   7    -0.136656050073E+04   -0.62870E-05   -0.10153E-03  2520   0.607E-02    0.429E-02
DAV:   8    -0.136656049936E+04    0.13710E-05   -0.31927E-04  2568   0.362E-02    0.269E-02
DAV:   9    -0.136656049690E+04    0.24576E-05   -0.79152E-05  2504   0.190E-02    0.189E-02
DAV:  10    -0.136656049762E+04   -0.72196E-06   -0.48304E-05  2520   0.127E-02    0.993E-03
DAV:  11    -0.136656049702E+04    0.60220E-06   -0.11005E-05  1760   0.850E-03    0.447E-03
DAV:  12    -0.136656049773E+04   -0.71469E-06   -0.10547E-05  1744   0.645E-03    0.488E-03
DAV:  13    -0.136656049736E+04    0.36992E-06   -0.97402E-07   984   0.409E-03
  16 F= -.13665605E+04 E0= -.13665605E+04  d E =-.384029E+00
 BRION: g(F)=  0.181E+00 g(S)=  0.000E+00 retain N=  3 mean eig= 4.00
 eig:   5.312  5.312  1.378
 bond charge predicted
       N       E                     dE             d eps       ncg     rms          rms(c)
DAV:   1    -0.136677120504E+04   -0.21071E+00   -0.47675E+01  1360   0.976E+00    0.112E+00
DAV:   2    -0.136701131529E+04   -0.24011E+00   -0.25297E+00  2336   0.381E+00    0.575E-01
DAV:   3    -0.136702435399E+04   -0.13039E-01   -0.19120E-01  2600   0.733E-01    0.441E-01
DAV:   4    -0.136702082332E+04    0.35307E-02   -0.19170E-02  2576   0.320E-01    0.283E-01
DAV:   5    -0.136701887878E+04    0.19445E-02   -0.87306E-03  2384   0.185E-01    0.107E-01
DAV:   6    -0.136701910886E+04   -0.23008E-03   -0.41460E-03  2496   0.117E-01    0.758E-02
DAV:   7    -0.136701912100E+04   -0.12140E-04   -0.13729E-03  2480   0.734E-02    0.510E-02
DAV:   8    -0.136701912667E+04   -0.56724E-05   -0.49325E-04  2584   0.424E-02    0.308E-02
DAV:   9    -0.136701912404E+04    0.26312E-05   -0.11541E-04  2560   0.234E-02    0.226E-02
DAV:  10    -0.136701912444E+04   -0.39558E-06   -0.79491E-05  2560   0.163E-02    0.126E-02
DAV:  11    -0.136701912367E+04    0.76721E-06   -0.24205E-05  2248   0.108E-02    0.537E-03
DAV:  12    -0.136701912424E+04   -0.57138E-06   -0.97861E-06  1760   0.682E-03
  17 F= -.13670191E+04 E0= -.13670191E+04  d E =-.458627E+00
 BRION: g(F)=  0.165E+00 g(S)=  0.000E+00 retain N=  3 mean eig= 5.45
 eig:   7.378  7.378  1.596
 bond charge predicted
       N       E                     dE             d eps       ncg     rms          rms(c)
DAV:   1    -0.136719307190E+04   -0.17395E+00   -0.65086E+01  1360   0.114E+01    0.129E+00
DAV:   2    -0.136751925074E+04   -0.32618E+00   -0.34414E+00  2296   0.442E+00    0.657E-01
DAV:   3    -0.136753933229E+04   -0.20082E-01   -0.27858E-01  2592   0.866E-01    0.512E-01
DAV:   4    -0.136753535156E+04    0.39807E-02   -0.24815E-02  2592   0.372E-01    0.354E-01
DAV:   5    -0.136753208234E+04    0.32692E-02   -0.11554E-02  2360   0.211E-01    0.139E-01
DAV:   6    -0.136753224626E+04   -0.16393E-03   -0.66121E-03  2400   0.147E-01    0.943E-02
DAV:   7    -0.136753230284E+04   -0.56575E-04   -0.28198E-03  2440   0.986E-02    0.666E-02
DAV:   8    -0.136753230244E+04    0.40096E-06   -0.81686E-04  2608   0.579E-02    0.439E-02
DAV:   9    -0.136753229275E+04    0.96866E-05   -0.23451E-04  2560   0.316E-02    0.296E-02
DAV:  10    -0.136753229562E+04   -0.28646E-05   -0.12388E-04  2576   0.203E-02    0.164E-02
DAV:  11    -0.136753229563E+04   -0.15483E-07   -0.38478E-05  2408   0.137E-02    0.815E-03
DAV:  12    -0.136753229596E+04   -0.32640E-06   -0.18173E-05  2048   0.926E-03    0.706E-03
DAV:  13    -0.136753229548E+04    0.47819E-06   -0.48124E-06  1312   0.563E-03
  18 F= -.13675323E+04 E0= -.13675323E+04  d E =-.513171E+00
 BRION: g(F)=  0.149E+00 g(S)=  0.000E+00 retain N=  2 mean eig= 5.11
 eig:   5.114  5.114
 bond charge predicted
       N       E                     dE             d eps       ncg     rms          rms(c)
DAV:   1    -0.136770188912E+04   -0.16959E+00   -0.34499E+01  1368   0.837E+00    0.963E-01
DAV:   2    -0.136787685397E+04   -0.17496E+00   -0.18541E+00  2296   0.329E+00    0.491E-01
DAV:   3    -0.136788748089E+04   -0.10627E-01   -0.14959E-01  2592   0.633E-01    0.384E-01
DAV:   4    -0.136788516375E+04    0.23171E-02   -0.13742E-02  2592   0.280E-01    0.262E-01
DAV:   5    -0.136788339963E+04    0.17641E-02   -0.68386E-03  2344   0.163E-01    0.100E-01
DAV:   6    -0.136788356081E+04   -0.16118E-03   -0.38810E-03  2424   0.114E-01    0.765E-02
DAV:   7    -0.136788357470E+04   -0.13888E-04   -0.15618E-03  2432   0.731E-02    0.525E-02
DAV:   8    -0.136788357195E+04    0.27563E-05   -0.49083E-04  2600   0.435E-02    0.309E-02
DAV:   9    -0.136788356749E+04    0.44543E-05   -0.11903E-04  2496   0.233E-02    0.222E-02
DAV:  10    -0.136788356930E+04   -0.18090E-05   -0.77331E-05  2512   0.159E-02    0.137E-02
DAV:  11    -0.136788356841E+04    0.89177E-06   -0.27556E-05  2304   0.116E-02    0.631E-03
DAV:  12    -0.136788356879E+04   -0.38407E-06   -0.10692E-05  1768   0.759E-03    0.580E-03
DAV:  13    -0.136788356828E+04    0.51360E-06   -0.21284E-06  1040   0.494E-03
  19 F= -.13678836E+04 E0= -.13678836E+04  d E =-.351273E+00
 BRION: g(F)=  0.138E+00 g(S)=  0.000E+00 retain N=  3 mean eig= 5.28
 eig:   6.785  6.785  2.265
 bond charge predicted
       N       E                     dE             d eps       ncg     rms          rms(c)
DAV:   1    -0.136801179726E+04   -0.12823E+00   -0.55547E+01  1368   0.105E+01    0.120E+00
DAV:   2    -0.136829247435E+04   -0.28068E+00   -0.29669E+00  2296   0.412E+00    0.617E-01
DAV:   3    -0.136830926723E+04   -0.16793E-01   -0.23733E-01  2592   0.798E-01    0.482E-01
DAV:   4    -0.136830562727E+04    0.36400E-02   -0.21627E-02  2600   0.347E-01    0.330E-01
DAV:   5    -0.136830285049E+04    0.27768E-02   -0.95126E-03  2384   0.195E-01    0.132E-01
DAV:   6    -0.136830294028E+04   -0.89792E-04   -0.57566E-03  2400   0.138E-01    0.837E-02
DAV:   7    -0.136830300485E+04   -0.64570E-04   -0.24300E-03  2424   0.929E-02    0.623E-02
DAV:   8    -0.136830300536E+04   -0.51003E-06   -0.69096E-04  2624   0.522E-02    0.397E-02
DAV:   9    -0.136830299754E+04    0.78189E-05   -0.21857E-04  2584   0.300E-02    0.262E-02
DAV:  10    -0.136830300143E+04   -0.38879E-05   -0.10458E-04  2552   0.192E-02    0.165E-02
DAV:  11    -0.136830300068E+04    0.74500E-06   -0.38387E-05  2400   0.132E-02    0.806E-03
DAV:  12    -0.136830300090E+04   -0.21399E-06   -0.17686E-05  2000   0.923E-03    0.686E-03
DAV:  13    -0.136830300047E+04    0.42675E-06   -0.50917E-06  1328   0.562E-03
  20 F= -.13683030E+04 E0= -.13683030E+04  d E =-.419432E+00
 BRION: g(F)=  0.124E+00 g(S)=  0.000E+00 retain N=  2 mean eig= 3.92
 eig:   3.919  3.919
