 running on  160 total cores
 distrk:  each k-point on  160 cores,    1 groups
 distr:  one band on   20 cores,    8 groups
 using from now: INCAR     
 vasp.5.4.4.18Apr17-6-g9f103f2a35 (build May 01 2020 14:22:42) gamma-only       
  
 POSCAR found type information on POSCAR  O  La Zr Li Al
 POSCAR found :  5 types and     190 ions
 scaLAPACK will be used
 LDA part: xc-table for Pade appr. of Perdew
 POSCAR, INCAR and KPOINTS ok, starting setup
 FFT: planning ...
 WAVECAR not read
 WARNING: random wavefunctions but no delay for mixing, default for NELMDL
 entering main loop
       N       E                     dE             d eps       ncg     rms          rms(c)
DAV:   1     0.253575727500E+05    0.25358E+05   -0.42124E+05  1568   0.253E+03
DAV:   2     0.939828800530E+04   -0.15959E+05   -0.14770E+05  1432   0.706E+02
DAV:   3     0.263578763506E+04   -0.67625E+04   -0.61689E+04  1512   0.356E+02
DAV:   4    -0.398421035533E+03   -0.30342E+04   -0.28318E+04  2056   0.224E+02
DAV:   5    -0.142615656342E+04   -0.10277E+04   -0.98996E+03  2536   0.139E+02    0.117E+02
DAV:   6    -0.130926441730E+04    0.11689E+03   -0.14362E+03  2432   0.651E+01    0.501E+01
DAV:   7    -0.133258806728E+04   -0.23324E+02   -0.39156E+02  2560   0.335E+01    0.249E+01
DAV:   8    -0.134180428699E+04   -0.92162E+01   -0.26834E+02  2528   0.274E+01    0.264E+01
DAV:   9    -0.133446382595E+04    0.73405E+01   -0.59055E+01  2480   0.152E+01    0.769E+00
DAV:  10    -0.133567019844E+04   -0.12064E+01   -0.16184E+01  2616   0.855E+00    0.838E+00
DAV:  11    -0.133583333257E+04   -0.16313E+00   -0.80539E+00  2624   0.476E+00    0.449E+00
DAV:  12    -0.133564788799E+04    0.18544E+00   -0.29461E+00  2552   0.387E+00    0.283E+00
DAV:  13    -0.133573378908E+04   -0.85901E-01   -0.10581E+00  2576   0.183E+00    0.211E+00
DAV:  14    -0.133571407035E+04    0.19719E-01   -0.33545E-01  2592   0.122E+00    0.118E+00
DAV:  15    -0.133572430719E+04   -0.10237E-01   -0.11547E-01  2584   0.637E-01    0.101E+00
DAV:  16    -0.133572362123E+04    0.68596E-03   -0.34214E-02  2624   0.379E-01    0.698E-01
DAV:  17    -0.133572133960E+04    0.22816E-02   -0.31113E-02  2448   0.330E-01    0.332E-01
DAV:  18    -0.133572177739E+04   -0.43779E-03   -0.58393E-03  2496   0.175E-01    0.173E-01
DAV:  19    -0.133572178797E+04   -0.10580E-04   -0.26275E-03  2600   0.100E-01    0.129E-01
DAV:  20    -0.133572183196E+04   -0.43991E-04   -0.60691E-04  2560   0.509E-02    0.454E-02
DAV:  21    -0.133572184845E+04   -0.16488E-04   -0.21428E-04  2624   0.265E-02    0.505E-02
DAV:  22    -0.133572186844E+04   -0.19987E-04   -0.74209E-05  2488   0.175E-02    0.182E-02
DAV:  23    -0.133572186378E+04    0.46544E-05   -0.35248E-05  2104   0.113E-02    0.140E-02
DAV:  24    -0.133572186948E+04   -0.56962E-05   -0.18597E-05  2000   0.996E-03    0.651E-03
DAV:  25    -0.133572186992E+04   -0.43702E-06   -0.36848E-06  1040   0.506E-03
   1 F= -.13357219E+04 E0= -.13357219E+04  d E =-.133572E+04
 BRION: g(F)=  0.499E+02 g(S)=  0.000E+00
 bond charge predicted
       N       E                     dE             d eps       ncg     rms          rms(c)
DAV:   1    -0.130948379441E+04    0.26238E+02   -0.58795E+03  1608   0.112E+02    0.254E+01
DAV:   2    -0.135328027713E+04   -0.43796E+02   -0.51235E+02  2536   0.502E+01    0.120E+01
DAV:   3    -0.135265204660E+04    0.62823E+00   -0.31811E+01  2600   0.143E+01    0.810E+00
DAV:   4    -0.135125880291E+04    0.13932E+01   -0.92989E+00  2440   0.644E+00    0.395E+00
DAV:   5    -0.135103623829E+04    0.22256E+00   -0.24307E+00  2504   0.361E+00    0.260E+00
DAV:   6    -0.135098104314E+04    0.55195E-01   -0.21136E+00  2608   0.270E+00    0.143E+00
DAV:   7    -0.135098270804E+04   -0.16649E-02   -0.44854E-01  2528   0.148E+00    0.107E+00
DAV:   8    -0.135097798459E+04    0.47234E-02   -0.23203E-01  2624   0.804E-01    0.517E-01
DAV:   9    -0.135097886304E+04   -0.87845E-03   -0.34316E-02  2616   0.442E-01    0.396E-01
DAV:  10    -0.135097672521E+04    0.21378E-02   -0.20663E-02  2576   0.304E-01    0.147E-01
DAV:  11    -0.135097773565E+04   -0.10104E-02   -0.12222E-02  2584   0.211E-01    0.156E-01
DAV:  12    -0.135097761749E+04    0.11816E-03   -0.18802E-03  2608   0.916E-02    0.874E-02
DAV:  13    -0.135097755695E+04    0.60536E-04   -0.12060E-03  2424   0.624E-02    0.220E-02
DAV:  14    -0.135097758115E+04   -0.24202E-04   -0.24639E-04  2432   0.351E-02    0.111E-02
DAV:  15    -0.135097758881E+04   -0.76584E-05   -0.57011E-05  2624   0.151E-02    0.122E-02
DAV:  16    -0.135097758724E+04    0.15742E-05   -0.16029E-05  2072   0.963E-03    0.782E-03
DAV:  17    -0.135097758875E+04   -0.15168E-05   -0.23959E-05  1976   0.825E-03    0.520E-03
DAV:  18    -0.135097758823E+04    0.51911E-06   -0.18953E-06  1040   0.532E-03
   2 F= -.13509776E+04 E0= -.13509776E+04  d E =-.152557E+02
 BRION: g(F)=  0.768E+02 g(S)=  0.000E+00 retain N=  1 mean eig= 0.42
 eig:   0.422
 bond charge predicted
       N       E                     dE             d eps       ncg     rms          rms(c)
DAV:   1    -0.133975634918E+04    0.11221E+02   -0.18537E+03  1336   0.518E+01    0.184E+01
DAV:   2    -0.136053975649E+04   -0.20783E+02   -0.26815E+02  2528   0.276E+01    0.166E+01
DAV:   3    -0.135824505014E+04    0.22947E+01   -0.25263E+01  2464   0.101E+01    0.116E+01
DAV:   4    -0.135695679052E+04    0.12883E+01   -0.26024E+01  2112   0.585E+00    0.548E+00
DAV:   5    -0.135721060289E+04   -0.25381E+00   -0.43619E+00  2328   0.345E+00    0.596E+00
DAV:   6    -0.135658647426E+04    0.62413E+00   -0.54891E+00  2320   0.272E+00    0.115E+00
DAV:   7    -0.135663514090E+04   -0.48667E-01   -0.78473E-01  2336   0.191E+00    0.106E+00
DAV:   8    -0.135662906014E+04    0.60808E-02   -0.22735E-01  2600   0.793E-01    0.637E-01
DAV:   9    -0.135662554884E+04    0.35113E-02   -0.64278E-02  2544   0.465E-01    0.285E-01
DAV:  10    -0.135662638084E+04   -0.83200E-03   -0.19080E-02  2600   0.254E-01    0.163E-01
DAV:  11    -0.135662648166E+04   -0.10082E-03   -0.40979E-03  2608   0.134E-01    0.148E-01
DAV:  12    -0.135662621702E+04    0.26464E-03   -0.22461E-03  2592   0.856E-02    0.551E-02
DAV:  13    -0.135662625519E+04   -0.38177E-04   -0.94312E-04  2544   0.577E-02    0.346E-02
DAV:  14    -0.135662626774E+04   -0.12546E-04   -0.17886E-04  2616   0.266E-02    0.291E-02
DAV:  15    -0.135662625840E+04    0.93340E-05   -0.51599E-05  2584   0.160E-02    0.164E-02
DAV:  16    -0.135662625866E+04   -0.25071E-06   -0.60810E-05  2480   0.127E-02    0.526E-03
DAV:  17    -0.135662625898E+04   -0.32652E-06   -0.41266E-06  1312   0.598E-03
   3 F= -.13566263E+04 E0= -.13566263E+04  d E =-.564867E+01
 BRION: g(F)=  0.191E+02 g(S)=  0.000E+00 retain N=  2 mean eig= 1.01
 eig:   0.223  1.789
 bond charge predicted
       N       E                     dE             d eps       ncg     rms          rms(c)
DAV:   1    -0.135561926237E+04    0.10070E+01   -0.60678E+02  1368   0.281E+01    0.766E+00
DAV:   2    -0.136004693750E+04   -0.44277E+01   -0.53092E+01  2352   0.142E+01    0.453E+00
DAV:   3    -0.135986109288E+04    0.18584E+00   -0.36599E+00  2440   0.474E+00    0.374E+00
DAV:   4    -0.135965944523E+04    0.20165E+00   -0.24251E+00  2184   0.228E+00    0.164E+00
DAV:   5    -0.135967156906E+04   -0.12124E-01   -0.54300E-01  2368   0.138E+00    0.187E+00
DAV:   6    -0.135961333611E+04    0.58233E-01   -0.41984E-01  2392   0.120E+00    0.715E-01
DAV:   7    -0.135961896178E+04   -0.56257E-02   -0.21085E-01  2392   0.758E-01    0.634E-01
DAV:   8    -0.135961910331E+04   -0.14153E-03   -0.34380E-02  2464   0.331E-01    0.547E-01
DAV:   9    -0.135961377474E+04    0.53286E-02   -0.16757E-02  2448   0.232E-01    0.255E-01
DAV:  10    -0.135961451576E+04   -0.74102E-03   -0.26055E-02  2320   0.231E-01    0.192E-01
DAV:  11    -0.135961389942E+04    0.61634E-03   -0.43019E-03  2504   0.129E-01    0.818E-02
DAV:  12    -0.135961394377E+04   -0.44346E-04   -0.13770E-03  2528   0.636E-02    0.269E-02
DAV:  13    -0.135961395611E+04   -0.12342E-04   -0.11207E-04  2520   0.234E-02    0.173E-02
DAV:  14    -0.135961395679E+04   -0.68382E-06   -0.38887E-05  2544   0.119E-02    0.997E-03
DAV:  15    -0.135961395715E+04   -0.35929E-06   -0.16659E-05  2264   0.844E-03    0.459E-03
DAV:  16    -0.135961395719E+04   -0.38912E-07   -0.18714E-06  1096   0.411E-03
   4 F= -.13596140E+04 E0= -.13596140E+04  d E =-.298770E+01
 BRION: g(F)=  0.511E+01 g(S)=  0.000E+00 retain N=  3 mean eig= 2.42
 eig:   6.506  0.378  0.378
 bond charge predicted
       N       E                     dE             d eps       ncg     rms          rms(c)
DAV:   1    -0.136111532572E+04   -0.15014E+01   -0.23046E+02  1352   0.212E+01    0.374E+00
DAV:   2    -0.136226735308E+04   -0.11520E+01   -0.12394E+01  2280   0.789E+00    0.186E+00
DAV:   3    -0.136228530562E+04   -0.17953E-01   -0.89261E-01  2616   0.175E+00    0.152E+00
DAV:   4    -0.136224412332E+04    0.41182E-01   -0.26004E-01  2520   0.101E+00    0.722E-01
DAV:   5    -0.136224087002E+04    0.32533E-02   -0.75597E-02  2472   0.606E-01    0.489E-01
DAV:   6    -0.136224022170E+04    0.64833E-03   -0.58394E-02  2544   0.421E-01    0.238E-01
DAV:   7    -0.136224017507E+04    0.46622E-04   -0.10881E-02  2400   0.214E-01    0.204E-01
DAV:   8    -0.136223998794E+04    0.18713E-03   -0.52720E-03  2336   0.120E-01    0.102E-01
DAV:   9    -0.136223993330E+04    0.54646E-04   -0.21346E-03  2544   0.835E-02    0.592E-02
DAV:  10    -0.136223995413E+04   -0.20835E-04   -0.66974E-04  2352   0.534E-02    0.582E-02
DAV:  11    -0.136223992665E+04    0.27480E-04   -0.33245E-04  2520   0.343E-02    0.262E-02
DAV:  12    -0.136223992976E+04   -0.31059E-05   -0.17775E-04  2456   0.222E-02    0.172E-02
DAV:  13    -0.136223992943E+04    0.32465E-06   -0.27464E-05  2368   0.119E-02    0.106E-02
DAV:  14    -0.136223992870E+04    0.73329E-06   -0.13292E-05  1752   0.668E-03    0.433E-03
DAV:  15    -0.136223992861E+04    0.94980E-07   -0.23748E-06  1040   0.518E-03
   5 F= -.13622399E+04 E0= -.13622399E+04  d E =-.262597E+01
 BRION: g(F)=  0.225E+01 g(S)=  0.000E+00 retain N=  4 mean eig= 1.91
 eig:   6.443  0.022  0.691  0.480
 bond charge predicted
       N       E                     dE             d eps       ncg     rms          rms(c)
DAV:   1    -0.136288438817E+04   -0.64446E+00   -0.17519E+02  1368   0.184E+01    0.272E+00
DAV:   2    -0.136375034573E+04   -0.86596E+00   -0.93345E+00  2280   0.694E+00    0.138E+00
DAV:   3    -0.136377634632E+04   -0.26001E-01   -0.67081E-01  2584   0.150E+00    0.119E+00
DAV:   4    -0.136375326381E+04    0.23083E-01   -0.11484E-01  2584   0.734E-01    0.721E-01
DAV:   5    -0.136374156740E+04    0.11696E-01   -0.66528E-02  2248   0.499E-01    0.349E-01
DAV:   6    -0.136374310542E+04   -0.15380E-02   -0.37207E-02  2464   0.367E-01    0.360E-01
DAV:   7    -0.136374178769E+04    0.13177E-02   -0.20512E-02  2432   0.255E-01    0.211E-01
DAV:   8    -0.136374172503E+04    0.62667E-04   -0.73935E-03  2520   0.151E-01    0.102E-01
DAV:   9    -0.136374166450E+04    0.60525E-04   -0.10483E-03  2552   0.707E-02    0.752E-02
DAV:  10    -0.136374171256E+04   -0.48057E-04   -0.12085E-03  2280   0.532E-02    0.586E-02
DAV:  11    -0.136374164918E+04    0.63374E-04   -0.30138E-04  2512   0.431E-02    0.235E-02
DAV:  12    -0.136374166970E+04   -0.20519E-04   -0.35415E-04  2512   0.304E-02    0.269E-02
DAV:  13    -0.136374165844E+04    0.11267E-04   -0.87294E-05  2320   0.182E-02    0.911E-03
DAV:  14    -0.136374165945E+04   -0.10104E-05   -0.19934E-05  1936   0.921E-03    0.392E-03
DAV:  15    -0.136374165961E+04   -0.16618E-06   -0.21562E-06  1056   0.446E-03
   6 F= -.13637417E+04 E0= -.13637417E+04  d E =-.150173E+01
 BRION: g(F)=  0.130E+01 g(S)=  0.000E+00 retain N=  5 mean eig= 1.92
 eig:   6.333  0.800  0.980  0.980  0.486
 bond charge predicted
       N       E                     dE             d eps       ncg     rms          rms(c)
DAV:   1    -0.136380008807E+04   -0.58429E-01   -0.26202E+02  1352   0.222E+01    0.317E+00
DAV:   2    -0.136511976193E+04   -0.13197E+01   -0.13852E+01  2264   0.825E+00    0.162E+00
DAV:   3    -0.136515274409E+04   -0.32982E-01   -0.90700E-01  2576   0.170E+00    0.134E+00
DAV:   4    -0.136511731108E+04    0.35433E-01   -0.17659E-01  2520   0.844E-01    0.739E-01
DAV:   5    -0.136510506415E+04    0.12247E-01   -0.78991E-02  2456   0.550E-01    0.370E-01
DAV:   6    -0.136510570177E+04   -0.63762E-03   -0.34825E-02  2528   0.363E-01    0.278E-01
DAV:   7    -0.136510518747E+04    0.51431E-03   -0.12594E-02  2520   0.216E-01    0.173E-01
DAV:   8    -0.136510523917E+04   -0.51709E-04   -0.57822E-03  2528   0.127E-01    0.903E-02
DAV:   9    -0.136510515816E+04    0.81014E-04   -0.83500E-04  2592   0.642E-02    0.587E-02
DAV:  10    -0.136510517272E+04   -0.14561E-04   -0.81661E-04  2280   0.493E-02    0.427E-02
DAV:  11    -0.136510515503E+04    0.17687E-04   -0.27849E-04  2528   0.355E-02    0.161E-02
DAV:  12    -0.136510516335E+04   -0.83174E-05   -0.13278E-04  2520   0.202E-02    0.153E-02
DAV:  13    -0.136510516132E+04    0.20348E-05   -0.35163E-05  2248   0.119E-02    0.730E-03
DAV:  14    -0.136510516144E+04   -0.12541E-06   -0.10340E-05  1760   0.674E-03    0.377E-03
DAV:  15    -0.136510516161E+04   -0.17203E-06   -0.20581E-06  1048   0.431E-03
   7 F= -.13651052E+04 E0= -.13651052E+04  d E =-.136350E+01
 BRION: g(F)=  0.956E+00 g(S)=  0.000E+00 retain N=  6 mean eig= 2.24
 eig:   7.988  1.925  1.925  0.391  0.391  0.815
 bond charge predicted
       N       E                     dE             d eps       ncg     rms          rms(c)
DAV:   1    -0.136539951029E+04   -0.29435E+00   -0.65825E+01  1376   0.113E+01    0.159E+00
DAV:   2    -0.136572899748E+04   -0.32949E+00   -0.35346E+00  2256   0.433E+00    0.798E-01
DAV:   3    -0.136574350761E+04   -0.14510E-01   -0.27786E-01  2616   0.924E-01    0.637E-01
DAV:   4    -0.136573603480E+04    0.74728E-02   -0.34695E-02  2552   0.427E-01    0.381E-01
DAV:   5    -0.136573288480E+04    0.31500E-02   -0.19685E-02  2208   0.268E-01    0.162E-01
DAV:   6    -0.136573335706E+04   -0.47226E-03   -0.88171E-03  2520   0.176E-01    0.144E-01
DAV:   7    -0.136573329397E+04    0.63090E-04   -0.33089E-03  2552   0.105E-01    0.943E-02
DAV:   8    -0.136573322907E+04    0.64907E-04   -0.91640E-04  2616   0.596E-02    0.498E-02
DAV:   9    -0.136573322433E+04    0.47403E-05   -0.18506E-04  2592   0.294E-02    0.314E-02
DAV:  10    -0.136573323310E+04   -0.87692E-05   -0.15588E-04  2296   0.214E-02    0.228E-02
DAV:  11    -0.136573322657E+04    0.65218E-05   -0.42098E-05  2416   0.155E-02    0.106E-02
DAV:  12    -0.136573322837E+04   -0.17940E-05   -0.37630E-05  2208   0.100E-02    0.916E-03
DAV:  13    -0.136573322701E+04    0.13591E-05   -0.45401E-06  1288   0.637E-03    0.471E-03
DAV:  14    -0.136573322778E+04   -0.77223E-06   -0.13392E-05  1616   0.684E-03    0.384E-03
DAV:  15    -0.136573322747E+04    0.31116E-06   -0.11467E-06  1000   0.441E-03
   8 F= -.13657332E+04 E0= -.13657332E+04  d E =-.628066E+00
 BRION: g(F)=  0.357E+00 g(S)=  0.000E+00 retain N=  6 mean eig= 1.08
 eig:   2.533  2.533  0.524  0.524  0.016  0.342
 bond charge predicted
       N       E                     dE             d eps       ncg     rms          rms(c)
DAV:   1    -0.136594382811E+04   -0.21060E+00   -0.70210E+01  1376   0.119E+01    0.159E+00
DAV:   2    -0.136630619511E+04   -0.36237E+00   -0.38516E+00  2320   0.471E+00    0.756E-01
DAV:   3    -0.136632419141E+04   -0.17996E-01   -0.28259E-01  2608   0.903E-01    0.611E-01
DAV:   4    -0.136631781230E+04    0.63791E-02   -0.34286E-02  2600   0.432E-01    0.381E-01
DAV:   5    -0.136631455475E+04    0.32575E-02   -0.17900E-02  2296   0.285E-01    0.147E-01
DAV:   6    -0.136631531700E+04   -0.76225E-03   -0.10135E-02  2552   0.190E-01    0.149E-01
DAV:   7    -0.136631519022E+04    0.12678E-03   -0.29237E-03  2528   0.104E-01    0.101E-01
DAV:   8    -0.136631513526E+04    0.54960E-04   -0.13425E-03  2600   0.669E-02    0.459E-02
DAV:   9    -0.136631512989E+04    0.53727E-05   -0.18152E-04  2520   0.320E-02    0.330E-02
DAV:  10    -0.136631513225E+04   -0.23627E-05   -0.11848E-04  2320   0.209E-02    0.188E-02
DAV:  11    -0.136631513224E+04    0.95606E-08   -0.39966E-05  2472   0.136E-02    0.979E-03
DAV:  12    -0.136631513295E+04   -0.70449E-06   -0.18286E-05  2096   0.804E-03    0.841E-03
DAV:  13    -0.136631513205E+04    0.89413E-06   -0.65047E-06  1456   0.630E-03
   9 F= -.13663151E+04 E0= -.13663151E+04  d E =-.581905E+00
 BRION: g(F)=  0.320E+00 g(S)=  0.000E+00 retain N=  7 mean eig= 1.57
 eig:   3.851  3.851  1.096  0.946  0.946  0.093  0.226
 bond charge predicted
       N       E                     dE             d eps       ncg     rms          rms(c)
DAV:   1    -0.136646600154E+04   -0.15087E+00   -0.72917E+01  1376   0.124E+01    0.152E+00
DAV:   2    -0.136686862892E+04   -0.40263E+00   -0.43134E+00  2304   0.510E+00    0.752E-01
DAV:   3    -0.136689208601E+04   -0.23457E-01   -0.33365E-01  2600   0.985E-01    0.634E-01
DAV:   4    -0.136688744595E+04    0.46401E-02   -0.33942E-02  2616   0.445E-01    0.451E-01
DAV:   5    -0.136688260378E+04    0.48422E-02   -0.18406E-02  2344   0.277E-01    0.174E-01
DAV:   6    -0.136688320710E+04   -0.60332E-03   -0.12483E-02  2432   0.206E-01    0.154E-01
DAV:   7    -0.136688312883E+04    0.78266E-04   -0.49943E-03  2424   0.130E-01    0.109E-01
DAV:   8    -0.136688309407E+04    0.34765E-04   -0.19874E-03  2608   0.849E-02    0.545E-02
DAV:   9    -0.136688308039E+04    0.13676E-04   -0.38399E-04  2400   0.418E-02    0.390E-02
DAV:  10    -0.136688308672E+04   -0.63244E-05   -0.14433E-04  2472   0.227E-02    0.226E-02
DAV:  11    -0.136688308695E+04   -0.23365E-06   -0.61087E-05  2464   0.168E-02    0.142E-02
DAV:  12    -0.136688308663E+04    0.32455E-06   -0.30991E-05  2360   0.123E-02    0.125E-02
DAV:  13    -0.136688308523E+04    0.13914E-05   -0.18832E-05  1848   0.809E-03    0.594E-03
DAV:  14    -0.136688308513E+04    0.10083E-06   -0.51147E-06  1344   0.585E-03
  10 F= -.13668831E+04 E0= -.13668831E+04  d E =-.567953E+00
 BRION: g(F)=  0.207E+00 g(S)=  0.000E+00 retain N=  8 mean eig= 2.26
 eig:   5.189  5.189  2.918  2.918  0.202  0.233  0.723  0.723
 bond charge predicted
       N       E                     dE             d eps       ncg     rms          rms(c)
DAV:   1    -0.136697929764E+04   -0.96212E-01   -0.69154E+01  1384   0.120E+01    0.147E+00
DAV:   2    -0.136735933400E+04   -0.38004E+00   -0.40497E+00  2296   0.495E+00    0.728E-01
DAV:   3    -0.136738148652E+04   -0.22153E-01   -0.31572E-01  2592   0.936E-01    0.602E-01
DAV:   4    -0.136737690037E+04    0.45862E-02   -0.31130E-02  2616   0.426E-01    0.432E-01
DAV:   5    -0.136737195198E+04    0.49484E-02   -0.15220E-02  2368   0.265E-01    0.173E-01
DAV:   6    -0.136737236197E+04   -0.40999E-03   -0.12756E-02  2384   0.208E-01    0.129E-01
DAV:   7    -0.136737240890E+04   -0.46930E-04   -0.48282E-03  2408   0.127E-01    0.107E-01
DAV:   8    -0.136737237299E+04    0.35909E-04   -0.15928E-03  2600   0.760E-02    0.556E-02
DAV:   9    -0.136737234165E+04    0.31342E-04   -0.43254E-04  2488   0.421E-02    0.347E-02
DAV:  10    -0.136737235306E+04   -0.11403E-04   -0.16868E-04  2472   0.247E-02    0.236E-02
DAV:  11    -0.136737235040E+04    0.26586E-05   -0.62228E-05  2432   0.166E-02    0.139E-02
DAV:  12    -0.136737235009E+04    0.30274E-06   -0.33265E-05  2304   0.128E-02    0.117E-02
DAV:  13    -0.136737234919E+04    0.90884E-06   -0.20672E-05  1952   0.842E-03    0.573E-03
DAV:  14    -0.136737234925E+04   -0.65964E-07   -0.64947E-06  1584   0.561E-03
  11 F= -.13673723E+04 E0= -.13673723E+04  d E =-.489264E+00
 BRION: g(F)=  0.153E+00 g(S)=  0.000E+00 retain N=  9 mean eig= 2.83
 eig:   5.982  5.982  4.947  4.947  0.316  1.443  0.265  0.792  0.792
 bond charge predicted
       N       E                     dE             d eps       ncg     rms          rms(c)
DAV:   1    -0.136744657359E+04   -0.74224E-01   -0.56609E+01  1392   0.108E+01    0.126E+00
DAV:   2    -0.136775159189E+04   -0.30502E+00   -0.32364E+00  2312   0.442E+00    0.633E-01
DAV:   3    -0.136776916820E+04   -0.17576E-01   -0.24730E-01  2584   0.828E-01    0.521E-01
DAV:   4    -0.136776590952E+04    0.32587E-02   -0.23111E-02  2616   0.368E-01    0.388E-01
DAV:   5    -0.136776142700E+04    0.44825E-02   -0.12713E-02  2312   0.243E-01    0.159E-01
DAV:   6    -0.136776172316E+04   -0.29617E-03   -0.11579E-02  2352   0.200E-01    0.125E-01
DAV:   7    -0.136776175370E+04   -0.30541E-04   -0.44487E-03  2384   0.121E-01    0.102E-01
DAV:   8    -0.136776171784E+04    0.35868E-04   -0.13821E-03  2608   0.723E-02    0.538E-02
DAV:   9    -0.136776167874E+04    0.39094E-04   -0.40586E-04  2400   0.404E-02    0.320E-02
DAV:  10    -0.136776168960E+04   -0.10855E-04   -0.15986E-04  2392   0.236E-02    0.214E-02
DAV:  11    -0.136776168767E+04    0.19257E-05   -0.49471E-05  2456   0.150E-02    0.131E-02
DAV:  12    -0.136776168737E+04    0.30309E-06   -0.25223E-05  2296   0.109E-02    0.111E-02
DAV:  13    -0.136776168643E+04    0.93698E-06   -0.15885E-05  1784   0.744E-03    0.540E-03
DAV:  14    -0.136776168626E+04    0.17245E-06   -0.31928E-06  1136   0.515E-03
  12 F= -.13677617E+04 E0= -.13677617E+04  d E =-.389337E+00
 BRION: g(F)=  0.128E+00 g(S)=  0.000E+00 retain N=  9 mean eig= 2.86
 eig:   7.836  7.836  2.608  2.682  2.682  0.757  0.468  0.468  0.439
 bond charge predicted
       N       E                     dE             d eps       ncg     rms          rms(c)
DAV:   1    -0.136777291652E+04   -0.11230E-01   -0.68504E+01  1384   0.118E+01    0.135E+00
DAV:   2    -0.136813759231E+04   -0.36468E+00   -0.38532E+00  2304   0.479E+00    0.689E-01
DAV:   3    -0.136815858394E+04   -0.20992E-01   -0.29396E-01  2600   0.904E-01    0.567E-01
DAV:   4    -0.136815486912E+04    0.37148E-02   -0.25929E-02  2616   0.391E-01    0.426E-01
DAV:   5    -0.136814935555E+04    0.55136E-02   -0.14091E-02  2328   0.255E-01    0.178E-01
DAV:   6    -0.136814961175E+04   -0.25620E-03   -0.13694E-02  2304   0.211E-01    0.128E-01
DAV:   7    -0.136814966962E+04   -0.57873E-04   -0.49289E-03  2440   0.128E-01    0.109E-01
DAV:   8    -0.136814962701E+04    0.42607E-04   -0.14954E-03  2584   0.758E-02    0.606E-02
DAV:   9    -0.136814956905E+04    0.57963E-04   -0.53609E-04  2416   0.448E-02    0.336E-02
DAV:  10    -0.136814958404E+04   -0.14989E-04   -0.19917E-04  2472   0.271E-02    0.255E-02
DAV:  11    -0.136814957822E+04    0.58243E-05   -0.68360E-05  2440   0.170E-02    0.130E-02
DAV:  12    -0.136814957871E+04   -0.49084E-06   -0.31460E-05  2328   0.119E-02    0.107E-02
DAV:  13    -0.136814957801E+04    0.69870E-06   -0.16945E-05  1824   0.754E-03    0.533E-03
DAV:  14    -0.136814957795E+04    0.58935E-07   -0.40361E-06  1280   0.525E-03
  13 F= -.13681496E+04 E0= -.13681496E+04  d E =-.387892E+00
 BRION: g(F)=  0.937E-01 g(S)=  0.000E+00 retain N=  6 mean eig= 4.32
 eig:   7.329  7.329  4.432  4.432  0.486  1.916
 bond charge predicted
       N       E                     dE             d eps       ncg     rms          rms(c)
DAV:   1    -0.136823861554E+04   -0.89038E-01   -0.23017E+01  1376   0.685E+00    0.804E-01
DAV:   2    -0.136835823737E+04   -0.11962E+00   -0.12684E+00  2296   0.272E+00    0.404E-01
DAV:   3    -0.136836520394E+04   -0.69666E-02   -0.10101E-01  2576   0.523E-01    0.328E-01
DAV:   4    -0.136836361995E+04    0.15840E-02   -0.93685E-03  2592   0.233E-01    0.237E-01
DAV:   5    -0.136836187707E+04    0.17429E-02   -0.53492E-03  2328   0.157E-01    0.940E-02
DAV:   6    -0.136836201618E+04   -0.13911E-03   -0.43128E-03  2368   0.122E-01    0.798E-02
DAV:   7    -0.136836201710E+04   -0.91974E-06   -0.14984E-03  2440   0.729E-02    0.623E-02
DAV:   8    -0.136836200207E+04    0.15027E-04   -0.55841E-04  2528   0.440E-02    0.312E-02
DAV:   9    -0.136836198934E+04    0.12733E-04   -0.13735E-04  2264   0.246E-02    0.196E-02
DAV:  10    -0.136836199192E+04   -0.25855E-05   -0.54472E-05  2352   0.143E-02    0.126E-02
DAV:  11    -0.136836199088E+04    0.10472E-05   -0.13448E-05  2008   0.855E-03    0.652E-03
DAV:  12    -0.136836199145E+04   -0.57869E-06   -0.11303E-05  1768   0.640E-03    0.611E-03
DAV:  13    -0.136836199092E+04    0.53352E-06   -0.16966E-06   976   0.465E-03
  14 F= -.13683620E+04 E0= -.13683620E+04  d E =-.212413E+00
 BRION: g(F)=  0.814E-01 g(S)=  0.000E+00 retain N=  5 mean eig= 4.39
 eig:   6.631  6.631  1.967  3.361  3.361
 bond charge predicted
       N       E                     dE             d eps       ncg     rms          rms(c)
DAV:   1    -0.136843502864E+04   -0.73037E-01   -0.19791E+01  1376   0.634E+00    0.718E-01
DAV:   2    -0.136853636749E+04   -0.10134E+00   -0.10665E+00  2288   0.249E+00    0.366E-01
DAV:   3    -0.136854235725E+04   -0.59898E-02   -0.84058E-02  2584   0.477E-01    0.297E-01
DAV:   4    -0.136854122954E+04    0.11277E-02   -0.74602E-03  2616   0.206E-01    0.221E-01
DAV:   5    -0.136853968335E+04    0.15462E-02   -0.41562E-03  2320   0.139E-01    0.929E-02
DAV:   6    -0.136853974583E+04   -0.62480E-04   -0.37370E-03  2304   0.113E-01    0.707E-02
DAV:   7    -0.136853976196E+04   -0.16129E-04   -0.14279E-03  2424   0.694E-02    0.590E-02
DAV:   8    -0.136853974517E+04    0.16789E-04   -0.44323E-04  2528   0.415E-02    0.320E-02
DAV:   9    -0.136853972963E+04    0.15536E-04   -0.15697E-04  2352   0.246E-02    0.175E-02
DAV:  10    -0.136853973379E+04   -0.41626E-05   -0.56683E-05  2368   0.146E-02    0.134E-02
DAV:  11    -0.136853973185E+04    0.19435E-05   -0.15871E-05  1832   0.909E-03    0.655E-03
DAV:  12    -0.136853973217E+04   -0.31525E-06   -0.10265E-05  1728   0.739E-03    0.574E-03
DAV:  13    -0.136853973171E+04    0.45772E-06   -0.20467E-06   992   0.482E-03
  15 F= -.13685397E+04 E0= -.13685397E+04  d E =-.177741E+00
 BRION: g(F)=  0.714E-01 g(S)=  0.000E+00 retain N=  3 mean eig= 5.13
 eig:   6.789  6.789  1.798
 bond charge predicted
       N       E                     dE             d eps       ncg     rms          rms(c)
DAV:   1    -0.136857703712E+04   -0.37305E-01   -0.34814E+01  1376   0.835E+00    0.939E-01
DAV:   2    -0.136875608788E+04   -0.17905E+00   -0.18885E+00  2296   0.329E+00    0.484E-01
DAV:   3    -0.136876666866E+04   -0.10581E-01   -0.14931E-01  2560   0.628E-01    0.394E-01
DAV:   4    -0.136876480435E+04    0.18643E-02   -0.13738E-02  2608   0.274E-01    0.294E-01
DAV:   5    -0.136876214393E+04    0.26604E-02   -0.65504E-03  2352   0.179E-01    0.135E-01
DAV:   6    -0.136876203002E+04    0.11392E-03   -0.65991E-03  2248   0.155E-01    0.851E-02
DAV:   7    -0.136876213084E+04   -0.10082E-03   -0.31507E-03  2440   0.102E-01    0.819E-02
DAV:   8    -0.136876210239E+04    0.28446E-04   -0.75367E-04  2552   0.565E-02    0.521E-02
DAV:   9    -0.136876206466E+04    0.37731E-04   -0.36118E-04  2584   0.356E-02    0.253E-02
DAV:  10    -0.136876207511E+04   -0.10448E-04   -0.14812E-04  2560   0.234E-02    0.194E-02
DAV:  11    -0.136876207295E+04    0.21610E-05   -0.38869E-05  2336   0.134E-02    0.121E-02
DAV:  12    -0.136876207245E+04    0.49850E-06   -0.25980E-05  2128   0.106E-02    0.107E-02
DAV:  13    -0.136876207159E+04    0.85660E-06   -0.16790E-05  1904   0.803E-03    0.614E-03
DAV:  14    -0.136876207115E+04    0.44086E-06   -0.23383E-06  1024   0.496E-03
  16 F= -.13687621E+04 E0= -.13687621E+04  d E =-.222339E+00
 BRION: g(F)=  0.622E-01 g(S)=  0.000E+00 retain N=  3 mean eig= 5.78
 eig:   7.773  7.773  1.788
 bond charge predicted
       N       E                     dE             d eps       ncg     rms          rms(c)
DAV:   1    -0.136882247695E+04   -0.60405E-01   -0.86949E+00  1384   0.418E+00    0.462E-01
DAV:   2    -0.136886674263E+04   -0.44266E-01   -0.46419E-01  2296   0.164E+00    0.238E-01
DAV:   3    -0.136886917655E+04   -0.24339E-02   -0.35292E-02  2584   0.312E-01    0.190E-01
DAV:   4    -0.136886863206E+04    0.54449E-03   -0.31562E-03  2600   0.135E-01    0.140E-01
DAV:   5    -0.136886797885E+04    0.65320E-03   -0.16956E-03  2312   0.902E-02    0.601E-02
DAV:   6    -0.136886798222E+04   -0.33700E-05   -0.15594E-03  2288   0.745E-02    0.427E-02
DAV:   7    -0.136886800018E+04   -0.17957E-04   -0.63348E-04  2408   0.456E-02    0.378E-02
DAV:   8    -0.136886799444E+04    0.57423E-05   -0.18575E-04  2528   0.264E-02    0.208E-02
DAV:   9    -0.136886798689E+04    0.75435E-05   -0.72621E-05  2376   0.169E-02    0.108E-02
DAV:  10    -0.136886798885E+04   -0.19529E-05   -0.25751E-05  2296   0.101E-02    0.966E-03
DAV:  11    -0.136886798750E+04    0.13434E-05   -0.81951E-06  1432   0.692E-03    0.413E-03
DAV:  12    -0.136886798778E+04   -0.27516E-06   -0.52622E-06  1280   0.595E-03
  17 F= -.13688680E+04 E0= -.13688680E+04  d E =-.105917E+00
 BRION: g(F)=  0.564E-01 g(S)=  0.000E+00 retain N=  3 mean eig= 5.09
 eig:   6.809  6.809  1.666
 bond charge predicted
       N       E                     dE             d eps       ncg     rms          rms(c)
DAV:   1    -0.136892100594E+04   -0.53018E-01   -0.18035E+01  1376   0.598E+00    0.656E-01
DAV:   2    -0.136901283652E+04   -0.91831E-01   -0.96238E-01  2296   0.235E+00    0.339E-01
DAV:   3    -0.136901808795E+04   -0.52514E-02   -0.73913E-02  2592   0.448E-01    0.274E-01
DAV:   4    -0.136901717204E+04    0.91591E-03   -0.64551E-03  2624   0.190E-01    0.206E-01
DAV:   5    -0.136901583961E+04    0.13324E-02   -0.29908E-03  2328   0.122E-01    0.987E-02
DAV:   6    -0.136901573190E+04    0.10771E-03   -0.33026E-03  2216   0.110E-01    0.566E-02
DAV:   7    -0.136901580184E+04   -0.69941E-04   -0.16839E-03  2384   0.730E-02    0.581E-02
DAV:   8    -0.136901578853E+04    0.13314E-04   -0.36055E-04  2464   0.398E-02    0.393E-02
DAV:   9    -0.136901576469E+04    0.23842E-04   -0.20555E-04  2528   0.265E-02    0.178E-02
DAV:  10    -0.136901577079E+04   -0.60967E-05   -0.84903E-05  2496   0.179E-02    0.139E-02
DAV:  11    -0.136901576881E+04    0.19710E-05   -0.15392E-05  1832   0.921E-03    0.715E-03
DAV:  12    -0.136901576938E+04   -0.56114E-06   -0.16565E-05  1872   0.848E-03    0.736E-03
DAV:  13    -0.136901576874E+04    0.63577E-06   -0.50412E-06  1392   0.592E-03
  18 F= -.13690158E+04 E0= -.13690158E+04  d E =-.147781E+00
 BRION: g(F)=  0.518E-01 g(S)=  0.000E+00 retain N=  2 mean eig= 4.02
 eig:   4.023  4.023
 bond charge predicted
       N       E                     dE             d eps       ncg     rms          rms(c)
DAV:   1    -0.136903609306E+04   -0.20324E-01   -0.29539E+01  1384   0.764E+00    0.834E-01
DAV:   2    -0.136918642845E+04   -0.15034E+00   -0.15755E+00  2296   0.301E+00    0.429E-01
DAV:   3    -0.136919505780E+04   -0.86293E-02   -0.12042E-01  2584   0.569E-01    0.348E-01
DAV:   4    -0.136919360795E+04    0.14498E-02   -0.10359E-02  2600   0.240E-01    0.263E-01
DAV:   5    -0.136919144339E+04    0.21646E-02   -0.49349E-03  2328   0.156E-01    0.124E-01
DAV:   6    -0.136919129784E+04    0.14555E-03   -0.53778E-03  2224   0.138E-01    0.741E-02
DAV:   7    -0.136919140004E+04   -0.10220E-03   -0.26587E-03  2384   0.921E-02    0.732E-02
DAV:   8    -0.136919137825E+04    0.21794E-04   -0.61140E-04  2464   0.511E-02    0.462E-02
DAV:   9    -0.136919134410E+04    0.34147E-04   -0.32530E-04  2536   0.333E-02    0.215E-02
DAV:  10    -0.136919135344E+04   -0.93403E-05   -0.12139E-04  2520   0.218E-02    0.181E-02
DAV:  11    -0.136919134980E+04    0.36410E-05   -0.32171E-05  2216   0.120E-02    0.842E-03
DAV:  12    -0.136919135070E+04   -0.89758E-06   -0.20716E-05  2088   0.899E-03    0.856E-03
DAV:  13    -0.136919135001E+04    0.69279E-06   -0.82470E-06  1728   0.634E-03
  19 F= -.13691914E+04 E0= -.13691914E+04  d E =-.175581E+00
 BRION: g(F)=  0.463E-01 g(S)=  0.000E+00 retain N=  2 mean eig= 5.75
 eig:   5.751  5.751
 bond charge predicted
       N       E                     dE             d eps       ncg     rms          rms(c)
DAV:   1    -0.136923130422E+04   -0.39954E-01   -0.14012E+01  1384   0.527E+00    0.578E-01
DAV:   2    -0.136930191128E+04   -0.70607E-01   -0.73934E-01  2304   0.206E+00    0.295E-01
DAV:   3    -0.136930586010E+04   -0.39488E-02   -0.56008E-02  2600   0.388E-01    0.237E-01
DAV:   4    -0.136930508567E+04    0.77443E-03   -0.47949E-03  2608   0.166E-01    0.177E-01
DAV:   5    -0.136930405711E+04    0.10286E-02   -0.24453E-03  2304   0.109E-01    0.788E-02
DAV:   6    -0.136930402330E+04    0.33808E-04   -0.24428E-03  2232   0.952E-02    0.516E-02
DAV:   7    -0.136930406894E+04   -0.45644E-04   -0.11917E-03  2368   0.603E-02    0.488E-02
DAV:   8    -0.136930406028E+04    0.86654E-05   -0.29218E-04  2472   0.342E-02    0.283E-02
DAV:   9    -0.136930404532E+04    0.14956E-04   -0.13830E-04  2448   0.228E-02    0.136E-02
DAV:  10    -0.136930404956E+04   -0.42399E-05   -0.50394E-05  2360   0.140E-02    0.133E-02
DAV:  11    -0.136930404717E+04    0.23973E-05   -0.21048E-05  1840   0.961E-03    0.568E-03
DAV:  12    -0.136930404741E+04   -0.24827E-06   -0.72541E-06  1592   0.693E-03
  20 F= -.13693040E+04 E0= -.13693040E+04  d E =-.112697E+00
 BRION: g(F)=  0.430E-01 g(S)=  0.000E+00 retain N=  2 mean eig= 4.19
 eig:   4.187  4.187
