 running on  160 total cores
 distrk:  each k-point on  160 cores,    1 groups
 distr:  one band on   20 cores,    8 groups
 using from now: INCAR     
 vasp.5.4.4.18Apr17-6-g9f103f2a35 (build May 01 2020 14:22:42) gamma-only       
  
 POSCAR found type information on POSCAR  O  La Zr Li Al
 POSCAR found :  5 types and     190 ions
 scaLAPACK will be used
 LDA part: xc-table for Pade appr. of Perdew
 POSCAR, INCAR and KPOINTS ok, starting setup
 FFT: planning ...
 WAVECAR not read
 WARNING: random wavefunctions but no delay for mixing, default for NELMDL
 entering main loop
       N       E                     dE             d eps       ncg     rms          rms(c)
DAV:   1     0.252722269428E+05    0.25272E+05   -0.42129E+05  1576   0.253E+03
DAV:   2     0.940012579044E+04   -0.15872E+05   -0.14720E+05  1424   0.702E+02
DAV:   3     0.265316728371E+04   -0.67470E+04   -0.61455E+04  1504   0.355E+02
DAV:   4    -0.402044491281E+03   -0.30552E+04   -0.28571E+04  2072   0.226E+02
DAV:   5    -0.142962322303E+04   -0.10276E+04   -0.99419E+03  2520   0.139E+02    0.117E+02
DAV:   6    -0.130222472961E+04    0.12740E+03   -0.13779E+03  2416   0.653E+01    0.501E+01
DAV:   7    -0.132587303636E+04   -0.23648E+02   -0.37433E+02  2560   0.330E+01    0.240E+01
DAV:   8    -0.133440139709E+04   -0.85284E+01   -0.23064E+02  2544   0.250E+01    0.245E+01
DAV:   9    -0.132867252064E+04    0.57289E+01   -0.50402E+01  2528   0.143E+01    0.798E+00
DAV:  10    -0.132961903628E+04   -0.94652E+00   -0.17040E+01  2616   0.813E+00    0.773E+00
DAV:  11    -0.132989754593E+04   -0.27851E+00   -0.62015E+00  2624   0.437E+00    0.452E+00
DAV:  12    -0.132969001113E+04    0.20753E+00   -0.29155E+00  2552   0.364E+00    0.319E+00
DAV:  13    -0.132976766526E+04   -0.77654E-01   -0.89546E-01  2560   0.180E+00    0.223E+00
DAV:  14    -0.132974750667E+04    0.20159E-01   -0.27724E-01  2624   0.107E+00    0.126E+00
DAV:  15    -0.132975425328E+04   -0.67466E-02   -0.95478E-02  2592   0.613E-01    0.107E+00
DAV:  16    -0.132975452541E+04   -0.27213E-03   -0.30001E-02  2624   0.327E-01    0.716E-01
DAV:  17    -0.132975344227E+04    0.10831E-02   -0.23003E-02  2376   0.301E-01    0.400E-01
DAV:  18    -0.132975371497E+04   -0.27270E-03   -0.50409E-03  2384   0.154E-01    0.190E-01
DAV:  19    -0.132975375505E+04   -0.40082E-04   -0.24396E-03  2448   0.958E-02    0.133E-01
DAV:  20    -0.132975377130E+04   -0.16250E-04   -0.70895E-04  2536   0.493E-02    0.539E-02
DAV:  21    -0.132975378894E+04   -0.17641E-04   -0.19322E-04  2608   0.266E-02    0.520E-02
DAV:  22    -0.132975380835E+04   -0.19407E-04   -0.10786E-04  2480   0.211E-02    0.174E-02
DAV:  23    -0.132975379991E+04    0.84396E-05   -0.49674E-05  2352   0.142E-02    0.195E-02
DAV:  24    -0.132975380780E+04   -0.78912E-05   -0.19801E-05  2128   0.979E-03    0.434E-03
DAV:  25    -0.132975380654E+04    0.12630E-05   -0.36421E-06  1040   0.542E-03    0.627E-03
DAV:  26    -0.132975380743E+04   -0.89643E-06   -0.16716E-06  1016   0.402E-03
   1 F= -.13297538E+04 E0= -.13297538E+04  d E =-.132975E+04
 BRION: g(F)=  0.593E+02 g(S)=  0.000E+00
 bond charge predicted
       N       E                     dE             d eps       ncg     rms          rms(c)
DAV:   1    -0.130337495857E+04    0.26379E+02   -0.63985E+03  1696   0.118E+02    0.259E+01
DAV:   2    -0.135257259209E+04   -0.49198E+02   -0.56618E+02  2584   0.542E+01    0.135E+01
DAV:   3    -0.135116204635E+04    0.14105E+01   -0.31863E+01  2600   0.143E+01    0.913E+00
DAV:   4    -0.134946599410E+04    0.16961E+01   -0.10103E+01  2464   0.643E+00    0.444E+00
DAV:   5    -0.134920457107E+04    0.26142E+00   -0.25442E+00  2536   0.371E+00    0.279E+00
DAV:   6    -0.134912172485E+04    0.82846E-01   -0.21075E+00  2552   0.278E+00    0.144E+00
DAV:   7    -0.134913234439E+04   -0.10620E-01   -0.55060E-01  2536   0.160E+00    0.118E+00
DAV:   8    -0.134912527376E+04    0.70706E-02   -0.25457E-01  2624   0.861E-01    0.550E-01
DAV:   9    -0.134912577448E+04   -0.50072E-03   -0.39349E-02  2624   0.450E-01    0.350E-01
DAV:  10    -0.134912450730E+04    0.12672E-02   -0.14570E-02  2600   0.274E-01    0.165E-01
DAV:  11    -0.134912557568E+04   -0.10684E-02   -0.14399E-02  2592   0.210E-01    0.184E-01
DAV:  12    -0.134912527877E+04    0.29691E-03   -0.25970E-03  2584   0.108E-01    0.853E-02
DAV:  13    -0.134912526581E+04    0.12963E-04   -0.15537E-03  2616   0.668E-02    0.248E-02
DAV:  14    -0.134912528522E+04   -0.19411E-04   -0.21515E-04  2552   0.323E-02    0.175E-02
DAV:  15    -0.134912528999E+04   -0.47713E-05   -0.56405E-05  2600   0.146E-02    0.122E-02
DAV:  16    -0.134912528953E+04    0.45852E-06   -0.14236E-05  1800   0.901E-03    0.875E-03
DAV:  17    -0.134912529035E+04   -0.82147E-06   -0.21669E-05  2000   0.807E-03    0.401E-03
DAV:  18    -0.134912529015E+04    0.20566E-06   -0.18412E-06  1032   0.525E-03
   2 F= -.13491253E+04 E0= -.13491253E+04  d E =-.193715E+02
 BRION: g(F)=  0.449E+02 g(S)=  0.000E+00 retain N=  1 mean eig= 0.55
 eig:   0.550
 bond charge predicted
       N       E                     dE             d eps       ncg     rms          rms(c)
DAV:   1    -0.133603670139E+04    0.13089E+02   -0.24224E+03  1416   0.657E+01    0.167E+01
DAV:   2    -0.136028174200E+04   -0.24245E+02   -0.30349E+02  2520   0.317E+01    0.150E+01
DAV:   3    -0.135849440859E+04    0.17873E+01   -0.23239E+01  2576   0.110E+01    0.113E+01
DAV:   4    -0.135688178873E+04    0.16126E+01   -0.15988E+01  2176   0.512E+00    0.523E+00
DAV:   5    -0.135713982971E+04   -0.25804E+00   -0.47557E+00  2432   0.368E+00    0.577E+00
DAV:   6    -0.135655204225E+04    0.58779E+00   -0.50143E+00  2480   0.351E+00    0.139E+00
DAV:   7    -0.135662687793E+04   -0.74836E-01   -0.12041E+00  2296   0.221E+00    0.152E+00
DAV:   8    -0.135660446901E+04    0.22409E-01   -0.35424E-01  2520   0.101E+00    0.811E-01
DAV:   9    -0.135659949759E+04    0.49714E-02   -0.13551E-01  2448   0.631E-01    0.360E-01
DAV:  10    -0.135660065788E+04   -0.11603E-02   -0.28384E-02  2408   0.322E-01    0.218E-01
DAV:  11    -0.135660028836E+04    0.36952E-03   -0.50654E-03  2624   0.170E-01    0.141E-01
DAV:  12    -0.135660032476E+04   -0.36402E-04   -0.48627E-03  2432   0.112E-01    0.689E-02
DAV:  13    -0.135660033891E+04   -0.14145E-04   -0.92122E-04  2608   0.656E-02    0.480E-02
DAV:  14    -0.135660033352E+04    0.53854E-05   -0.30782E-04  2592   0.342E-02    0.286E-02
DAV:  15    -0.135660033178E+04    0.17407E-05   -0.12748E-04  2600   0.219E-02    0.110E-02
DAV:  16    -0.135660033420E+04   -0.24175E-05   -0.38145E-05  2560   0.126E-02    0.761E-03
DAV:  17    -0.135660033445E+04   -0.24590E-06   -0.68947E-06  1624   0.664E-03
   3 F= -.13566003E+04 E0= -.13566003E+04  d E =-.747504E+01
 BRION: g(F)=  0.634E+01 g(S)=  0.000E+00 retain N=  2 mean eig= 1.14
 eig:   0.356  1.921
 bond charge predicted
       N       E                     dE             d eps       ncg     rms          rms(c)
DAV:   1    -0.135778285695E+04   -0.11825E+01   -0.39828E+02  1384   0.285E+01    0.526E+00
DAV:   2    -0.135986018888E+04   -0.20773E+01   -0.22886E+01  2296   0.108E+01    0.253E+00
DAV:   3    -0.135992295354E+04   -0.62765E-01   -0.17914E+00  2616   0.248E+00    0.213E+00
DAV:   4    -0.135986032150E+04    0.62632E-01   -0.40029E-01  2576   0.135E+00    0.113E+00
DAV:   5    -0.135984964444E+04    0.10677E-01   -0.16029E-01  2384   0.838E-01    0.670E-01
DAV:   6    -0.135984924275E+04    0.40169E-03   -0.89737E-02  2584   0.582E-01    0.462E-01
DAV:   7    -0.135984806605E+04    0.11767E-02   -0.35308E-02  2496   0.352E-01    0.293E-01
DAV:   8    -0.135984771419E+04    0.35186E-03   -0.87070E-03  2624   0.183E-01    0.154E-01
DAV:   9    -0.135984761212E+04    0.10207E-03   -0.24657E-03  2600   0.101E-01    0.882E-02
DAV:  10    -0.135984772066E+04   -0.10854E-03   -0.14932E-03  2248   0.690E-02    0.811E-02
DAV:  11    -0.135984765067E+04    0.69990E-04   -0.54977E-04  2536   0.458E-02    0.347E-02
DAV:  12    -0.135984765993E+04   -0.92589E-05   -0.34901E-04  2520   0.334E-02    0.277E-02
DAV:  13    -0.135984765540E+04    0.45338E-05   -0.88974E-05  2520   0.197E-02    0.147E-02
DAV:  14    -0.135984765602E+04   -0.62263E-06   -0.40095E-05  2400   0.106E-02    0.578E-03
DAV:  15    -0.135984765621E+04   -0.18839E-06   -0.35335E-06  1152   0.600E-03
   4 F= -.13598477E+04 E0= -.13598477E+04  d E =-.324732E+01
 BRION: g(F)=  0.242E+01 g(S)=  0.000E+00 retain N=  3 mean eig= 1.02
 eig:   2.300  0.165  0.609
 bond charge predicted
       N       E                     dE             d eps       ncg     rms          rms(c)
DAV:   1    -0.136053158851E+04   -0.68393E+00   -0.20687E+02  1360   0.197E+01    0.302E+00
DAV:   2    -0.136148797445E+04   -0.95639E+00   -0.10231E+01  2280   0.723E+00    0.148E+00
DAV:   3    -0.136150875442E+04   -0.20780E-01   -0.68779E-01  2576   0.153E+00    0.120E+00
DAV:   4    -0.136147950114E+04    0.29253E-01   -0.14182E-01  2520   0.787E-01    0.635E-01
DAV:   5    -0.136147358610E+04    0.59150E-02   -0.62821E-02  2384   0.500E-01    0.355E-01
DAV:   6    -0.136147388389E+04   -0.29780E-03   -0.33140E-02  2528   0.334E-01    0.216E-01
DAV:   7    -0.136147387424E+04    0.96532E-05   -0.88486E-03  2520   0.183E-01    0.161E-01
DAV:   8    -0.136147375327E+04    0.12097E-03   -0.24751E-03  2592   0.941E-02    0.808E-02
DAV:   9    -0.136147376505E+04   -0.11779E-04   -0.12317E-03  2608   0.625E-02    0.621E-02
DAV:  10    -0.136147374769E+04    0.17354E-04   -0.35373E-04  2352   0.393E-02    0.448E-02
DAV:  11    -0.136147373614E+04    0.11556E-04   -0.34334E-04  2376   0.299E-02    0.192E-02
DAV:  12    -0.136147373438E+04    0.17602E-05   -0.81558E-05  2440   0.187E-02    0.849E-03
DAV:  13    -0.136147373562E+04   -0.12457E-05   -0.27134E-05  2168   0.102E-02    0.669E-03
DAV:  14    -0.136147373562E+04    0.58499E-08   -0.83422E-06  1640   0.601E-03
   5 F= -.13614737E+04 E0= -.13614737E+04  d E =-.162608E+01
 BRION: g(F)=  0.132E+01 g(S)=  0.000E+00 retain N=  4 mean eig= 1.00
 eig:   1.256  1.256  0.753  0.753
 bond charge predicted
       N       E                     dE             d eps       ncg     rms          rms(c)
DAV:   1    -0.136177020669E+04   -0.29647E+00   -0.23042E+02  1368   0.213E+01    0.275E+00
DAV:   2    -0.136288551847E+04   -0.11153E+01   -0.11725E+01  2288   0.786E+00    0.140E+00
DAV:   3    -0.136293399508E+04   -0.48477E-01   -0.85404E-01  2608   0.160E+00    0.116E+00
DAV:   4    -0.136291231085E+04    0.21684E-01   -0.10544E-01  2584   0.725E-01    0.725E-01
DAV:   5    -0.136290025339E+04    0.12057E-01   -0.56146E-02  2352   0.467E-01    0.299E-01
DAV:   6    -0.136290167707E+04   -0.14237E-02   -0.29914E-02  2496   0.330E-01    0.269E-01
DAV:   7    -0.136290118879E+04    0.48829E-03   -0.12749E-02  2448   0.215E-01    0.171E-01
DAV:   8    -0.136290118989E+04   -0.11036E-05   -0.56985E-03  2528   0.133E-01    0.917E-02
DAV:   9    -0.136290113862E+04    0.51275E-04   -0.87410E-04  2512   0.656E-02    0.701E-02
DAV:  10    -0.136290114012E+04   -0.15001E-05   -0.73841E-04  2320   0.445E-02    0.419E-02
DAV:  11    -0.136290112928E+04    0.10841E-04   -0.21234E-04  2528   0.342E-02    0.194E-02
DAV:  12    -0.136290113635E+04   -0.70708E-05   -0.12849E-04  2416   0.210E-02    0.204E-02
DAV:  13    -0.136290113180E+04    0.45488E-05   -0.46304E-05  2280   0.131E-02    0.938E-03
DAV:  14    -0.136290113196E+04   -0.16182E-06   -0.14774E-05  1808   0.740E-03    0.476E-03
DAV:  15    -0.136290113209E+04   -0.13116E-06   -0.15014E-06   992   0.458E-03
   6 F= -.13629011E+04 E0= -.13629011E+04  d E =-.142740E+01
 BRION: g(F)=  0.670E+00 g(S)=  0.000E+00 retain N=  5 mean eig= 1.21
 eig:   1.543  1.842  1.842  0.717  0.095
 bond charge predicted
       N       E                     dE             d eps       ncg     rms          rms(c)
DAV:   1    -0.136325591033E+04   -0.35478E+00   -0.80448E+01  1368   0.129E+01    0.173E+00
DAV:   2    -0.136364293277E+04   -0.38702E+00   -0.41072E+00  2280   0.487E+00    0.843E-01
DAV:   3    -0.136366274611E+04   -0.19813E-01   -0.32342E-01  2600   0.974E-01    0.685E-01
DAV:   4    -0.136365493903E+04    0.78071E-02   -0.41646E-02  2568   0.462E-01    0.393E-01
DAV:   5    -0.136365236586E+04    0.25732E-02   -0.20454E-02  2368   0.294E-01    0.178E-01
DAV:   6    -0.136365293519E+04   -0.56933E-03   -0.10356E-02  2552   0.196E-01    0.147E-01
DAV:   7    -0.136365280170E+04    0.13349E-03   -0.36385E-03  2408   0.117E-01    0.980E-02
DAV:   8    -0.136365278652E+04    0.15180E-04   -0.14706E-03  2496   0.695E-02    0.514E-02
DAV:   9    -0.136365276872E+04    0.17802E-04   -0.23799E-04  2528   0.356E-02    0.375E-02
DAV:  10    -0.136365278068E+04   -0.11965E-04   -0.34068E-04  2280   0.300E-02    0.314E-02
DAV:  11    -0.136365276975E+04    0.10931E-04   -0.96527E-05  2432   0.224E-02    0.133E-02
DAV:  12    -0.136365277324E+04   -0.34877E-05   -0.62158E-05  2328   0.134E-02    0.126E-02
DAV:  13    -0.136365277116E+04    0.20775E-05   -0.17452E-05  1952   0.891E-03    0.452E-03
DAV:  14    -0.136365277133E+04   -0.17119E-06   -0.35032E-06  1144   0.558E-03
   7 F= -.13636528E+04 E0= -.13636528E+04  d E =-.751639E+00
 BRION: g(F)=  0.448E+00 g(S)=  0.000E+00 retain N=  6 mean eig= 1.75
 eig:   3.475  3.475  1.529  0.252  0.872  0.872
 bond charge predicted
       N       E                     dE             d eps       ncg     rms          rms(c)
DAV:   1    -0.136378939711E+04   -0.13663E+00   -0.14440E+02  1384   0.173E+01    0.207E+00
DAV:   2    -0.136450254910E+04   -0.71315E+00   -0.75300E+00  2280   0.654E+00    0.104E+00
DAV:   3    -0.136454626339E+04   -0.43714E-01   -0.60727E-01  2608   0.132E+00    0.853E-01
DAV:   4    -0.136453770268E+04    0.85607E-02   -0.59407E-02  2600   0.579E-01    0.583E-01
DAV:   5    -0.136453129039E+04    0.64123E-02   -0.32045E-02  2336   0.361E-01    0.236E-01
DAV:   6    -0.136453231104E+04   -0.10206E-02   -0.17765E-02  2456   0.256E-01    0.204E-01
DAV:   7    -0.136453212065E+04    0.19039E-03   -0.81032E-03  2464   0.173E-01    0.137E-01
DAV:   8    -0.136453208063E+04    0.40013E-04   -0.35553E-03  2544   0.111E-01    0.773E-02
DAV:   9    -0.136453204136E+04    0.39277E-04   -0.60585E-04  2432   0.549E-02    0.557E-02
DAV:  10    -0.136453204254E+04   -0.11823E-05   -0.43374E-04  2480   0.363E-02    0.287E-02
DAV:  11    -0.136453204328E+04   -0.74133E-06   -0.11129E-04  2496   0.239E-02    0.151E-02
DAV:  12    -0.136453204639E+04   -0.31140E-05   -0.56989E-05  2368   0.152E-02    0.158E-02
DAV:  13    -0.136453204355E+04    0.28389E-05   -0.29910E-05  2128   0.103E-02    0.731E-03
DAV:  14    -0.136453204373E+04   -0.17839E-06   -0.10947E-05  1760   0.649E-03    0.342E-03
DAV:  15    -0.136453204392E+04   -0.19225E-06   -0.11300E-06   984   0.389E-03
   8 F= -.13645320E+04 E0= -.13645320E+04  d E =-.879273E+00
 BRION: g(F)=  0.284E+00 g(S)=  0.000E+00 retain N=  7 mean eig= 2.53
 eig:   6.080  6.080  1.543  0.139  1.430  1.430  1.015
 bond charge predicted
       N       E                     dE             d eps       ncg     rms          rms(c)
DAV:   1    -0.136470072756E+04   -0.16868E+00   -0.83924E+01  1368   0.131E+01    0.153E+00
DAV:   2    -0.136512295081E+04   -0.42222E+00   -0.44723E+00  2296   0.512E+00    0.787E-01
DAV:   3    -0.136514805637E+04   -0.25106E-01   -0.35356E-01  2576   0.100E+00    0.634E-01
DAV:   4    -0.136514334375E+04    0.47126E-02   -0.36211E-02  2600   0.443E-01    0.439E-01
DAV:   5    -0.136513945911E+04    0.38846E-02   -0.16306E-02  2376   0.261E-01    0.189E-01
DAV:   6    -0.136513969672E+04   -0.23761E-03   -0.10239E-02  2360   0.197E-01    0.131E-01
DAV:   7    -0.136513976708E+04   -0.70360E-04   -0.50929E-03  2464   0.135E-01    0.103E-01
DAV:   8    -0.136513974858E+04    0.18498E-04   -0.17894E-03  2608   0.813E-02    0.634E-02
DAV:   9    -0.136513972096E+04    0.27616E-04   -0.48243E-04  2560   0.437E-02    0.401E-02
DAV:  10    -0.136513972750E+04   -0.65310E-05   -0.19939E-04  2568   0.268E-02    0.258E-02
DAV:  11    -0.136513972831E+04   -0.81159E-06   -0.78102E-05  2464   0.183E-02    0.165E-02
DAV:  12    -0.136513972596E+04    0.23472E-05   -0.40163E-05  2312   0.138E-02    0.128E-02
DAV:  13    -0.136513972513E+04    0.82963E-06   -0.27309E-05  2152   0.948E-03    0.651E-03
DAV:  14    -0.136513972512E+04    0.77125E-08   -0.79150E-06  1712   0.582E-03
   9 F= -.13651397E+04 E0= -.13651397E+04  d E =-.607681E+00
 BRION: g(F)=  0.214E+00 g(S)=  0.000E+00 retain N=  7 mean eig= 3.31
 eig:   7.794  7.794  2.498  2.498  0.680  0.969  0.969
 bond charge predicted
       N       E                     dE             d eps       ncg     rms          rms(c)
DAV:   1    -0.136525716649E+04   -0.11744E+00   -0.64550E+01  1368   0.115E+01    0.139E+00
DAV:   2    -0.136558905665E+04   -0.33189E+00   -0.35124E+00  2288   0.452E+00    0.706E-01
DAV:   3    -0.136560794349E+04   -0.18887E-01   -0.27538E-01  2592   0.894E-01    0.562E-01
DAV:   4    -0.136560348658E+04    0.44569E-02   -0.29934E-02  2584   0.404E-01    0.374E-01
DAV:   5    -0.136560064210E+04    0.28445E-02   -0.13103E-02  2440   0.240E-01    0.156E-01
DAV:   6    -0.136560093017E+04   -0.28808E-03   -0.75619E-03  2456   0.170E-01    0.107E-01
DAV:   7    -0.136560098703E+04   -0.56852E-04   -0.31313E-03  2472   0.109E-01    0.848E-02
DAV:   8    -0.136560097300E+04    0.14025E-04   -0.12024E-03  2608   0.650E-02    0.486E-02
DAV:   9    -0.136560095839E+04    0.14614E-04   -0.29173E-04  2560   0.355E-02    0.322E-02
DAV:  10    -0.136560096175E+04   -0.33648E-05   -0.13905E-04  2584   0.231E-02    0.215E-02
DAV:  11    -0.136560096042E+04    0.13357E-05   -0.55074E-05  2360   0.158E-02    0.105E-02
DAV:  12    -0.136560096077E+04   -0.35721E-06   -0.22598E-05  2232   0.106E-02    0.914E-03
DAV:  13    -0.136560096024E+04    0.53858E-06   -0.12651E-05  1760   0.690E-03    0.464E-03
DAV:  14    -0.136560096022E+04    0.18917E-07   -0.44832E-06  1312   0.537E-03
  10 F= -.13656010E+04 E0= -.13656010E+04  d E =-.461235E+00
 BRION: g(F)=  0.167E+00 g(S)=  0.000E+00 retain N=  7 mean eig= 3.53
 eig:   7.746  7.746  2.615  2.615  1.431  1.431  1.096
 bond charge predicted
       N       E                     dE             d eps       ncg     rms          rms(c)
DAV:   1    -0.136570269139E+04   -0.10173E+00   -0.44790E+01  1376   0.967E+00    0.118E+00
DAV:   2    -0.136593887441E+04   -0.23618E+00   -0.25043E+00  2296   0.385E+00    0.599E-01
DAV:   3    -0.136595206610E+04   -0.13192E-01   -0.19402E-01  2576   0.755E-01    0.483E-01
DAV:   4    -0.136594904039E+04    0.30257E-02   -0.21771E-02  2592   0.343E-01    0.327E-01
DAV:   5    -0.136594689929E+04    0.21411E-02   -0.95104E-03  2440   0.200E-01    0.137E-01
DAV:   6    -0.136594708188E+04   -0.18259E-03   -0.53773E-03  2416   0.140E-01    0.919E-02
DAV:   7    -0.136594710763E+04   -0.25752E-04   -0.23198E-03  2440   0.931E-02    0.718E-02
DAV:   8    -0.136594710362E+04    0.40091E-05   -0.96901E-04  2608   0.586E-02    0.441E-02
DAV:   9    -0.136594709237E+04    0.11252E-04   -0.20923E-04  2536   0.304E-02    0.288E-02
DAV:  10    -0.136594709491E+04   -0.25474E-05   -0.92662E-05  2568   0.182E-02    0.170E-02
DAV:  11    -0.136594709509E+04   -0.17777E-06   -0.30198E-05  2376   0.119E-02    0.962E-03
DAV:  12    -0.136594709470E+04    0.39690E-06   -0.15476E-05  2056   0.891E-03    0.700E-03
DAV:  13    -0.136594709461E+04    0.82946E-07   -0.92088E-06  1744   0.590E-03
  11 F= -.13659471E+04 E0= -.13659471E+04  d E =-.346134E+00
 BRION: g(F)=  0.138E+00 g(S)=  0.000E+00 retain N=  6 mean eig= 4.00
 eig:   7.753  7.753  3.053  3.053  1.198  1.198
 bond charge predicted
       N       E                     dE             d eps       ncg     rms          rms(c)
DAV:   1    -0.136604522166E+04   -0.98127E-01   -0.20744E+01  1376   0.663E+00    0.816E-01
DAV:   2    -0.136615371394E+04   -0.10849E+00   -0.11511E+00  2296   0.262E+00    0.412E-01
DAV:   3    -0.136615975836E+04   -0.60444E-02   -0.89047E-02  2600   0.516E-01    0.333E-01
DAV:   4    -0.136615829567E+04    0.14627E-02   -0.96648E-03  2600   0.233E-01    0.230E-01
DAV:   5    -0.136615710019E+04    0.11955E-02   -0.49373E-03  2368   0.150E-01    0.932E-02
DAV:   6    -0.136615725361E+04   -0.15342E-03   -0.33032E-03  2456   0.111E-01    0.776E-02
DAV:   7    -0.136615724191E+04    0.11701E-04   -0.12226E-03  2432   0.674E-02    0.567E-02
DAV:   8    -0.136615723229E+04    0.96148E-05   -0.53300E-04  2576   0.430E-02    0.292E-02
DAV:   9    -0.136615722707E+04    0.52260E-05   -0.10159E-04  2464   0.217E-02    0.198E-02
DAV:  10    -0.136615722812E+04   -0.10483E-05   -0.45533E-05  2528   0.132E-02    0.118E-02
DAV:  11    -0.136615722796E+04    0.15141E-06   -0.16449E-05  2096   0.926E-03    0.645E-03
DAV:  12    -0.136615722814E+04   -0.17131E-06   -0.73607E-06  1664   0.664E-03
  12 F= -.13661572E+04 E0= -.13661572E+04  d E =-.210134E+00
 BRION: g(F)=  0.110E+00 g(S)=  0.000E+00 retain N=  3 mean eig= 3.35
 eig:   4.438  4.438  1.165
 bond charge predicted
       N       E                     dE             d eps       ncg     rms          rms(c)
DAV:   1    -0.136625289994E+04   -0.95672E-01   -0.25585E+01  1376   0.732E+00    0.870E-01
DAV:   2    -0.136638647108E+04   -0.13357E+00   -0.14183E+00  2288   0.290E+00    0.432E-01
DAV:   3    -0.136639469883E+04   -0.82278E-02   -0.11331E-01  2584   0.575E-01    0.350E-01
DAV:   4    -0.136639335990E+04    0.13389E-02   -0.11436E-02  2616   0.253E-01    0.252E-01
DAV:   5    -0.136639197661E+04    0.13833E-02   -0.54054E-03  2400   0.154E-01    0.109E-01
DAV:   6    -0.136639204177E+04   -0.65165E-04   -0.37296E-03  2384   0.120E-01    0.771E-02
DAV:   7    -0.136639207440E+04   -0.32628E-04   -0.17466E-03  2456   0.781E-02    0.627E-02
DAV:   8    -0.136639205997E+04    0.14431E-04   -0.60584E-04  2592   0.483E-02    0.382E-02
DAV:   9    -0.136639205041E+04    0.95575E-05   -0.16022E-04  2552   0.253E-02    0.223E-02
DAV:  10    -0.136639205308E+04   -0.26689E-05   -0.59093E-05  2576   0.150E-02    0.134E-02
DAV:  11    -0.136639205373E+04   -0.65150E-06   -0.17008E-05  2120   0.972E-03    0.907E-03
DAV:  12    -0.136639205314E+04    0.59203E-06   -0.12055E-05  1792   0.800E-03    0.735E-03
DAV:  13    -0.136639205288E+04    0.25863E-06   -0.87915E-06  1728   0.615E-03
  13 F= -.13663921E+04 E0= -.13663921E+04  d E =-.234825E+00
 BRION: g(F)=  0.990E-01 g(S)=  0.000E+00 retain N=  3 mean eig= 3.88
 eig:   5.171  5.171  1.297
 bond charge predicted
       N       E                     dE             d eps       ncg     rms          rms(c)
DAV:   1    -0.136648852108E+04   -0.96468E-01   -0.12353E+01  1376   0.510E+00    0.597E-01
DAV:   2    -0.136655189312E+04   -0.63372E-01   -0.67213E-01  2296   0.202E+00    0.299E-01
DAV:   3    -0.136655581319E+04   -0.39201E-02   -0.53517E-02  2592   0.392E-01    0.240E-01
DAV:   4    -0.136655514859E+04    0.66460E-03   -0.50794E-03  2616   0.171E-01    0.174E-01
DAV:   5    -0.136655443967E+04    0.70891E-03   -0.27398E-03  2336   0.112E-01    0.707E-02
DAV:   6    -0.136655451537E+04   -0.75696E-04   -0.19061E-03  2400   0.841E-02    0.585E-02
DAV:   7    -0.136655451330E+04    0.20693E-05   -0.72364E-04  2432   0.513E-02    0.424E-02
DAV:   8    -0.136655450584E+04    0.74615E-05   -0.29570E-04  2536   0.331E-02    0.224E-02
DAV:   9    -0.136655450329E+04    0.25425E-05   -0.60752E-05  2392   0.166E-02    0.147E-02
DAV:  10    -0.136655450400E+04   -0.70533E-06   -0.24435E-05  2392   0.976E-03    0.821E-03
DAV:  11    -0.136655450368E+04    0.32081E-06   -0.25220E-06  1064   0.626E-03
  14 F= -.13665545E+04 E0= -.13665545E+04  d E =-.162451E+00
 BRION: g(F)=  0.929E-01 g(S)=  0.000E+00 retain N=  3 mean eig= 3.27
 eig:   1.302  4.257  4.257
 bond charge predicted
       N       E                     dE             d eps       ncg     rms          rms(c)
DAV:   1    -0.136665742814E+04   -0.10292E+00   -0.18620E+01  1368   0.623E+00    0.731E-01
DAV:   2    -0.136675287702E+04   -0.95449E-01   -0.10134E+00  2312   0.246E+00    0.362E-01
DAV:   3    -0.136675857527E+04   -0.56983E-02   -0.78523E-02  2584   0.478E-01    0.287E-01
DAV:   4    -0.136675755603E+04    0.10192E-02   -0.77649E-03  2608   0.210E-01    0.203E-01
DAV:   5    -0.136675659846E+04    0.95756E-03   -0.40391E-03  2360   0.136E-01    0.810E-02
DAV:   6    -0.136675672242E+04   -0.12396E-03   -0.25922E-03  2464   0.983E-02    0.698E-02
DAV:   7    -0.136675671878E+04    0.36436E-05   -0.95988E-04  2496   0.598E-02    0.497E-02
DAV:   8    -0.136675670749E+04    0.11287E-04   -0.39603E-04  2544   0.385E-02    0.251E-02
DAV:   9    -0.136675670539E+04    0.21015E-05   -0.75088E-05  2336   0.187E-02    0.172E-02
DAV:  10    -0.136675670632E+04   -0.92926E-06   -0.35073E-05  2392   0.118E-02    0.943E-03
DAV:  11    -0.136675670594E+04    0.37323E-06   -0.67034E-06  1496   0.758E-03
  15 F= -.13667567E+04 E0= -.13667567E+04  d E =-.202202E+00
 BRION: g(F)=  0.890E-01 g(S)=  0.000E+00 retain N=  3 mean eig= 4.94
 eig:   6.432  6.432  1.965
 bond charge predicted
       N       E                     dE             d eps       ncg     rms          rms(c)
DAV:   1    -0.136686088172E+04   -0.10418E+00   -0.20698E+01  1368   0.656E+00    0.761E-01
DAV:   2    -0.136696603599E+04   -0.10515E+00   -0.11150E+00  2312   0.258E+00    0.379E-01
DAV:   3    -0.136697233668E+04   -0.63007E-02   -0.86891E-02  2584   0.499E-01    0.299E-01
DAV:   4    -0.136697115659E+04    0.11801E-02   -0.81884E-03  2600   0.218E-01    0.211E-01
DAV:   5    -0.136697010722E+04    0.10494E-02   -0.45721E-03  2352   0.142E-01    0.813E-02
DAV:   6    -0.136697025696E+04   -0.14975E-03   -0.26681E-03  2496   0.979E-02    0.715E-02
DAV:   7    -0.136697024747E+04    0.94915E-05   -0.91293E-04  2512   0.588E-02    0.479E-02
DAV:   8    -0.136697023739E+04    0.10088E-04   -0.38294E-04  2560   0.381E-02    0.250E-02
DAV:   9    -0.136697023590E+04    0.14840E-05   -0.67789E-05  2432   0.183E-02    0.173E-02
DAV:  10    -0.136697023655E+04   -0.64936E-06   -0.32623E-05  2488   0.115E-02    0.815E-03
DAV:  11    -0.136697023652E+04    0.31869E-07   -0.46892E-06  1296   0.698E-03
  16 F= -.13669702E+04 E0= -.13669702E+04  d E =-.213531E+00
 BRION: g(F)=  0.856E-01 g(S)=  0.000E+00 retain N=  3 mean eig= 4.53
 eig:   5.927  5.927  1.736
 bond charge predicted
       N       E                     dE             d eps       ncg     rms          rms(c)
DAV:   1    -0.136706520891E+04   -0.94972E-01   -0.96663E+00  1368   0.447E+00    0.524E-01
DAV:   2    -0.136711409245E+04   -0.48884E-01   -0.51781E-01  2320   0.176E+00    0.262E-01
DAV:   3    -0.136711680496E+04   -0.27125E-02   -0.38907E-02  2592   0.341E-01    0.204E-01
DAV:   4    -0.136711615846E+04    0.64651E-03   -0.39525E-03  2608   0.149E-01    0.137E-01
DAV:   5    -0.136711571483E+04    0.44363E-03   -0.21537E-03  2360   0.992E-02    0.516E-02
DAV:   6    -0.136711579501E+04   -0.80181E-04   -0.11642E-03  2528   0.645E-02    0.475E-02
DAV:   7    -0.136711578971E+04    0.52999E-05   -0.33949E-04  2544   0.367E-02    0.315E-02
DAV:   8    -0.136711578435E+04    0.53561E-05   -0.14405E-04  2576   0.234E-02    0.152E-02
DAV:   9    -0.136711578413E+04    0.21815E-06   -0.24256E-05  2248   0.114E-02    0.108E-02
DAV:  10    -0.136711578417E+04   -0.35536E-07   -0.11130E-05  1760   0.758E-03    0.484E-03
DAV:  11    -0.136711578407E+04    0.92885E-07   -0.15546E-06   992   0.547E-03
  17 F= -.13671158E+04 E0= -.13671158E+04  d E =-.145548E+00
 BRION: g(F)=  0.827E-01 g(S)=  0.000E+00 retain N=  3 mean eig= 3.94
 eig:   5.193  5.193  1.423
 bond charge predicted
       N       E                     dE             d eps       ncg     rms          rms(c)
DAV:   1    -0.136721797984E+04   -0.10220E+00   -0.14604E+01  1368   0.547E+00    0.632E-01
DAV:   2    -0.136729174019E+04   -0.73760E-01   -0.78218E-01  2320   0.216E+00    0.315E-01
DAV:   3    -0.136729597671E+04   -0.42365E-02   -0.59830E-02  2592   0.417E-01    0.246E-01
DAV:   4    -0.136729507152E+04    0.90519E-03   -0.56919E-03  2608   0.181E-01    0.169E-01
DAV:   5    -0.136729437084E+04    0.70068E-03   -0.31746E-03  2320   0.116E-01    0.640E-02
DAV:   6    -0.136729447636E+04   -0.10552E-03   -0.17144E-03  2504   0.775E-02    0.579E-02
DAV:   7    -0.136729446771E+04    0.86501E-05   -0.59703E-04  2520   0.476E-02    0.379E-02
DAV:   8    -0.136729446154E+04    0.61673E-05   -0.23236E-04  2544   0.299E-02    0.200E-02
DAV:   9    -0.136729446088E+04    0.65901E-06   -0.41306E-05  2488   0.143E-02    0.140E-02
DAV:  10    -0.136729446128E+04   -0.39763E-06   -0.21884E-05  2336   0.942E-03    0.657E-03
DAV:  11    -0.136729446103E+04    0.24264E-06   -0.25572E-06  1096   0.615E-03
  18 F= -.13672945E+04 E0= -.13672945E+04  d E =-.178677E+00
 BRION: g(F)=  0.790E-01 g(S)=  0.000E+00 retain N=  3 mean eig= 4.75
 eig:   6.395  6.395  1.457
 bond charge predicted
       N       E                     dE             d eps       ncg     rms          rms(c)
DAV:   1    -0.136739452575E+04   -0.10006E+00   -0.25398E+01  1368   0.720E+00    0.827E-01
DAV:   2    -0.136752183952E+04   -0.12731E+00   -0.13476E+00  2320   0.282E+00    0.414E-01
DAV:   3    -0.136752901656E+04   -0.71770E-02   -0.10227E-01  2584   0.549E-01    0.323E-01
DAV:   4    -0.136752737974E+04    0.16368E-02   -0.99644E-03  2592   0.236E-01    0.220E-01
DAV:   5    -0.136752615244E+04    0.12273E-02   -0.54996E-03  2312   0.153E-01    0.826E-02
DAV:   6    -0.136752634341E+04   -0.19097E-03   -0.29349E-03  2496   0.101E-01    0.745E-02
DAV:   7    -0.136752632642E+04    0.16992E-04   -0.91144E-04  2528   0.600E-02    0.484E-02
DAV:   8    -0.136752631686E+04    0.95606E-05   -0.38556E-04  2592   0.379E-02    0.251E-02
DAV:   9    -0.136752631575E+04    0.11138E-05   -0.67280E-05  2496   0.185E-02    0.180E-02
DAV:  10    -0.136752631619E+04   -0.44303E-06   -0.34773E-05  2528   0.119E-02    0.829E-03
DAV:  11    -0.136752631619E+04   -0.18626E-08   -0.65920E-06  1480   0.723E-03
  19 F= -.13675263E+04 E0= -.13675263E+04  d E =-.231855E+00
 BRION: g(F)=  0.746E-01 g(S)=  0.000E+00 retain N=  3 mean eig= 4.73
 eig:   1.493  6.351  6.351
 bond charge predicted
       N       E                     dE             d eps       ncg     rms          rms(c)
DAV:   1    -0.136761363567E+04   -0.87319E-01   -0.28827E+01  1368   0.763E+00    0.875E-01
DAV:   2    -0.136775745353E+04   -0.14382E+00   -0.15223E+00  2312   0.300E+00    0.438E-01
DAV:   3    -0.136776574731E+04   -0.82938E-02   -0.11787E-01  2584   0.575E-01    0.343E-01
DAV:   4    -0.136776388574E+04    0.18616E-02   -0.10961E-02  2592   0.248E-01    0.236E-01
DAV:   5    -0.136776237423E+04    0.15115E-02   -0.59694E-03  2312   0.160E-01    0.893E-02
DAV:   6    -0.136776256506E+04   -0.19083E-03   -0.34890E-03  2448   0.109E-01    0.789E-02
DAV:   7    -0.136776254873E+04    0.16330E-04   -0.11611E-03  2472   0.666E-02    0.539E-02
DAV:   8    -0.136776253721E+04    0.11514E-04   -0.49448E-04  2576   0.420E-02    0.282E-02
DAV:   9    -0.136776253406E+04    0.31521E-05   -0.91472E-05  2424   0.210E-02    0.202E-02
DAV:  10    -0.136776253426E+04   -0.20007E-06   -0.46957E-05  2496   0.135E-02    0.101E-02
DAV:  11    -0.136776253446E+04   -0.19772E-06   -0.13249E-05  1984   0.859E-03    0.476E-03
DAV:  12    -0.136776253485E+04   -0.39447E-06   -0.67143E-06  1616   0.563E-03
  20 F= -.13677625E+04 E0= -.13677625E+04  d E =-.236219E+00
 BRION: g(F)=  0.687E-01 g(S)=  0.000E+00 retain N=  2 mean eig= 5.81
 eig:   5.815  5.815
