 running on  160 total cores
 distrk:  each k-point on  160 cores,    1 groups
 distr:  one band on   20 cores,    8 groups
 using from now: INCAR     
 vasp.5.4.4.18Apr17-6-g9f103f2a35 (build May 01 2020 14:22:42) gamma-only       
  
 POSCAR found type information on POSCAR  O  La Zr Li Al
 POSCAR found :  5 types and     190 ions
 scaLAPACK will be used
 LDA part: xc-table for Pade appr. of Perdew
 POSCAR, INCAR and KPOINTS ok, starting setup
 FFT: planning ...
 WAVECAR not read
 WARNING: random wavefunctions but no delay for mixing, default for NELMDL
 entering main loop
       N       E                     dE             d eps       ncg     rms          rms(c)
DAV:   1     0.252945832827E+05    0.25295E+05   -0.42231E+05  1584   0.253E+03
DAV:   2     0.942364211316E+04   -0.15871E+05   -0.14634E+05  1416   0.705E+02
DAV:   3     0.268405444623E+04   -0.67396E+04   -0.61484E+04  1504   0.356E+02
DAV:   4    -0.370100617663E+03   -0.30542E+04   -0.28534E+04  2048   0.223E+02
DAV:   5    -0.140738429346E+04   -0.10373E+04   -0.99687E+03  2504   0.141E+02    0.116E+02
DAV:   6    -0.129511911332E+04    0.11227E+03   -0.14521E+03  2456   0.662E+01    0.501E+01
DAV:   7    -0.131762846816E+04   -0.22509E+02   -0.38328E+02  2568   0.335E+01    0.251E+01
DAV:   8    -0.132815243037E+04   -0.10524E+02   -0.28206E+02  2528   0.273E+01    0.275E+01
DAV:   9    -0.131961294593E+04    0.85395E+01   -0.57182E+01  2472   0.152E+01    0.897E+00
DAV:  10    -0.132034682522E+04   -0.73388E+00   -0.17535E+01  2600   0.812E+00    0.760E+00
DAV:  11    -0.132056959458E+04   -0.22277E+00   -0.61811E+00  2616   0.437E+00    0.473E+00
DAV:  12    -0.132049918055E+04    0.70414E-01   -0.19974E+00  2576   0.330E+00    0.300E+00
DAV:  13    -0.132050398089E+04   -0.48003E-02   -0.96603E-01  2608   0.180E+00    0.169E+00
DAV:  14    -0.132050104285E+04    0.29380E-02   -0.22899E-01  2616   0.962E-01    0.117E+00
DAV:  15    -0.132050534393E+04   -0.43011E-02   -0.73721E-02  2592   0.510E-01    0.732E-01
DAV:  16    -0.132050632161E+04   -0.97768E-03   -0.25959E-02  2616   0.301E-01    0.596E-01
DAV:  17    -0.132050644435E+04   -0.12274E-03   -0.17438E-02  2480   0.254E-01    0.297E-01
DAV:  18    -0.132050656456E+04   -0.12021E-03   -0.41942E-03  2520   0.133E-01    0.184E-01
DAV:  19    -0.132050654062E+04    0.23941E-04   -0.29970E-03  2464   0.102E-01    0.138E-01
DAV:  20    -0.132050656302E+04   -0.22402E-04   -0.75448E-04  2536   0.492E-02    0.488E-02
DAV:  21    -0.132050657605E+04   -0.13031E-04   -0.22918E-04  2592   0.307E-02    0.574E-02
DAV:  22    -0.132050658467E+04   -0.86212E-05   -0.90892E-05  2464   0.152E-02    0.201E-02
DAV:  23    -0.132050658598E+04   -0.13089E-05   -0.36304E-05  1864   0.107E-02    0.158E-02
DAV:  24    -0.132050659059E+04   -0.46138E-05   -0.13030E-05  1416   0.762E-03    0.352E-03
DAV:  25    -0.132050659118E+04   -0.58603E-06   -0.66877E-06  1104   0.612E-03
   1 F= -.13205066E+04 E0= -.13204868E+04  d E =-.132051E+04
 BRION: g(F)=  0.668E+02 g(S)=  0.000E+00
 bond charge predicted
       N       E                     dE             d eps       ncg     rms          rms(c)
DAV:   1    -0.129668241492E+04    0.23824E+02   -0.68479E+03  1680   0.122E+02    0.284E+01
DAV:   2    -0.135259263746E+04   -0.55910E+02   -0.62960E+02  2576   0.570E+01    0.146E+01
DAV:   3    -0.135060824526E+04    0.19844E+01   -0.34308E+01  2608   0.144E+01    0.982E+00
DAV:   4    -0.134864417518E+04    0.19641E+01   -0.14068E+01  2432   0.753E+00    0.465E+00
DAV:   5    -0.134852862360E+04    0.11555E+00   -0.40174E+00  2576   0.437E+00    0.329E+00
DAV:   6    -0.134844535573E+04    0.83268E-01   -0.29023E+00  2544   0.298E+00    0.193E+00
DAV:   7    -0.134840977627E+04    0.35579E-01   -0.45532E-01  2536   0.175E+00    0.127E+00
DAV:   8    -0.134840889844E+04    0.87782E-03   -0.52127E-01  2544   0.117E+00    0.713E-01
DAV:   9    -0.134840747568E+04    0.14228E-02   -0.66458E-02  2552   0.591E-01    0.493E-01
DAV:  10    -0.134840529777E+04    0.21779E-02   -0.34231E-02  2528   0.326E-01    0.196E-01
DAV:  11    -0.134840638936E+04   -0.10916E-02   -0.16374E-02  2608   0.225E-01    0.180E-01
DAV:  12    -0.134840608144E+04    0.30791E-03   -0.32552E-03  2600   0.120E-01    0.847E-02
DAV:  13    -0.134840610692E+04   -0.25478E-04   -0.21032E-03  2616   0.775E-02    0.320E-02
DAV:  14    -0.134840612079E+04   -0.13871E-04   -0.24599E-04  2624   0.345E-02    0.186E-02
DAV:  15    -0.134840612588E+04   -0.50875E-05   -0.62723E-05  2624   0.164E-02    0.811E-03
DAV:  16    -0.134840612726E+04   -0.13785E-05   -0.22604E-05  2424   0.965E-03    0.396E-03
DAV:  17    -0.134840612811E+04   -0.84774E-06   -0.43020E-06  1280   0.627E-03
   2 F= -.13484061E+04 E0= -.13484061E+04  d E =-.278995E+02
 BRION: g(F)=  0.250E+02 g(S)=  0.000E+00 retain N=  1 mean eig= 0.68
 eig:   0.679
 bond charge predicted
       N       E                     dE             d eps       ncg     rms          rms(c)
DAV:   1    -0.133799515591E+04    0.10411E+02   -0.25499E+03  1464   0.703E+01    0.146E+01
DAV:   2    -0.135540411608E+04   -0.17409E+02   -0.20591E+02  2464   0.296E+01    0.132E+01
DAV:   3    -0.135574158612E+04   -0.33747E+00   -0.14519E+01  2608   0.899E+00    0.106E+01
DAV:   4    -0.135503608352E+04    0.70550E+00   -0.45258E+00  2464   0.383E+00    0.614E+00
DAV:   5    -0.135486996390E+04    0.16612E+00   -0.21317E+00  2208   0.319E+00    0.385E+00
DAV:   6    -0.135467918778E+04    0.19078E+00   -0.23418E+00  2440   0.272E+00    0.145E+00
DAV:   7    -0.135469772270E+04   -0.18535E-01   -0.52854E-01  2472   0.139E+00    0.880E-01
DAV:   8    -0.135469349908E+04    0.42236E-02   -0.92803E-02  2616   0.628E-01    0.485E-01
DAV:   9    -0.135469498149E+04   -0.14824E-02   -0.24795E-02  2600   0.314E-01    0.392E-01
DAV:  10    -0.135469332638E+04    0.16551E-02   -0.11526E-02  2552   0.207E-01    0.141E-01
DAV:  11    -0.135469360127E+04   -0.27489E-03   -0.52461E-03  2512   0.142E-01    0.692E-02
DAV:  12    -0.135469362332E+04   -0.22050E-04   -0.85034E-04  2624   0.641E-02    0.389E-02
DAV:  13    -0.135469363819E+04   -0.14872E-04   -0.42749E-04  2520   0.363E-02    0.213E-02
DAV:  14    -0.135469364226E+04   -0.40720E-05   -0.99633E-05  2608   0.221E-02    0.833E-03
DAV:  15    -0.135469364592E+04   -0.36539E-05   -0.42844E-05  2536   0.127E-02    0.831E-03
DAV:  16    -0.135469364642E+04   -0.50580E-06   -0.79230E-06  1432   0.729E-03
   3 F= -.13546936E+04 E0= -.13546936E+04  d E =-.628752E+01
 BRION: g(F)=  0.628E+01 g(S)=  0.000E+00 retain N=  2 mean eig= 0.78
 eig:   0.474  1.088
 bond charge predicted
       N       E                     dE             d eps       ncg     rms          rms(c)
DAV:   1    -0.135628489255E+04   -0.15912E+01   -0.42334E+02  1376   0.299E+01    0.583E+00
DAV:   2    -0.135832987467E+04   -0.20450E+01   -0.23687E+01  2288   0.116E+01    0.253E+00
DAV:   3    -0.135840135972E+04   -0.71485E-01   -0.20681E+00  2576   0.277E+00    0.218E+00
DAV:   4    -0.135833682456E+04    0.64535E-01   -0.42880E-01  2528   0.141E+00    0.118E+00
DAV:   5    -0.135831880760E+04    0.18017E-01   -0.21151E-01  2248   0.911E-01    0.699E-01
DAV:   6    -0.135831853765E+04    0.26995E-03   -0.10053E-01  2536   0.634E-01    0.561E-01
DAV:   7    -0.135831712855E+04    0.14091E-02   -0.60371E-02  2416   0.426E-01    0.328E-01
DAV:   8    -0.135831688078E+04    0.24777E-03   -0.14342E-02  2576   0.229E-01    0.175E-01
DAV:   9    -0.135831671704E+04    0.16374E-03   -0.31412E-03  2600   0.121E-01    0.108E-01
DAV:  10    -0.135831692440E+04   -0.20736E-03   -0.29442E-03  2248   0.897E-02    0.112E-01
DAV:  11    -0.135831673381E+04    0.19059E-03   -0.12322E-03  2520   0.706E-02    0.395E-02
DAV:  12    -0.135831676525E+04   -0.31448E-04   -0.65220E-04  2512   0.453E-02    0.356E-02
DAV:  13    -0.135831675426E+04    0.10992E-04   -0.12454E-04  2496   0.234E-02    0.182E-02
DAV:  14    -0.135831675518E+04   -0.91840E-06   -0.46943E-05  2408   0.119E-02    0.647E-03
DAV:  15    -0.135831675579E+04   -0.60607E-06   -0.63751E-06  1424   0.660E-03
   4 F= -.13583168E+04 E0= -.13583168E+04  d E =-.362311E+01
 BRION: g(F)=  0.195E+01 g(S)=  0.000E+00 retain N=  3 mean eig= 1.25
 eig:   0.665  1.541  1.541
 bond charge predicted
       N       E                     dE             d eps       ncg     rms          rms(c)
DAV:   1    -0.135925013765E+04   -0.93338E+00   -0.21765E+02  1360   0.212E+01    0.296E+00
DAV:   2    -0.136029010673E+04   -0.10400E+01   -0.11122E+01  2304   0.789E+00    0.148E+00
DAV:   3    -0.136033677310E+04   -0.46666E-01   -0.84077E-01  2600   0.162E+00    0.121E+00
DAV:   4    -0.136031601484E+04    0.20758E-01   -0.11674E-01  2600   0.761E-01    0.720E-01
DAV:   5    -0.136030807007E+04    0.79448E-02   -0.62327E-02  2256   0.494E-01    0.327E-01
DAV:   6    -0.136030919309E+04   -0.11230E-02   -0.27534E-02  2584   0.330E-01    0.279E-01
DAV:   7    -0.136030879289E+04    0.40020E-03   -0.13304E-02  2488   0.211E-01    0.168E-01
DAV:   8    -0.136030870942E+04    0.83479E-04   -0.34858E-03  2584   0.118E-01    0.889E-02
DAV:   9    -0.136030869223E+04    0.17189E-04   -0.68613E-04  2592   0.564E-02    0.619E-02
DAV:  10    -0.136030873901E+04   -0.46783E-04   -0.65127E-04  2304   0.420E-02    0.531E-02
DAV:  11    -0.136030869730E+04    0.41709E-04   -0.26184E-04  2528   0.344E-02    0.202E-02
DAV:  12    -0.136030870468E+04   -0.73816E-05   -0.14896E-04  2456   0.219E-02    0.194E-02
DAV:  13    -0.136030870073E+04    0.39504E-05   -0.35611E-05  2224   0.125E-02    0.886E-03
DAV:  14    -0.136030870108E+04   -0.35227E-06   -0.14577E-05  1768   0.726E-03    0.288E-03
DAV:  15    -0.136030870129E+04   -0.20758E-06   -0.11997E-06   992   0.429E-03
   5 F= -.13603087E+04 E0= -.13603087E+04  d E =-.199195E+01
 BRION: g(F)=  0.136E+01 g(S)=  0.000E+00 retain N=  4 mean eig= 1.63
 eig:   2.483  2.483  0.786  0.786
 bond charge predicted
       N       E                     dE             d eps       ncg     rms          rms(c)
DAV:   1    -0.136095988329E+04   -0.65118E+00   -0.14655E+02  1376   0.172E+01    0.223E+00
DAV:   2    -0.136168578850E+04   -0.72591E+00   -0.76572E+00  2296   0.646E+00    0.114E+00
DAV:   3    -0.136172053077E+04   -0.34742E-01   -0.57632E-01  2608   0.129E+00    0.896E-01
DAV:   4    -0.136170641313E+04    0.14118E-01   -0.69257E-02  2592   0.608E-01    0.536E-01
DAV:   5    -0.136170140263E+04    0.50105E-02   -0.36876E-02  2328   0.378E-01    0.219E-01
DAV:   6    -0.136170239944E+04   -0.99680E-03   -0.16122E-02  2568   0.241E-01    0.177E-01
DAV:   7    -0.136170233368E+04    0.65757E-04   -0.51019E-03  2560   0.141E-01    0.115E-01
DAV:   8    -0.136170227452E+04    0.59159E-04   -0.15923E-03  2616   0.794E-02    0.618E-02
DAV:   9    -0.136170226787E+04    0.66483E-05   -0.33398E-04  2576   0.409E-02    0.415E-02
DAV:  10    -0.136170228322E+04   -0.15350E-04   -0.27280E-04  2336   0.292E-02    0.290E-02
DAV:  11    -0.136170227505E+04    0.81747E-05   -0.75708E-05  2504   0.203E-02    0.134E-02
DAV:  12    -0.136170227779E+04   -0.27380E-05   -0.57109E-05  2344   0.130E-02    0.120E-02
DAV:  13    -0.136170227596E+04    0.18267E-05   -0.12324E-05  1792   0.806E-03    0.538E-03
DAV:  14    -0.136170227622E+04   -0.26042E-06   -0.70580E-06  1608   0.577E-03
   6 F= -.13617023E+04 E0= -.13617023E+04  d E =-.139357E+01
 BRION: g(F)=  0.821E+00 g(S)=  0.000E+00 retain N=  5 mean eig= 1.95
 eig:   3.527  3.527  0.976  0.976  0.740
 bond charge predicted
       N       E                     dE             d eps       ncg     rms          rms(c)
DAV:   1    -0.136220517971E+04   -0.50290E+00   -0.89173E+01  1376   0.136E+01    0.183E+00
DAV:   2    -0.136266533610E+04   -0.46016E+00   -0.48903E+00  2304   0.521E+00    0.900E-01
DAV:   3    -0.136268984391E+04   -0.24508E-01   -0.38209E-01  2616   0.107E+00    0.719E-01
DAV:   4    -0.136268224516E+04    0.75988E-02   -0.46743E-02  2608   0.506E-01    0.442E-01
DAV:   5    -0.136267920106E+04    0.30441E-02   -0.23110E-02  2360   0.306E-01    0.187E-01
DAV:   6    -0.136267986262E+04   -0.66156E-03   -0.10856E-02  2568   0.202E-01    0.154E-01
DAV:   7    -0.136267978311E+04    0.79504E-04   -0.44097E-03  2536   0.128E-01    0.101E-01
DAV:   8    -0.136267976704E+04    0.16073E-04   -0.15325E-03  2600   0.757E-02    0.549E-02
DAV:   9    -0.136267975235E+04    0.14693E-04   -0.27798E-04  2592   0.366E-02    0.387E-02
DAV:  10    -0.136267976445E+04   -0.12104E-04   -0.27089E-04  2368   0.287E-02    0.272E-02
DAV:  11    -0.136267975661E+04    0.78391E-05   -0.79563E-05  2488   0.206E-02    0.108E-02
DAV:  12    -0.136267976041E+04   -0.37992E-05   -0.52328E-05  2328   0.125E-02    0.121E-02
DAV:  13    -0.136267975827E+04    0.21393E-05   -0.12920E-05  1792   0.792E-03    0.487E-03
DAV:  14    -0.136267975840E+04   -0.12925E-06   -0.50836E-06  1384   0.558E-03
   7 F= -.13626798E+04 E0= -.13626798E+04  d E =-.977482E+00
 BRION: g(F)=  0.517E+00 g(S)=  0.000E+00 retain N=  6 mean eig= 2.72
 eig:   5.771  5.771  1.571  1.571  0.821  0.821
 bond charge predicted
       N       E                     dE             d eps       ncg     rms          rms(c)
DAV:   1    -0.136302414738E+04   -0.34439E+00   -0.12544E+02  1392   0.162E+01    0.200E+00
DAV:   2    -0.136367801317E+04   -0.65387E+00   -0.69517E+00  2296   0.635E+00    0.101E+00
DAV:   3    -0.136371711114E+04   -0.39098E-01   -0.55975E-01  2600   0.127E+00    0.818E-01
DAV:   4    -0.136370847301E+04    0.86381E-02   -0.59267E-02  2616   0.582E-01    0.548E-01
DAV:   5    -0.136370267632E+04    0.57967E-02   -0.30344E-02  2328   0.349E-01    0.214E-01
DAV:   6    -0.136370362469E+04   -0.94836E-03   -0.15952E-02  2488   0.243E-01    0.185E-01
DAV:   7    -0.136370351936E+04    0.10533E-03   -0.70826E-03  2472   0.158E-01    0.121E-01
DAV:   8    -0.136370348580E+04    0.33559E-04   -0.24737E-03  2608   0.972E-02    0.665E-02
DAV:   9    -0.136370346550E+04    0.20298E-04   -0.47205E-04  2536   0.468E-02    0.480E-02
DAV:  10    -0.136370347445E+04   -0.89450E-05   -0.30364E-04  2576   0.317E-02    0.272E-02
DAV:  11    -0.136370347238E+04    0.20734E-05   -0.10188E-04  2472   0.222E-02    0.128E-02
DAV:  12    -0.136370347455E+04   -0.21772E-05   -0.41818E-05  2392   0.142E-02    0.126E-02
DAV:  13    -0.136370347306E+04    0.14922E-05   -0.19790E-05  1976   0.854E-03    0.625E-03
DAV:  14    -0.136370347315E+04   -0.86409E-07   -0.84756E-06  1728   0.613E-03
   8 F= -.13637035E+04 E0= -.13637035E+04  d E =-.102371E+01
 BRION: g(F)=  0.344E+00 g(S)=  0.000E+00 retain N=  7 mean eig= 3.23
 eig:   7.001  7.001  2.744  2.744  0.882  1.136  1.136
 bond charge predicted
       N       E                     dE             d eps       ncg     rms          rms(c)
DAV:   1    -0.136395593867E+04   -0.25247E+00   -0.89494E+01  1384   0.136E+01    0.171E+00
DAV:   2    -0.136442224164E+04   -0.46630E+00   -0.49686E+00  2288   0.542E+00    0.842E-01
DAV:   3    -0.136444972652E+04   -0.27485E-01   -0.40388E-01  2616   0.107E+00    0.672E-01
DAV:   4    -0.136444305572E+04    0.66708E-02   -0.41683E-02  2608   0.493E-01    0.442E-01
DAV:   5    -0.136443906519E+04    0.39905E-02   -0.20745E-02  2328   0.291E-01    0.175E-01
DAV:   6    -0.136443967111E+04   -0.60591E-03   -0.10766E-02  2512   0.200E-01    0.143E-01
DAV:   7    -0.136443964090E+04    0.30206E-04   -0.45543E-03  2536   0.128E-01    0.974E-02
DAV:   8    -0.136443963154E+04    0.93576E-05   -0.16906E-03  2600   0.793E-02    0.547E-02
DAV:   9    -0.136443961501E+04    0.16529E-04   -0.32508E-04  2504   0.391E-02    0.392E-02
DAV:  10    -0.136443961990E+04   -0.48852E-05   -0.22989E-04  2536   0.281E-02    0.219E-02
DAV:  11    -0.136443961845E+04    0.14448E-05   -0.74121E-05  2472   0.191E-02    0.940E-03
DAV:  12    -0.136443962059E+04   -0.21369E-05   -0.29274E-05  2344   0.115E-02    0.982E-03
DAV:  13    -0.136443961962E+04    0.97146E-06   -0.11282E-05  1688   0.704E-03    0.475E-03
DAV:  14    -0.136443961966E+04   -0.41400E-07   -0.50685E-06  1384   0.582E-03
   9 F= -.13644396E+04 E0= -.13644396E+04  d E =-.736147E+00
 BRION: g(F)=  0.265E+00 g(S)=  0.000E+00 retain N=  6 mean eig= 3.45
 eig:   7.011  7.011  2.305  2.305  1.029  1.029
 bond charge predicted
       N       E                     dE             d eps       ncg     rms          rms(c)
DAV:   1    -0.136466323702E+04   -0.22362E+00   -0.43652E+01  1384   0.946E+00    0.115E+00
DAV:   2    -0.136489325388E+04   -0.23002E+00   -0.24509E+00  2304   0.383E+00    0.589E-01
DAV:   3    -0.136490670796E+04   -0.13454E-01   -0.19676E-01  2600   0.738E-01    0.473E-01
DAV:   4    -0.136490352075E+04    0.31872E-02   -0.20287E-02  2608   0.337E-01    0.312E-01
DAV:   5    -0.136490146972E+04    0.20510E-02   -0.95290E-03  2352   0.194E-01    0.123E-01
DAV:   6    -0.136490170198E+04   -0.23227E-03   -0.48923E-03  2456   0.130E-01    0.926E-02
DAV:   7    -0.136490170103E+04    0.95333E-06   -0.21232E-03  2480   0.862E-02    0.640E-02
DAV:   8    -0.136490170307E+04   -0.20415E-05   -0.83012E-04  2608   0.556E-02    0.402E-02
DAV:   9    -0.136490169442E+04    0.86500E-05   -0.18145E-04  2496   0.284E-02    0.290E-02
DAV:  10    -0.136490169477E+04   -0.35208E-06   -0.94867E-05  2560   0.181E-02    0.159E-02
DAV:  11    -0.136490169526E+04   -0.48723E-06   -0.38161E-05  2376   0.127E-02    0.831E-03
DAV:  12    -0.136490169503E+04    0.22641E-06   -0.12491E-05  1920   0.883E-03    0.653E-03
DAV:  13    -0.136490169503E+04    0.45111E-09   -0.88819E-06  1648   0.566E-03
  10 F= -.13649017E+04 E0= -.13649017E+04  d E =-.462075E+00
 BRION: g(F)=  0.213E+00 g(S)=  0.000E+00 retain N=  6 mean eig= 3.87
 eig:   7.755  7.755  2.661  2.661  1.179  1.179
 bond charge predicted
       N       E                     dE             d eps       ncg     rms          rms(c)
DAV:   1    -0.136507609679E+04   -0.17440E+00   -0.37742E+01  1368   0.875E+00    0.102E+00
DAV:   2    -0.136526916960E+04   -0.19307E+00   -0.20424E+00  2288   0.349E+00    0.527E-01
DAV:   3    -0.136528065015E+04   -0.11481E-01   -0.16358E-01  2600   0.668E-01    0.419E-01
DAV:   4    -0.136527802448E+04    0.26257E-02   -0.15094E-02  2592   0.292E-01    0.289E-01
DAV:   5    -0.136527597299E+04    0.20515E-02   -0.82866E-03  2304   0.180E-01    0.110E-01
DAV:   6    -0.136527620590E+04   -0.23291E-03   -0.46256E-03  2440   0.124E-01    0.910E-02
DAV:   7    -0.136527619600E+04    0.99066E-05   -0.18846E-03  2480   0.801E-02    0.626E-02
DAV:   8    -0.136527618472E+04    0.11275E-04   -0.70110E-04  2576   0.508E-02    0.371E-02
DAV:   9    -0.136527617563E+04    0.90917E-05   -0.13999E-04  2448   0.257E-02    0.256E-02
DAV:  10    -0.136527617717E+04   -0.15446E-05   -0.94094E-05  2488   0.174E-02    0.131E-02
DAV:  11    -0.136527617719E+04   -0.17637E-07   -0.25430E-05  2296   0.115E-02    0.658E-03
DAV:  12    -0.136527617762E+04   -0.42588E-06   -0.10005E-05  1784   0.739E-03    0.592E-03
DAV:  13    -0.136527617712E+04    0.50098E-06   -0.26202E-06  1072   0.527E-03
  11 F= -.13652762E+04 E0= -.13652762E+04  d E =-.374482E+00
 BRION: g(F)=  0.178E+00 g(S)=  0.000E+00 retain N=  4 mean eig= 4.78
 eig:   7.804  7.804  1.755  1.755
 bond charge predicted
       N       E                     dE             d eps       ncg     rms          rms(c)
DAV:   1    -0.136536440534E+04   -0.88228E-01   -0.77957E+01  1368   0.126E+01    0.143E+00
DAV:   2    -0.136576115838E+04   -0.39675E+00   -0.41760E+00  2304   0.500E+00    0.742E-01
DAV:   3    -0.136578392220E+04   -0.22764E-01   -0.32352E-01  2592   0.931E-01    0.592E-01
DAV:   4    -0.136577909772E+04    0.48245E-02   -0.29262E-02  2600   0.400E-01    0.422E-01
DAV:   5    -0.136577412462E+04    0.49731E-02   -0.14878E-02  2280   0.250E-01    0.168E-01
DAV:   6    -0.136577440617E+04   -0.28156E-03   -0.10837E-02  2368   0.188E-01    0.121E-01
DAV:   7    -0.136577444276E+04   -0.36582E-04   -0.39658E-03  2448   0.115E-01    0.922E-02
DAV:   8    -0.136577441062E+04    0.32135E-04   -0.14106E-03  2576   0.728E-02    0.522E-02
DAV:   9    -0.136577438811E+04    0.22515E-04   -0.39314E-04  2416   0.398E-02    0.340E-02
DAV:  10    -0.136577439362E+04   -0.55097E-05   -0.15141E-04  2464   0.238E-02    0.214E-02
DAV:  11    -0.136577439189E+04    0.17229E-05   -0.54428E-05  2448   0.158E-02    0.107E-02
DAV:  12    -0.136577439299E+04   -0.10955E-05   -0.28550E-05  2304   0.110E-02    0.102E-02
DAV:  13    -0.136577439211E+04    0.87587E-06   -0.11179E-05  1768   0.673E-03    0.571E-03
DAV:  14    -0.136577439195E+04    0.16173E-06   -0.62729E-06  1504   0.552E-03
  12 F= -.13657744E+04 E0= -.13657744E+04  d E =-.498215E+00
 BRION: g(F)=  0.152E+00 g(S)=  0.000E+00 retain N=  4 mean eig= 4.97
 eig:   7.803  7.803  2.133  2.133
 bond charge predicted
       N       E                     dE             d eps       ncg     rms          rms(c)
DAV:   1    -0.136590884729E+04   -0.13446E+00   -0.41797E+01  1376   0.920E+00    0.103E+00
DAV:   2    -0.136612006355E+04   -0.21122E+00   -0.22312E+00  2304   0.363E+00    0.532E-01
DAV:   3    -0.136613280086E+04   -0.12737E-01   -0.17952E-01  2600   0.689E-01    0.426E-01
DAV:   4    -0.136613026214E+04    0.25387E-02   -0.15528E-02  2600   0.298E-01    0.305E-01
DAV:   5    -0.136612767836E+04    0.25838E-02   -0.84831E-03  2296   0.181E-01    0.125E-01
DAV:   6    -0.136612777743E+04   -0.99074E-04   -0.55941E-03  2360   0.139E-01    0.953E-02
DAV:   7    -0.136612779412E+04   -0.16693E-04   -0.27066E-03  2432   0.941E-02    0.697E-02
DAV:   8    -0.136612777751E+04    0.16615E-04   -0.84128E-04  2584   0.581E-02    0.431E-02
DAV:   9    -0.136612776391E+04    0.13603E-04   -0.22877E-04  2448   0.306E-02    0.285E-02
DAV:  10    -0.136612776615E+04   -0.22438E-05   -0.10928E-04  2480   0.189E-02    0.167E-02
DAV:  11    -0.136612776684E+04   -0.68711E-06   -0.40701E-05  2352   0.139E-02    0.105E-02
DAV:  12    -0.136612776616E+04    0.67808E-06   -0.17742E-05  2104   0.986E-03    0.884E-03
DAV:  13    -0.136612776574E+04    0.41747E-06   -0.12001E-05  1760   0.657E-03    0.498E-03
DAV:  14    -0.136612776540E+04    0.33871E-06   -0.18475E-06   992   0.466E-03
  13 F= -.13661278E+04 E0= -.13661278E+04  d E =-.353373E+00
 BRION: g(F)=  0.136E+00 g(S)=  0.000E+00 retain N=  3 mean eig= 4.45
 eig:   1.757  5.794  5.794
 bond charge predicted
       N       E                     dE             d eps       ncg     rms          rms(c)
DAV:   1    -0.136624497732E+04   -0.11721E+00   -0.40120E+01  1360   0.904E+00    0.105E+00
DAV:   2    -0.136645026377E+04   -0.20529E+00   -0.21662E+00  2304   0.359E+00    0.539E-01
DAV:   3    -0.136646183299E+04   -0.11569E-01   -0.16798E-01  2592   0.690E-01    0.425E-01
DAV:   4    -0.136645901620E+04    0.28168E-02   -0.15927E-02  2600   0.297E-01    0.293E-01
DAV:   5    -0.136645669724E+04    0.23190E-02   -0.89019E-03  2280   0.189E-01    0.112E-01
DAV:   6    -0.136645695462E+04   -0.25738E-03   -0.52178E-03  2424   0.134E-01    0.967E-02
DAV:   7    -0.136645693164E+04    0.22978E-04   -0.20097E-03  2472   0.835E-02    0.660E-02
DAV:   8    -0.136645691178E+04    0.19865E-04   -0.76020E-04  2592   0.527E-02    0.364E-02
DAV:   9    -0.136645690591E+04    0.58681E-05   -0.15682E-04  2424   0.269E-02    0.261E-02
DAV:  10    -0.136645690606E+04   -0.15380E-06   -0.93059E-05  2464   0.180E-02    0.142E-02
DAV:  11    -0.136645690571E+04    0.35680E-06   -0.28819E-05  2312   0.125E-02    0.656E-03
DAV:  12    -0.136645690668E+04   -0.97025E-06   -0.14448E-05  2000   0.803E-03    0.719E-03
DAV:  13    -0.136645690583E+04    0.84353E-06   -0.23255E-06  1040   0.531E-03
  14 F= -.13664569E+04 E0= -.13664569E+04  d E =-.329140E+00
 BRION: g(F)=  0.120E+00 g(S)=  0.000E+00 retain N=  2 mean eig= 4.49
 eig:   4.485  4.485
 bond charge predicted
       N       E                     dE             d eps       ncg     rms          rms(c)
DAV:   1    -0.136645475800E+04    0.21487E-02   -0.83626E+01  1368   0.130E+01    0.146E+00
DAV:   2    -0.136687987182E+04   -0.42511E+00   -0.44841E+00  2304   0.512E+00    0.757E-01
DAV:   3    -0.136690468299E+04   -0.24811E-01   -0.35549E-01  2600   0.976E-01    0.607E-01
DAV:   4    -0.136689972626E+04    0.49567E-02   -0.31455E-02  2616   0.420E-01    0.441E-01
DAV:   5    -0.136689404620E+04    0.56801E-02   -0.15375E-02  2304   0.250E-01    0.193E-01
DAV:   6    -0.136689391112E+04    0.13508E-03   -0.12277E-02  2272   0.203E-01    0.125E-01
DAV:   7    -0.136689406170E+04   -0.15057E-03   -0.61131E-03  2448   0.139E-01    0.108E-01
DAV:   8    -0.136689399599E+04    0.65711E-04   -0.15809E-03  2568   0.833E-02    0.702E-02
DAV:   9    -0.136689395081E+04    0.45177E-04   -0.68624E-04  2512   0.480E-02    0.374E-02
DAV:  10    -0.136689396461E+04   -0.13805E-04   -0.22785E-04  2520   0.294E-02    0.262E-02
DAV:  11    -0.136689396364E+04    0.97026E-06   -0.68983E-05  2456   0.181E-02    0.165E-02
DAV:  12    -0.136689396240E+04    0.12401E-05   -0.56746E-05  2304   0.146E-02    0.141E-02
DAV:  13    -0.136689396119E+04    0.12106E-05   -0.25362E-05  2136   0.961E-03    0.897E-03
DAV:  14    -0.136689396060E+04    0.59238E-06   -0.79598E-06  1664   0.581E-03
  15 F= -.13668940E+04 E0= -.13668940E+04  d E =-.437055E+00
 BRION: g(F)=  0.989E-01 g(S)=  0.000E+00 retain N=  2 mean eig= 5.58
 eig:   5.580  5.580
 bond charge predicted
       N       E                     dE             d eps       ncg     rms          rms(c)
DAV:   1    -0.136697033782E+04   -0.76377E-01   -0.34248E+01  1376   0.836E+00    0.957E-01
DAV:   2    -0.136714482780E+04   -0.17449E+00   -0.18475E+00  2304   0.332E+00    0.494E-01
DAV:   3    -0.136715516886E+04   -0.10341E-01   -0.14901E-01  2592   0.643E-01    0.397E-01
DAV:   4    -0.136715298813E+04    0.21807E-02   -0.13467E-02  2608   0.276E-01    0.287E-01
DAV:   5    -0.136715063801E+04    0.23501E-02   -0.76491E-03  2272   0.173E-01    0.117E-01
DAV:   6    -0.136715073091E+04   -0.92894E-04   -0.50978E-03  2320   0.131E-01    0.947E-02
DAV:   7    -0.136715073209E+04   -0.11853E-05   -0.24476E-03  2448   0.889E-02    0.702E-02
DAV:   8    -0.136715070553E+04    0.26561E-04   -0.80347E-04  2552   0.565E-02    0.418E-02
DAV:   9    -0.136715069434E+04    0.11193E-04   -0.21556E-04  2448   0.291E-02    0.260E-02
DAV:  10    -0.136715069650E+04   -0.21564E-05   -0.85647E-05  2512   0.174E-02    0.153E-02
DAV:  11    -0.136715069668E+04   -0.18132E-06   -0.29029E-05  2296   0.121E-02    0.911E-03
DAV:  12    -0.136715069646E+04    0.21543E-06   -0.15306E-05  1968   0.877E-03    0.811E-03
DAV:  13    -0.136715069596E+04    0.50456E-06   -0.81913E-06  1632   0.617E-03
  16 F= -.13671507E+04 E0= -.13671507E+04  d E =-.256735E+00
 BRION: g(F)=  0.872E-01 g(S)=  0.000E+00 retain N=  2 mean eig= 4.74
 eig:   4.742  4.742
 bond charge predicted
       N       E                     dE             d eps       ncg     rms          rms(c)
DAV:   1    -0.136722935591E+04   -0.78659E-01   -0.20678E+01  1368   0.647E+00    0.741E-01
DAV:   2    -0.136733374790E+04   -0.10439E+00   -0.11015E+00  2296   0.255E+00    0.380E-01
DAV:   3    -0.136733948866E+04   -0.57408E-02   -0.86452E-02  2600   0.488E-01    0.304E-01
DAV:   4    -0.136733798738E+04    0.15013E-02   -0.80560E-03  2600   0.211E-01    0.215E-01
DAV:   5    -0.136733648393E+04    0.15034E-02   -0.41876E-03  2288   0.133E-01    0.877E-02
DAV:   6    -0.136733651035E+04   -0.26415E-04   -0.31976E-03  2296   0.105E-01    0.648E-02
DAV:   7    -0.136733653864E+04   -0.28294E-04   -0.13844E-03  2376   0.664E-02    0.536E-02
DAV:   8    -0.136733652495E+04    0.13689E-04   -0.41054E-04  2568   0.393E-02    0.309E-02
DAV:   9    -0.136733651514E+04    0.98098E-05   -0.15543E-04  2480   0.238E-02    0.182E-02
DAV:  10    -0.136733651864E+04   -0.34931E-05   -0.56132E-05  2512   0.147E-02    0.146E-02
DAV:  11    -0.136733651687E+04    0.17658E-05   -0.24566E-05  2104   0.105E-02    0.720E-03
DAV:  12    -0.136733651719E+04   -0.32203E-06   -0.11138E-05  1808   0.765E-03    0.684E-03
DAV:  13    -0.136733651659E+04    0.60684E-06   -0.43477E-06  1280   0.527E-03
  17 F= -.13673365E+04 E0= -.13673365E+04  d E =-.185821E+00
 BRION: g(F)=  0.776E-01 g(S)=  0.000E+00 retain N=  2 mean eig= 3.20
 eig:   3.196  3.196
 bond charge predicted
       N       E                     dE             d eps       ncg     rms          rms(c)
DAV:   1    -0.136740662379E+04   -0.70107E-01   -0.22480E+01  1368   0.670E+00    0.754E-01
DAV:   2    -0.136751936324E+04   -0.11274E+00   -0.11913E+00  2304   0.264E+00    0.390E-01
DAV:   3    -0.136752579333E+04   -0.64301E-02   -0.94960E-02  2592   0.508E-01    0.318E-01
DAV:   4    -0.136752435817E+04    0.14352E-02   -0.86302E-03  2584   0.218E-01    0.230E-01
DAV:   5    -0.136752269148E+04    0.16667E-02   -0.44753E-03  2232   0.134E-01    0.984E-02
DAV:   6    -0.136752266821E+04    0.23272E-04   -0.36389E-03  2232   0.110E-01    0.721E-02
DAV:   7    -0.136752270320E+04   -0.34995E-04   -0.18368E-03  2368   0.766E-02    0.604E-02
DAV:   8    -0.136752268422E+04    0.18978E-04   -0.52313E-04  2560   0.451E-02    0.368E-02
DAV:   9    -0.136752267093E+04    0.13299E-04   -0.18875E-04  2536   0.259E-02    0.214E-02
DAV:  10    -0.136752267436E+04   -0.34334E-05   -0.72030E-05  2544   0.159E-02    0.145E-02
DAV:  11    -0.136752267437E+04   -0.15440E-07   -0.27374E-05  2200   0.113E-02    0.984E-03
DAV:  12    -0.136752267371E+04    0.66003E-06   -0.15371E-05  1936   0.882E-03    0.874E-03
DAV:  13    -0.136752267310E+04    0.61022E-06   -0.95227E-06  1744   0.627E-03
  18 F= -.13675227E+04 E0= -.13675227E+04  d E =-.186157E+00
 BRION: g(F)=  0.677E-01 g(S)=  0.000E+00 retain N=  3 mean eig= 5.07
 eig:   6.863  6.863  1.487
 bond charge predicted
       N       E                     dE             d eps       ncg     rms          rms(c)
DAV:   1    -0.136753293137E+04   -0.10258E-01   -0.40184E+01  1368   0.899E+00    0.102E+00
DAV:   2    -0.136773649851E+04   -0.20357E+00   -0.21459E+00  2304   0.356E+00    0.526E-01
DAV:   3    -0.136774775011E+04   -0.11252E-01   -0.16836E-01  2584   0.681E-01    0.422E-01
DAV:   4    -0.136774507131E+04    0.26788E-02   -0.15696E-02  2584   0.293E-01    0.303E-01
DAV:   5    -0.136774220061E+04    0.28707E-02   -0.73992E-03  2336   0.176E-01    0.135E-01
DAV:   6    -0.136774203378E+04    0.16683E-03   -0.62298E-03  2232   0.150E-01    0.847E-02
DAV:   7    -0.136774216146E+04   -0.12768E-03   -0.34974E-03  2352   0.104E-01    0.818E-02
DAV:   8    -0.136774212613E+04    0.35333E-04   -0.81373E-04  2568   0.576E-02    0.552E-02
DAV:   9    -0.136774209252E+04    0.33613E-04   -0.40193E-04  2544   0.364E-02    0.275E-02
DAV:  10    -0.136774210098E+04   -0.84660E-05   -0.14600E-04  2512   0.232E-02    0.193E-02
DAV:  11    -0.136774210111E+04   -0.13110E-06   -0.34358E-05  2360   0.130E-02    0.130E-02
DAV:  12    -0.136774210033E+04    0.78480E-06   -0.38661E-05  1976   0.118E-02    0.117E-02
DAV:  13    -0.136774209945E+04    0.88078E-06   -0.17714E-05  1872   0.846E-03    0.833E-03
DAV:  14    -0.136774209885E+04    0.59778E-06   -0.93345E-06  1712   0.600E-03
  19 F= -.13677421E+04 E0= -.13677421E+04  d E =-.219426E+00
 BRION: g(F)=  0.588E-01 g(S)=  0.000E+00 retain N=  3 mean eig= 5.81
 eig:   7.892  7.892  1.636
 bond charge predicted
       N       E                     dE             d eps       ncg     rms          rms(c)
DAV:   1    -0.136779771400E+04   -0.55615E-01   -0.77314E+00  1376   0.388E+00    0.436E-01
DAV:   2    -0.136783569984E+04   -0.37986E-01   -0.39836E-01  2288   0.153E+00    0.221E-01
DAV:   3    -0.136783779751E+04   -0.20977E-02   -0.30382E-02  2592   0.282E-01    0.180E-01
DAV:   4    -0.136783734874E+04    0.44877E-03   -0.27095E-03  2584   0.119E-01    0.128E-01
DAV:   5    -0.136783684076E+04    0.50798E-03   -0.13478E-03  2312   0.747E-02    0.542E-02
DAV:   6    -0.136783684396E+04   -0.32016E-05   -0.10989E-03  2272   0.608E-02    0.378E-02
DAV:   7    -0.136783685421E+04   -0.10256E-04   -0.53673E-04  2384   0.413E-02    0.328E-02
DAV:   8    -0.136783684877E+04    0.54479E-05   -0.14740E-04  2496   0.241E-02    0.197E-02
DAV:   9    -0.136783684465E+04    0.41153E-05   -0.55331E-05  2360   0.141E-02    0.112E-02
DAV:  10    -0.136783684570E+04   -0.10485E-05   -0.19550E-05  2104   0.870E-03    0.782E-03
DAV:  11    -0.136783684520E+04    0.49775E-06   -0.31117E-06  1080   0.622E-03
  20 F= -.13678368E+04 E0= -.13678368E+04  d E =-.947464E-01
 BRION: g(F)=  0.535E-01 g(S)=  0.000E+00 retain N=  3 mean eig= 5.45
 eig:   7.147  7.147  2.048
