 running on  160 total cores
 distrk:  each k-point on  160 cores,    1 groups
 distr:  one band on   20 cores,    8 groups
 using from now: INCAR     
 vasp.5.4.4.18Apr17-6-g9f103f2a35 (build May 01 2020 14:22:42) gamma-only       
  
 POSCAR found type information on POSCAR  O  La Zr Li Al
 POSCAR found :  5 types and     190 ions
 scaLAPACK will be used
 LDA part: xc-table for Pade appr. of Perdew
 POSCAR, INCAR and KPOINTS ok, starting setup
 FFT: planning ...
 WAVECAR not read
 WARNING: random wavefunctions but no delay for mixing, default for NELMDL
 entering main loop
       N       E                     dE             d eps       ncg     rms          rms(c)
DAV:   1     0.253719973569E+05    0.25372E+05   -0.42057E+05  1576   0.253E+03
DAV:   2     0.943823780976E+04   -0.15934E+05   -0.14682E+05  1432   0.711E+02
DAV:   3     0.267772630263E+04   -0.67605E+04   -0.61614E+04  1504   0.357E+02
DAV:   4    -0.368540639325E+03   -0.30463E+04   -0.28525E+04  2040   0.224E+02
DAV:   5    -0.141055513296E+04   -0.10420E+04   -0.99769E+03  2536   0.140E+02    0.116E+02
DAV:   6    -0.130213879963E+04    0.10842E+03   -0.14696E+03  2432   0.659E+01    0.501E+01
DAV:   7    -0.132551389249E+04   -0.23375E+02   -0.40346E+02  2560   0.340E+01    0.256E+01
DAV:   8    -0.133333670445E+04   -0.78228E+01   -0.26826E+02  2520   0.274E+01    0.257E+01
DAV:   9    -0.132698361735E+04    0.63531E+01   -0.50916E+01  2544   0.148E+01    0.827E+00
DAV:  10    -0.132773373255E+04   -0.75012E+00   -0.16500E+01  2616   0.786E+00    0.709E+00
DAV:  11    -0.132799126180E+04   -0.25753E+00   -0.55505E+00  2624   0.419E+00    0.436E+00
DAV:  12    -0.132788200972E+04    0.10925E+00   -0.20878E+00  2576   0.335E+00    0.325E+00
DAV:  13    -0.132793188747E+04   -0.49878E-01   -0.77895E-01  2616   0.163E+00    0.201E+00
DAV:  14    -0.132791721926E+04    0.14668E-01   -0.25815E-01  2600   0.101E+00    0.111E+00
DAV:  15    -0.132792422165E+04   -0.70024E-02   -0.83213E-02  2576   0.577E-01    0.876E-01
DAV:  16    -0.132792458432E+04   -0.36268E-03   -0.28689E-02  2616   0.317E-01    0.591E-01
DAV:  17    -0.132792404361E+04    0.54071E-03   -0.21391E-02  2392   0.282E-01    0.311E-01
DAV:  18    -0.132792424028E+04   -0.19666E-03   -0.44258E-03  2424   0.147E-01    0.145E-01
DAV:  19    -0.132792422410E+04    0.16180E-04   -0.23644E-03  2568   0.959E-02    0.958E-02
DAV:  20    -0.132792428402E+04   -0.59920E-04   -0.51241E-04  2544   0.449E-02    0.327E-02
DAV:  21    -0.132792429768E+04   -0.13663E-04   -0.16866E-04  2608   0.241E-02    0.316E-02
DAV:  22    -0.132792431080E+04   -0.13121E-04   -0.58842E-05  2528   0.143E-02    0.131E-02
DAV:  23    -0.132792430741E+04    0.33940E-05   -0.41236E-05  2304   0.114E-02    0.842E-03
DAV:  24    -0.132792431110E+04   -0.36971E-05   -0.96804E-06  1128   0.758E-03    0.429E-03
DAV:  25    -0.132792431135E+04   -0.24959E-06   -0.39395E-06  1016   0.554E-03
   1 F= -.13279243E+04 E0= -.13279243E+04  d E =-.132792E+04
 BRION: g(F)=  0.589E+02 g(S)=  0.000E+00
 bond charge predicted
       N       E                     dE             d eps       ncg     rms          rms(c)
DAV:   1    -0.129040644774E+04    0.37518E+02   -0.72017E+03  1640   0.122E+02    0.312E+01
DAV:   2    -0.135141131111E+04   -0.61005E+02   -0.70226E+02  2568   0.584E+01    0.163E+01
DAV:   3    -0.134972824065E+04    0.16831E+01   -0.40069E+01  2608   0.154E+01    0.107E+01
DAV:   4    -0.134811427671E+04    0.16140E+01   -0.18341E+01  2368   0.840E+00    0.509E+00
DAV:   5    -0.134811909289E+04   -0.48162E-02   -0.49736E+00  2552   0.450E+00    0.372E+00
DAV:   6    -0.134803618595E+04    0.82907E-01   -0.32727E+00  2576   0.297E+00    0.220E+00
DAV:   7    -0.134802372178E+04    0.12464E-01   -0.39225E-01  2504   0.161E+00    0.121E+00
DAV:   8    -0.134802055242E+04    0.31694E-02   -0.38748E-01  2512   0.101E+00    0.710E-01
DAV:   9    -0.134802556414E+04   -0.50117E-02   -0.86463E-02  2576   0.527E-01    0.610E-01
DAV:  10    -0.134802106627E+04    0.44979E-02   -0.26075E-02  2616   0.319E-01    0.278E-01
DAV:  11    -0.134802168381E+04   -0.61754E-03   -0.16478E-02  2504   0.216E-01    0.125E-01
DAV:  12    -0.134802198411E+04   -0.30030E-03   -0.26618E-03  2624   0.106E-01    0.959E-02
DAV:  13    -0.134802186926E+04    0.11485E-03   -0.99362E-04  2624   0.642E-02    0.366E-02
DAV:  14    -0.134802189999E+04   -0.30732E-04   -0.43011E-04  2608   0.370E-02    0.140E-02
DAV:  15    -0.134802190821E+04   -0.82202E-05   -0.76922E-05  2624   0.176E-02    0.110E-02
DAV:  16    -0.134802190872E+04   -0.51565E-06   -0.27933E-05  2280   0.106E-02    0.607E-03
DAV:  17    -0.134802191036E+04   -0.16374E-05   -0.17720E-05  2224   0.760E-03    0.408E-03
DAV:  18    -0.134802191048E+04   -0.12235E-06   -0.24426E-06  1104   0.398E-03
   2 F= -.13480219E+04 E0= -.13480219E+04  d E =-.200976E+02
 BRION: g(F)=  0.492E+02 g(S)=  0.000E+00 retain N=  1 mean eig= 0.53
 eig:   0.532
 bond charge predicted
       N       E                     dE             d eps       ncg     rms          rms(c)
DAV:   1    -0.132381591052E+04    0.24206E+02   -0.30157E+03  1368   0.706E+01    0.189E+01
DAV:   2    -0.135496228849E+04   -0.31146E+02   -0.35534E+02  2520   0.346E+01    0.203E+01
DAV:   3    -0.135585185361E+04   -0.88957E+00   -0.26852E+01  2552   0.106E+01    0.164E+01
DAV:   4    -0.135549404328E+04    0.35781E+00   -0.22321E+01  2256   0.716E+00    0.100E+01
DAV:   5    -0.135575674318E+04   -0.26270E+00   -0.59440E+00  2272   0.393E+00    0.808E+00
DAV:   6    -0.135485625466E+04    0.90049E+00   -0.10386E+01  2184   0.402E+00    0.221E+00
DAV:   7    -0.135491542111E+04   -0.59166E-01   -0.18876E+00  2368   0.256E+00    0.131E+00
DAV:   8    -0.135493039365E+04   -0.14973E-01   -0.30779E-01  2528   0.837E-01    0.881E-01
DAV:   9    -0.135493212314E+04   -0.17295E-02   -0.85753E-02  2592   0.434E-01    0.522E-01
DAV:  10    -0.135493344615E+04   -0.13230E-02   -0.46531E-02  2536   0.280E-01    0.240E-01
DAV:  11    -0.135493392979E+04   -0.48364E-03   -0.16334E-02  2592   0.190E-01    0.143E-01
DAV:  12    -0.135493427896E+04   -0.34917E-03   -0.61575E-03  2600   0.102E-01    0.924E-02
DAV:  13    -0.135493436885E+04   -0.89883E-04   -0.21406E-03  2616   0.623E-02    0.649E-02
DAV:  14    -0.135493442640E+04   -0.57547E-04   -0.10268E-03  2552   0.391E-02    0.562E-02
DAV:  15    -0.135493440366E+04    0.22733E-04   -0.39162E-04  2560   0.286E-02    0.212E-02
DAV:  16    -0.135493441206E+04   -0.83935E-05   -0.20830E-04  2504   0.176E-02    0.124E-02
DAV:  17    -0.135493441555E+04   -0.34969E-05   -0.47882E-05  2128   0.931E-03    0.713E-03
DAV:  18    -0.135493441668E+04   -0.11291E-05   -0.14175E-05  1168   0.482E-03    0.536E-03
DAV:  19    -0.135493441742E+04   -0.73422E-06   -0.61242E-06  1096   0.417E-03
   3 F= -.13549344E+04 E0= -.13549344E+04  d E =-.691251E+01
 BRION: g(F)=  0.873E+01 g(S)=  0.000E+00 retain N=  2 mean eig= 1.18
 eig:   0.349  2.001
 bond charge predicted
       N       E                     dE             d eps       ncg     rms          rms(c)
DAV:   1    -0.135581199705E+04   -0.87758E+00   -0.48005E+02  1360   0.298E+01    0.591E+00
DAV:   2    -0.135844008122E+04   -0.26281E+01   -0.30196E+01  2336   0.125E+01    0.298E+00
DAV:   3    -0.135850845373E+04   -0.68373E-01   -0.23596E+00  2600   0.314E+00    0.243E+00
DAV:   4    -0.135843064840E+04    0.77805E-01   -0.54622E-01  2568   0.152E+00    0.135E+00
DAV:   5    -0.135841133088E+04    0.19318E-01   -0.24302E-01  2336   0.989E-01    0.814E-01
DAV:   6    -0.135840955816E+04    0.17727E-02   -0.11689E-01  2568   0.692E-01    0.617E-01
DAV:   7    -0.135840770133E+04    0.18568E-02   -0.60207E-02  2496   0.432E-01    0.348E-01
DAV:   8    -0.135840731448E+04    0.38685E-03   -0.14098E-02  2600   0.232E-01    0.173E-01
DAV:   9    -0.135840725413E+04    0.60344E-04   -0.33048E-03  2608   0.119E-01    0.103E-01
DAV:  10    -0.135840738131E+04   -0.12718E-03   -0.18193E-03  2256   0.779E-02    0.916E-02
DAV:  11    -0.135840728146E+04    0.99850E-04   -0.90276E-04  2504   0.572E-02    0.350E-02
DAV:  12    -0.135840729935E+04   -0.17882E-04   -0.37187E-04  2528   0.363E-02    0.282E-02
DAV:  13    -0.135840729717E+04    0.21714E-05   -0.95766E-05  2616   0.195E-02    0.167E-02
DAV:  14    -0.135840729671E+04    0.45964E-06   -0.37443E-05  2472   0.108E-02    0.673E-03
DAV:  15    -0.135840729769E+04   -0.97812E-06   -0.10424E-05  1928   0.672E-03    0.432E-03
DAV:  16    -0.135840729756E+04    0.13169E-06   -0.12057E-06  1040   0.406E-03
   4 F= -.13584073E+04 E0= -.13584073E+04  d E =-.347288E+01
 BRION: g(F)=  0.380E+01 g(S)=  0.000E+00 retain N=  3 mean eig= 1.30
 eig:   3.220  0.423  0.270
 bond charge predicted
       N       E                     dE             d eps       ncg     rms          rms(c)
DAV:   1    -0.135957522211E+04   -0.11679E+01   -0.16747E+02  1352   0.180E+01    0.329E+00
DAV:   2    -0.136042358862E+04   -0.84837E+00   -0.94716E+00  2288   0.699E+00    0.173E+00
DAV:   3    -0.136044248975E+04   -0.18901E-01   -0.74583E-01  2608   0.172E+00    0.145E+00
DAV:   4    -0.136041355076E+04    0.28939E-01   -0.24029E-01  2504   0.955E-01    0.722E-01
DAV:   5    -0.136041109702E+04    0.24537E-02   -0.72787E-02  2400   0.564E-01    0.561E-01
DAV:   6    -0.136040838780E+04    0.27092E-02   -0.45618E-02  2576   0.402E-01    0.288E-01
DAV:   7    -0.136040836093E+04    0.26873E-04   -0.19637E-02  2456   0.244E-01    0.182E-01
DAV:   8    -0.136040833820E+04    0.22726E-04   -0.43640E-03  2520   0.127E-01    0.968E-02
DAV:   9    -0.136040829888E+04    0.39320E-04   -0.17754E-03  2576   0.750E-02    0.634E-02
DAV:  10    -0.136040833498E+04   -0.36095E-04   -0.66346E-04  2544   0.498E-02    0.620E-02
DAV:  11    -0.136040829119E+04    0.43788E-04   -0.51213E-04  2312   0.386E-02    0.225E-02
DAV:  12    -0.136040829585E+04   -0.46640E-05   -0.14515E-04  2344   0.255E-02    0.132E-02
DAV:  13    -0.136040829861E+04   -0.27530E-05   -0.41437E-05  2464   0.119E-02    0.939E-03
DAV:  14    -0.136040829826E+04    0.34377E-06   -0.14527E-05  1984   0.714E-03    0.387E-03
DAV:  15    -0.136040829844E+04   -0.17330E-06   -0.20195E-06  1064   0.484E-03
   5 F= -.13604083E+04 E0= -.13604083E+04  d E =-.200100E+01
 BRION: g(F)=  0.182E+01 g(S)=  0.000E+00 retain N=  4 mean eig= 1.75
 eig:   2.923  2.923  0.570  0.570
 bond charge predicted
       N       E                     dE             d eps       ncg     rms          rms(c)
DAV:   1    -0.136091142459E+04   -0.50313E+00   -0.28013E+02  1328   0.233E+01    0.492E+00
DAV:   2    -0.136233669910E+04   -0.14253E+01   -0.15185E+01  2312   0.895E+00    0.220E+00
DAV:   3    -0.136237225057E+04   -0.35551E-01   -0.10417E+00  2544   0.205E+00    0.166E+00
DAV:   4    -0.136234757981E+04    0.24671E-01   -0.44670E-01  2376   0.127E+00    0.823E-01
DAV:   5    -0.136234639983E+04    0.11800E-02   -0.97038E-02  2424   0.673E-01    0.676E-01
DAV:   6    -0.136234340407E+04    0.29958E-02   -0.74522E-02  2488   0.440E-01    0.230E-01
DAV:   7    -0.136234343884E+04   -0.34779E-04   -0.10028E-02  2352   0.222E-01    0.150E-01
DAV:   8    -0.136234354048E+04   -0.10164E-03   -0.41117E-03  2440   0.110E-01    0.739E-02
DAV:   9    -0.136234349341E+04    0.47069E-04   -0.11795E-03  2536   0.709E-02    0.431E-02
DAV:  10    -0.136234352432E+04   -0.30901E-04   -0.52322E-04  2480   0.415E-02    0.359E-02
DAV:  11    -0.136234351323E+04    0.11084E-04   -0.15692E-04  2568   0.252E-02    0.190E-02
DAV:  12    -0.136234351418E+04   -0.94969E-06   -0.85754E-05  2456   0.157E-02    0.122E-02
DAV:  13    -0.136234351418E+04   -0.23865E-08   -0.19675E-05  2232   0.967E-03    0.770E-03
DAV:  14    -0.136234351394E+04    0.24823E-06   -0.97387E-06  1840   0.614E-03
   6 F= -.13623435E+04 E0= -.13623435E+04  d E =-.193522E+01
 BRION: g(F)=  0.815E+00 g(S)=  0.000E+00 retain N=  5 mean eig= 1.54
 eig:   2.647  2.647  0.737  0.832  0.832
 bond charge predicted
       N       E                     dE             d eps       ncg     rms          rms(c)
DAV:   1    -0.136285902527E+04   -0.51551E+00   -0.85059E+01  1368   0.133E+01    0.204E+00
DAV:   2    -0.136329005206E+04   -0.43103E+00   -0.46228E+00  2288   0.503E+00    0.958E-01
DAV:   3    -0.136331259530E+04   -0.22543E-01   -0.37036E-01  2608   0.110E+00    0.785E-01
DAV:   4    -0.136330453006E+04    0.80652E-02   -0.58517E-02  2584   0.533E-01    0.447E-01
DAV:   5    -0.136330275769E+04    0.17724E-02   -0.25646E-02  2360   0.311E-01    0.232E-01
DAV:   6    -0.136330310791E+04   -0.35022E-03   -0.97914E-03  2576   0.199E-01    0.171E-01
DAV:   7    -0.136330289874E+04    0.20916E-03   -0.47413E-03  2520   0.129E-01    0.994E-02
DAV:   8    -0.136330290888E+04   -0.10141E-04   -0.17571E-03  2592   0.802E-02    0.589E-02
DAV:   9    -0.136330288635E+04    0.22533E-04   -0.32887E-04  2576   0.403E-02    0.357E-02
DAV:  10    -0.136330290016E+04   -0.13813E-04   -0.23203E-04  2408   0.262E-02    0.253E-02
DAV:  11    -0.136330289419E+04    0.59736E-05   -0.71617E-05  2552   0.185E-02    0.101E-02
DAV:  12    -0.136330289595E+04   -0.17588E-05   -0.28091E-05  2184   0.105E-02    0.963E-03
DAV:  13    -0.136330289508E+04    0.86892E-06   -0.80725E-06  1560   0.676E-03
   7 F= -.13633029E+04 E0= -.13633029E+04  d E =-.959381E+00
 BRION: g(F)=  0.571E+00 g(S)=  0.000E+00 retain N=  6 mean eig= 1.64
 eig:   2.486  2.486  1.652  1.652  0.789  0.789
 bond charge predicted
       N       E                     dE             d eps       ncg     rms          rms(c)
DAV:   1    -0.136371620831E+04   -0.41331E+00   -0.85212E+01  1368   0.132E+01    0.174E+00
DAV:   2    -0.136416116649E+04   -0.44496E+00   -0.47161E+00  2280   0.513E+00    0.898E-01
DAV:   3    -0.136418552883E+04   -0.24362E-01   -0.36977E-01  2608   0.106E+00    0.726E-01
DAV:   4    -0.136417805155E+04    0.74773E-02   -0.48508E-02  2592   0.504E-01    0.446E-01
DAV:   5    -0.136417476070E+04    0.32909E-02   -0.21439E-02  2392   0.310E-01    0.194E-01
DAV:   6    -0.136417555273E+04   -0.79203E-03   -0.11307E-02  2552   0.206E-01    0.163E-01
DAV:   7    -0.136417533904E+04    0.21369E-03   -0.42336E-03  2472   0.129E-01    0.113E-01
DAV:   8    -0.136417533381E+04    0.52259E-05   -0.26794E-03  2520   0.888E-02    0.605E-02
DAV:   9    -0.136417530461E+04    0.29201E-04   -0.37931E-04  2480   0.442E-02    0.425E-02
DAV:  10    -0.136417530248E+04    0.21379E-05   -0.30862E-04  2440   0.315E-02    0.249E-02
DAV:  11    -0.136417530096E+04    0.15168E-05   -0.88868E-05  2464   0.214E-02    0.114E-02
DAV:  12    -0.136417530451E+04   -0.35467E-05   -0.45562E-05  2384   0.125E-02    0.139E-02
DAV:  13    -0.136417530193E+04    0.25721E-05   -0.19059E-05  1968   0.876E-03    0.577E-03
DAV:  14    -0.136417530220E+04   -0.26359E-06   -0.88766E-06  1744   0.601E-03
   8 F= -.13641753E+04 E0= -.13641753E+04  d E =-.872407E+00
 BRION: g(F)=  0.408E+00 g(S)=  0.000E+00 retain N=  7 mean eig= 1.99
 eig:   2.702  2.702  3.064  3.064  0.745  0.745  0.928
 bond charge predicted
       N       E                     dE             d eps       ncg     rms          rms(c)
DAV:   1    -0.136449141102E+04   -0.31611E+00   -0.68153E+01  1368   0.118E+01    0.144E+00
DAV:   2    -0.136484241152E+04   -0.35100E+00   -0.37200E+00  2304   0.460E+00    0.730E-01
DAV:   3    -0.136486068440E+04   -0.18273E-01   -0.28185E-01  2608   0.911E-01    0.580E-01
DAV:   4    -0.136485522092E+04    0.54635E-02   -0.31472E-02  2576   0.417E-01    0.370E-01
DAV:   5    -0.136485224485E+04    0.29761E-02   -0.14811E-02  2416   0.249E-01    0.149E-01
DAV:   6    -0.136485261051E+04   -0.36566E-03   -0.75051E-03  2472   0.167E-01    0.117E-01
DAV:   7    -0.136485260336E+04    0.71536E-05   -0.29357E-03  2496   0.107E-01    0.849E-02
DAV:   8    -0.136485260248E+04    0.88041E-06   -0.14071E-03  2584   0.675E-02    0.494E-02
DAV:   9    -0.136485258567E+04    0.16811E-04   -0.24955E-04  2512   0.347E-02    0.354E-02
DAV:  10    -0.136485258540E+04    0.26602E-06   -0.19478E-04  2536   0.245E-02    0.200E-02
DAV:  11    -0.136485258475E+04    0.65353E-06   -0.60682E-05  2432   0.170E-02    0.995E-03
DAV:  12    -0.136485258542E+04   -0.67848E-06   -0.22122E-05  2248   0.105E-02    0.927E-03
DAV:  13    -0.136485258472E+04    0.70171E-06   -0.12313E-05  1752   0.670E-03    0.432E-03
DAV:  14    -0.136485258459E+04    0.12970E-06   -0.21889E-06  1024   0.495E-03
   9 F= -.13648526E+04 E0= -.13648526E+04  d E =-.677282E+00
 BRION: g(F)=  0.302E+00 g(S)=  0.000E+00 retain N=  8 mean eig= 2.62
 eig:   5.891  5.891  2.796  2.796  0.874  0.874  0.927  0.927
 bond charge predicted
       N       E                     dE             d eps       ncg     rms          rms(c)
DAV:   1    -0.136502931249E+04   -0.17673E+00   -0.99997E+01  1368   0.142E+01    0.175E+00
DAV:   2    -0.136554284538E+04   -0.51353E+00   -0.54471E+00  2288   0.558E+00    0.880E-01
DAV:   3    -0.136557166761E+04   -0.28822E-01   -0.42747E-01  2616   0.109E+00    0.714E-01
DAV:   4    -0.136556411906E+04    0.75485E-02   -0.44887E-02  2592   0.505E-01    0.469E-01
DAV:   5    -0.136555889719E+04    0.52219E-02   -0.22579E-02  2360   0.310E-01    0.186E-01
DAV:   6    -0.136555963235E+04   -0.73517E-03   -0.12983E-02  2456   0.216E-01    0.164E-01
DAV:   7    -0.136555949449E+04    0.13786E-03   -0.47751E-03  2496   0.136E-01    0.116E-01
DAV:   8    -0.136555945528E+04    0.39207E-04   -0.24523E-03  2544   0.895E-02    0.621E-02
DAV:   9    -0.136555942671E+04    0.28569E-04   -0.43901E-04  2400   0.449E-02    0.435E-02
DAV:  10    -0.136555942926E+04   -0.25511E-05   -0.26201E-04  2456   0.294E-02    0.250E-02
DAV:  11    -0.136555942832E+04    0.94736E-06   -0.75407E-05  2432   0.198E-02    0.144E-02
DAV:  12    -0.136555942964E+04   -0.13238E-05   -0.43997E-05  2320   0.133E-02    0.143E-02
DAV:  13    -0.136555942752E+04    0.21248E-05   -0.25002E-05  2032   0.942E-03    0.620E-03
DAV:  14    -0.136555942766E+04   -0.14392E-06   -0.80215E-06  1632   0.619E-03
  10 F= -.13655594E+04 E0= -.13655594E+04  d E =-.706843E+00
 BRION: g(F)=  0.218E+00 g(S)=  0.000E+00 retain N=  7 mean eig= 3.15
 eig:   7.575  7.575  1.284  1.284  1.616  1.616  1.114
 bond charge predicted
       N       E                     dE             d eps       ncg     rms          rms(c)
DAV:   1    -0.136564847433E+04   -0.89047E-01   -0.88763E+01  1376   0.135E+01    0.164E+00
DAV:   2    -0.136611324123E+04   -0.46477E+00   -0.49436E+00  2304   0.535E+00    0.831E-01
DAV:   3    -0.136614016223E+04   -0.26921E-01   -0.39387E-01  2592   0.105E+00    0.688E-01
DAV:   4    -0.136613392370E+04    0.62385E-02   -0.38715E-02  2592   0.473E-01    0.481E-01
DAV:   5    -0.136612778702E+04    0.61367E-02   -0.22898E-02  2328   0.310E-01    0.187E-01
DAV:   6    -0.136612855265E+04   -0.76563E-03   -0.15539E-02  2432   0.233E-01    0.180E-01
DAV:   7    -0.136612837747E+04    0.17517E-03   -0.53907E-03  2464   0.141E-01    0.129E-01
DAV:   8    -0.136612827922E+04    0.98258E-04   -0.27401E-03  2560   0.946E-02    0.598E-02
DAV:   9    -0.136612825787E+04    0.21344E-04   -0.45334E-04  2272   0.467E-02    0.423E-02
DAV:  10    -0.136612825983E+04   -0.19622E-05   -0.17512E-04  2336   0.251E-02    0.240E-02
DAV:  11    -0.136612825904E+04    0.79506E-06   -0.56630E-05  2488   0.166E-02    0.128E-02
DAV:  12    -0.136612826024E+04   -0.12022E-05   -0.32950E-05  2368   0.115E-02    0.120E-02
DAV:  13    -0.136612825893E+04    0.13123E-05   -0.14798E-05  1768   0.753E-03    0.601E-03
DAV:  14    -0.136612825882E+04    0.10869E-06   -0.40458E-06  1264   0.543E-03
  11 F= -.13661283E+04 E0= -.13661283E+04  d E =-.568831E+00
 BRION: g(F)=  0.174E+00 g(S)=  0.000E+00 retain N=  4 mean eig= 4.44
 eig:   6.927  6.927  1.951  1.951
 bond charge predicted
       N       E                     dE             d eps       ncg     rms          rms(c)
DAV:   1    -0.136622807431E+04   -0.99815E-01   -0.48890E+01  1376   0.101E+01    0.128E+00
DAV:   2    -0.136648389235E+04   -0.25582E+00   -0.27236E+00  2304   0.400E+00    0.647E-01
DAV:   3    -0.136649879808E+04   -0.14906E-01   -0.22023E-01  2592   0.788E-01    0.525E-01
DAV:   4    -0.136649469079E+04    0.41073E-02   -0.23757E-02  2568   0.365E-01    0.346E-01
DAV:   5    -0.136649195305E+04    0.27377E-02   -0.13443E-02  2312   0.236E-01    0.132E-01
DAV:   6    -0.136649246581E+04   -0.51276E-03   -0.72223E-03  2488   0.161E-01    0.132E-01
DAV:   7    -0.136649234834E+04    0.11747E-03   -0.25290E-03  2520   0.975E-02    0.875E-02
DAV:   8    -0.136649230404E+04    0.44302E-04   -0.12310E-03  2584   0.642E-02    0.410E-02
DAV:   9    -0.136649229749E+04    0.65429E-05   -0.17157E-04  2416   0.302E-02    0.296E-02
DAV:  10    -0.136649229853E+04   -0.10326E-05   -0.11177E-04  2416   0.198E-02    0.157E-02
DAV:  11    -0.136649229824E+04    0.28596E-06   -0.27436E-05  2360   0.128E-02    0.810E-03
DAV:  12    -0.136649229954E+04   -0.13010E-05   -0.18091E-05  2096   0.801E-03    0.852E-03
DAV:  13    -0.136649229845E+04    0.10919E-05   -0.42399E-06  1232   0.593E-03    0.442E-03
DAV:  14    -0.136649229918E+04   -0.73000E-06   -0.12570E-05  1600   0.698E-03    0.440E-03
DAV:  15    -0.136649229876E+04    0.41969E-06   -0.10657E-06   968   0.464E-03
  12 F= -.13664923E+04 E0= -.13664923E+04  d E =-.364040E+00
 BRION: g(F)=  0.147E+00 g(S)=  0.000E+00 retain N=  3 mean eig= 4.47
 eig:   5.859  5.859  1.702
 bond charge predicted
       N       E                     dE             d eps       ncg     rms          rms(c)
DAV:   1    -0.136658810999E+04   -0.95811E-01   -0.35209E+01  1376   0.848E+00    0.102E+00
DAV:   2    -0.136677471121E+04   -0.18660E+00   -0.19886E+00  2304   0.338E+00    0.523E-01
DAV:   3    -0.136678665901E+04   -0.11948E-01   -0.16643E-01  2600   0.676E-01    0.440E-01
DAV:   4    -0.136678448072E+04    0.21783E-02   -0.15487E-02  2600   0.303E-01    0.316E-01
DAV:   5    -0.136678199850E+04    0.24822E-02   -0.91860E-03  2304   0.193E-01    0.125E-01
DAV:   6    -0.136678228202E+04   -0.28352E-03   -0.64378E-03  2360   0.150E-01    0.118E-01
DAV:   7    -0.136678220340E+04    0.78614E-04   -0.25886E-03  2480   0.964E-02    0.824E-02
DAV:   8    -0.136678216866E+04    0.34746E-04   -0.11307E-03  2512   0.627E-02    0.401E-02
DAV:   9    -0.136678215997E+04    0.86864E-05   -0.20422E-04  2376   0.308E-02    0.278E-02
DAV:  10    -0.136678216192E+04   -0.19482E-05   -0.71071E-05  2408   0.158E-02    0.160E-02
DAV:  11    -0.136678216203E+04   -0.10712E-06   -0.26039E-05  2328   0.112E-02    0.101E-02
DAV:  12    -0.136678216175E+04    0.27366E-06   -0.14609E-05  1976   0.834E-03    0.871E-03
DAV:  13    -0.136678216121E+04    0.54011E-06   -0.92998E-06  1712   0.614E-03
  13 F= -.13667822E+04 E0= -.13667822E+04  d E =-.289862E+00
 BRION: g(F)=  0.130E+00 g(S)=  0.000E+00 retain N=  3 mean eig= 4.13
 eig:   5.411  5.411  1.560
 bond charge predicted
       N       E                     dE             d eps       ncg     rms          rms(c)
DAV:   1    -0.136687903496E+04   -0.96873E-01   -0.20215E+01  1376   0.645E+00    0.747E-01
DAV:   2    -0.136698523652E+04   -0.10620E+00   -0.11217E+00  2304   0.254E+00    0.381E-01
DAV:   3    -0.136699187481E+04   -0.66383E-02   -0.91787E-02  2576   0.502E-01    0.308E-01
DAV:   4    -0.136699068584E+04    0.11890E-02   -0.83379E-03  2592   0.221E-01    0.226E-01
DAV:   5    -0.136698923290E+04    0.14529E-02   -0.45392E-03  2328   0.142E-01    0.920E-02
DAV:   6    -0.136698933084E+04   -0.97945E-04   -0.37261E-03  2376   0.114E-01    0.755E-02
DAV:   7    -0.136698933370E+04   -0.28579E-05   -0.14344E-03  2400   0.704E-02    0.588E-02
DAV:   8    -0.136698931767E+04    0.16034E-04   -0.51088E-04  2592   0.431E-02    0.302E-02
DAV:   9    -0.136698930740E+04    0.10270E-04   -0.12325E-04  2256   0.227E-02    0.190E-02
DAV:  10    -0.136698930951E+04   -0.21120E-05   -0.47618E-05  2312   0.131E-02    0.122E-02
DAV:  11    -0.136698930885E+04    0.66178E-06   -0.14104E-05  1928   0.860E-03    0.695E-03
DAV:  12    -0.136698930899E+04   -0.14543E-06   -0.91009E-06  1752   0.672E-03
  14 F= -.13669893E+04 E0= -.13669893E+04  d E =-.207148E+00
 BRION: g(F)=  0.119E+00 g(S)=  0.000E+00 retain N=  3 mean eig= 3.29
 eig:   4.301  4.301  1.276
 bond charge predicted
       N       E                     dE             d eps       ncg     rms          rms(c)
DAV:   1    -0.136708654985E+04   -0.97241E-01   -0.16552E+01  1384   0.584E+00    0.668E-01
DAV:   2    -0.136717356120E+04   -0.87011E-01   -0.91720E-01  2296   0.228E+00    0.339E-01
DAV:   3    -0.136717935900E+04   -0.57978E-02   -0.76299E-02  2584   0.455E-01    0.278E-01
DAV:   4    -0.136717861258E+04    0.74642E-03   -0.65785E-03  2592   0.198E-01    0.210E-01
DAV:   5    -0.136717749580E+04    0.11168E-02   -0.34285E-03  2336   0.123E-01    0.866E-02
DAV:   6    -0.136717755600E+04   -0.60197E-04   -0.28839E-03  2344   0.980E-02    0.645E-02
DAV:   7    -0.136717756118E+04   -0.51850E-05   -0.10907E-03  2480   0.621E-02    0.499E-02
DAV:   8    -0.136717754974E+04    0.11438E-04   -0.38249E-04  2536   0.385E-02    0.266E-02
DAV:   9    -0.136717754431E+04    0.54362E-05   -0.96723E-05  2312   0.198E-02    0.167E-02
DAV:  10    -0.136717754598E+04   -0.16749E-05   -0.31071E-05  2376   0.108E-02    0.103E-02
DAV:  11    -0.136717754559E+04    0.39302E-06   -0.58132E-06  1376   0.705E-03
  15 F= -.13671775E+04 E0= -.13671775E+04  d E =-.188237E+00
 BRION: g(F)=  0.111E+00 g(S)=  0.000E+00 retain N=  3 mean eig= 3.28
 eig:   4.317  4.317  1.196
 bond charge predicted
       N       E                     dE             d eps       ncg     rms          rms(c)
DAV:   1    -0.136727329628E+04   -0.95750E-01   -0.20764E+01  1376   0.651E+00    0.732E-01
DAV:   2    -0.136738178255E+04   -0.10849E+00   -0.11415E+00  2296   0.252E+00    0.368E-01
DAV:   3    -0.136738923314E+04   -0.74506E-02   -0.95677E-02  2576   0.506E-01    0.300E-01
DAV:   4    -0.136738846404E+04    0.76910E-03   -0.81943E-03  2616   0.218E-01    0.231E-01
DAV:   5    -0.136738711732E+04    0.13467E-02   -0.38191E-03  2376   0.132E-01    0.105E-01
DAV:   6    -0.136738709765E+04    0.19672E-04   -0.36896E-03  2272   0.115E-01    0.681E-02
DAV:   7    -0.136738713644E+04   -0.38788E-04   -0.17374E-03  2408   0.762E-02    0.592E-02
DAV:   8    -0.136738712173E+04    0.14706E-04   -0.45643E-04  2544   0.442E-02    0.351E-02
DAV:   9    -0.136738710773E+04    0.14006E-04   -0.16495E-04  2424   0.245E-02    0.191E-02
DAV:  10    -0.136738711191E+04   -0.41788E-05   -0.61467E-05  2408   0.146E-02    0.130E-02
DAV:  11    -0.136738711253E+04   -0.62864E-06   -0.24777E-05  2064   0.103E-02    0.107E-02
DAV:  12    -0.136738711114E+04    0.13895E-05   -0.11239E-05  1768   0.836E-03    0.844E-03
DAV:  13    -0.136738711076E+04    0.38373E-06   -0.11853E-05  1672   0.660E-03    0.443E-03
DAV:  14    -0.136738711047E+04    0.29069E-06   -0.13832E-06   936   0.451E-03
  16 F= -.13673871E+04 E0= -.13673871E+04  d E =-.209565E+00
 BRION: g(F)=  0.105E+00 g(S)=  0.000E+00 retain N=  3 mean eig= 3.22
 eig:   4.238  4.238  1.180
 bond charge predicted
       N       E                     dE             d eps       ncg     rms          rms(c)
DAV:   1    -0.136748330516E+04   -0.96194E-01   -0.18605E+01  1384   0.619E+00    0.694E-01
DAV:   2    -0.136758050297E+04   -0.97198E-01   -0.10222E+00  2296   0.239E+00    0.348E-01
DAV:   3    -0.136758731405E+04   -0.68111E-02   -0.86412E-02  2560   0.482E-01    0.283E-01
DAV:   4    -0.136758666297E+04    0.65108E-03   -0.75544E-03  2592   0.209E-01    0.218E-01
DAV:   5    -0.136758556283E+04    0.11001E-02   -0.34961E-03  2360   0.124E-01    0.986E-02
DAV:   6    -0.136758555632E+04    0.65126E-05   -0.30612E-03  2280   0.104E-01    0.648E-02
DAV:   7    -0.136758558491E+04   -0.28590E-04   -0.15170E-03  2456   0.721E-02    0.546E-02
DAV:   8    -0.136758557329E+04    0.11624E-04   -0.43422E-04  2568   0.428E-02    0.343E-02
DAV:   9    -0.136758556257E+04    0.10716E-04   -0.13365E-04  2464   0.222E-02    0.192E-02
DAV:  10    -0.136758556496E+04   -0.23870E-05   -0.46885E-05  2448   0.131E-02    0.112E-02
DAV:  11    -0.136758556614E+04   -0.11859E-05   -0.11634E-05  1744   0.804E-03    0.941E-03
DAV:  12    -0.136758556503E+04    0.11188E-05   -0.10075E-05  1592   0.796E-03    0.724E-03
DAV:  13    -0.136758556470E+04    0.32631E-06   -0.87095E-06  1584   0.645E-03
  17 F= -.13675856E+04 E0= -.13675856E+04  d E =-.198454E+00
 BRION: g(F)=  0.101E+00 g(S)=  0.000E+00 retain N=  3 mean eig= 3.26
 eig:   4.252  4.252  1.273
 bond charge predicted
       N       E                     dE             d eps       ncg     rms          rms(c)
DAV:   1    -0.136768088157E+04   -0.95317E-01   -0.12190E+01  1376   0.498E+00    0.551E-01
DAV:   2    -0.136774350339E+04   -0.62622E-01   -0.65615E-01  2296   0.190E+00    0.275E-01
DAV:   3    -0.136774787199E+04   -0.43686E-02   -0.54956E-02  2552   0.380E-01    0.221E-01
DAV:   4    -0.136774748869E+04    0.38330E-03   -0.48141E-03  2616   0.164E-01    0.170E-01
DAV:   5    -0.136774680614E+04    0.68255E-03   -0.20199E-03  2384   0.966E-02    0.788E-02
DAV:   6    -0.136774678760E+04    0.18542E-04   -0.18866E-03  2280   0.821E-02    0.477E-02
DAV:   7    -0.136774681257E+04   -0.24973E-04   -0.91534E-04  2440   0.556E-02    0.421E-02
DAV:   8    -0.136774680621E+04    0.63578E-05   -0.23578E-04  2528   0.321E-02    0.275E-02
DAV:   9    -0.136774679796E+04    0.82575E-05   -0.86576E-05  2376   0.176E-02    0.150E-02
DAV:  10    -0.136774679998E+04   -0.20229E-05   -0.37108E-05  2336   0.111E-02    0.914E-03
DAV:  11    -0.136774680039E+04   -0.41683E-06   -0.81854E-06  1456   0.733E-03
  18 F= -.13677468E+04 E0= -.13677468E+04  d E =-.161236E+00
 BRION: g(F)=  0.988E-01 g(S)=  0.000E+00 retain N=  3 mean eig= 3.16
 eig:   4.011  4.011  1.444
 bond charge predicted
       N       E                     dE             d eps       ncg     rms          rms(c)
DAV:   1    -0.136784552801E+04   -0.98728E-01   -0.13758E+01  1376   0.528E+00    0.574E-01
DAV:   2    -0.136791537655E+04   -0.69849E-01   -0.73100E-01  2288   0.200E+00    0.289E-01
DAV:   3    -0.136792030969E+04   -0.49331E-02   -0.61850E-02  2568   0.404E-01    0.231E-01
DAV:   4    -0.136791988268E+04    0.42701E-03   -0.51265E-03  2608   0.171E-01    0.179E-01
DAV:   5    -0.136791913954E+04    0.74315E-03   -0.22072E-03  2384   0.989E-02    0.836E-02
DAV:   6    -0.136791910013E+04    0.39410E-04   -0.19835E-03  2280   0.843E-02    0.486E-02
DAV:   7    -0.136791913471E+04   -0.34581E-04   -0.10389E-03  2488   0.586E-02    0.438E-02
DAV:   8    -0.136791912654E+04    0.81678E-05   -0.25166E-04  2528   0.338E-02    0.287E-02
DAV:   9    -0.136791911850E+04    0.80453E-05   -0.92638E-05  2392   0.180E-02    0.155E-02
DAV:  10    -0.136791912037E+04   -0.18737E-05   -0.35566E-05  2376   0.111E-02    0.908E-03
DAV:  11    -0.136791912086E+04   -0.48678E-06   -0.68335E-06  1352   0.710E-03
  19 F= -.13679191E+04 E0= -.13679191E+04  d E =-.172320E+00
 BRION: g(F)=  0.973E-01 g(S)=  0.000E+00 retain N=  3 mean eig= 3.12
 eig:   3.968  3.968  1.428
 bond charge predicted
       N       E                     dE             d eps       ncg     rms          rms(c)
DAV:   1    -0.136801899758E+04   -0.99877E-01   -0.16070E+01  1376   0.571E+00    0.625E-01
DAV:   2    -0.136810044757E+04   -0.81450E-01   -0.85212E-01  2288   0.216E+00    0.315E-01
DAV:   3    -0.136810618206E+04   -0.57345E-02   -0.72036E-02  2576   0.435E-01    0.251E-01
DAV:   4    -0.136810562943E+04    0.55263E-03   -0.58928E-03  2600   0.185E-01    0.191E-01
DAV:   5    -0.136810477041E+04    0.85901E-03   -0.27066E-03  2376   0.108E-01    0.836E-02
DAV:   6    -0.136810478065E+04   -0.10231E-04   -0.21947E-03  2320   0.868E-02    0.530E-02
DAV:   7    -0.136810480254E+04   -0.21899E-04   -0.98708E-04  2496   0.588E-02    0.430E-02
DAV:   8    -0.136810479600E+04    0.65490E-05   -0.28355E-04  2520   0.348E-02    0.269E-02
DAV:   9    -0.136810479017E+04    0.58251E-05   -0.87772E-05  2408   0.181E-02    0.159E-02
DAV:  10    -0.136810479167E+04   -0.14975E-05   -0.30159E-05  2376   0.105E-02    0.920E-03
DAV:  11    -0.136810479180E+04   -0.13543E-06   -0.46332E-06  1264   0.677E-03
  20 F= -.13681048E+04 E0= -.13681048E+04  d E =-.185671E+00
 BRION: g(F)=  0.949E-01 g(S)=  0.000E+00 retain N=  3 mean eig= 3.20
 eig:   4.143  4.143  1.322
