 running on  160 total cores
 distrk:  each k-point on  160 cores,    1 groups
 distr:  one band on   20 cores,    8 groups
 using from now: INCAR     
 vasp.5.4.4.18Apr17-6-g9f103f2a35 (build May 01 2020 14:22:42) gamma-only       
  
 POSCAR found type information on POSCAR  O  La Zr Li Al
 POSCAR found :  5 types and     190 ions
 scaLAPACK will be used
 LDA part: xc-table for Pade appr. of Perdew
 POSCAR, INCAR and KPOINTS ok, starting setup
 FFT: planning ...
 WAVECAR not read
 WARNING: random wavefunctions but no delay for mixing, default for NELMDL
 entering main loop
       N       E                     dE             d eps       ncg     rms          rms(c)
DAV:   1     0.252794998535E+05    0.25279E+05   -0.42331E+05  1616   0.253E+03
DAV:   2     0.948087140354E+04   -0.15799E+05   -0.14527E+05  1424   0.713E+02
DAV:   3     0.276157883038E+04   -0.67193E+04   -0.61152E+04  1504   0.356E+02
DAV:   4    -0.350082872347E+03   -0.31117E+04   -0.28969E+04  2048   0.220E+02
DAV:   5    -0.140842473641E+04   -0.10583E+04   -0.10205E+04  2536   0.144E+02    0.116E+02
DAV:   6    -0.129916788340E+04    0.10926E+03   -0.14545E+03  2416   0.665E+01    0.507E+01
DAV:   7    -0.132100923688E+04   -0.21841E+02   -0.40561E+02  2552   0.344E+01    0.265E+01
DAV:   8    -0.132415827345E+04   -0.31490E+01   -0.22161E+02  2528   0.264E+01    0.221E+01
DAV:   9    -0.132222125314E+04    0.19370E+01   -0.31670E+01  2568   0.126E+01    0.899E+00
DAV:  10    -0.132204825049E+04    0.17300E+00   -0.16457E+01  2584   0.674E+00    0.603E+00
DAV:  11    -0.132242052726E+04   -0.37228E+00   -0.42538E+00  2624   0.391E+00    0.422E+00
DAV:  12    -0.132250508287E+04   -0.84556E-01   -0.17889E+00  2584   0.255E+00    0.356E+00
DAV:  13    -0.132237075164E+04    0.13433E+00   -0.14478E+00  2504   0.213E+00    0.143E+00
DAV:  14    -0.132238024248E+04   -0.94908E-02   -0.20573E-01  2552   0.102E+00    0.112E+00
DAV:  15    -0.132238084025E+04   -0.59777E-03   -0.68450E-02  2584   0.496E-01    0.675E-01
DAV:  16    -0.132237880386E+04    0.20364E-02   -0.32198E-02  2544   0.316E-01    0.399E-01
DAV:  17    -0.132237919091E+04   -0.38705E-03   -0.99873E-03  2584   0.201E-01    0.216E-01
DAV:  18    -0.132237923856E+04   -0.47653E-04   -0.36809E-03  2624   0.105E-01    0.103E-01
DAV:  19    -0.132237932328E+04   -0.84717E-04   -0.18495E-03  2608   0.818E-02    0.981E-02
DAV:  20    -0.132237932922E+04   -0.59431E-05   -0.75941E-04  2504   0.474E-02    0.252E-02
DAV:  21    -0.132237934321E+04   -0.13989E-04   -0.21776E-04  2600   0.311E-02    0.260E-02
DAV:  22    -0.132237935141E+04   -0.81968E-05   -0.98386E-05  2552   0.160E-02    0.128E-02
DAV:  23    -0.132237935839E+04   -0.69817E-05   -0.28022E-05  1544   0.108E-02    0.604E-03
DAV:  24    -0.132237935800E+04    0.39625E-06   -0.15325E-05  1432   0.747E-03    0.335E-03
DAV:  25    -0.132237935953E+04   -0.15296E-05   -0.49372E-06  1032   0.629E-03    0.190E-03
DAV:  26    -0.132237936035E+04   -0.82377E-06   -0.23650E-06   968   0.452E-03
   1 F= -.13223794E+04 E0= -.13223698E+04  d E =-.132238E+04
 BRION: g(F)=  0.663E+02 g(S)=  0.000E+00
 bond charge predicted
       N       E                     dE             d eps       ncg     rms          rms(c)
DAV:   1    -0.126941873065E+04    0.52961E+02   -0.94374E+03  1696   0.147E+02    0.316E+01
DAV:   2    -0.134552586147E+04   -0.76107E+02   -0.89743E+02  2552   0.663E+01    0.171E+01
DAV:   3    -0.134335592382E+04    0.21699E+01   -0.53336E+01  2624   0.184E+01    0.111E+01
DAV:   4    -0.134047243721E+04    0.28835E+01   -0.17104E+01  2448   0.860E+00    0.515E+00
DAV:   5    -0.134016371005E+04    0.30873E+00   -0.55723E+00  2544   0.525E+00    0.356E+00
DAV:   6    -0.134008516264E+04    0.78547E-01   -0.38800E+00  2584   0.353E+00    0.212E+00
DAV:   7    -0.134004444570E+04    0.40717E-01   -0.63224E-01  2544   0.195E+00    0.110E+00
DAV:   8    -0.134005344470E+04   -0.89990E-02   -0.40766E-01  2600   0.113E+00    0.801E-01
DAV:   9    -0.134005583612E+04   -0.23914E-02   -0.70868E-02  2600   0.575E-01    0.662E-01
DAV:  10    -0.134004994010E+04    0.58960E-02   -0.66568E-02  2592   0.487E-01    0.236E-01
DAV:  11    -0.134005175792E+04   -0.18178E-02   -0.21941E-02  2528   0.316E-01    0.235E-01
DAV:  12    -0.134005163855E+04    0.11938E-03   -0.41648E-03  2624   0.136E-01    0.159E-01
DAV:  13    -0.134005134132E+04    0.29723E-03   -0.43721E-03  2344   0.115E-01    0.342E-02
DAV:  14    -0.134005141541E+04   -0.74084E-04   -0.91516E-04  2288   0.702E-02    0.310E-02
DAV:  15    -0.134005143700E+04   -0.21596E-04   -0.16993E-04  2624   0.237E-02    0.320E-02
DAV:  16    -0.134005142221E+04    0.14790E-04   -0.71660E-05  2600   0.173E-02    0.190E-02
DAV:  17    -0.134005142432E+04   -0.21127E-05   -0.67167E-05  2512   0.141E-02    0.856E-03
DAV:  18    -0.134005142308E+04    0.12431E-05   -0.54730E-06  1432   0.765E-03    0.527E-03
DAV:  19    -0.134005142365E+04   -0.57128E-06   -0.13742E-05  1632   0.658E-03    0.321E-03
DAV:  20    -0.134005142360E+04    0.55239E-07   -0.12179E-06  1016   0.416E-03
   2 F= -.13400514E+04 E0= -.13400514E+04  d E =-.176721E+02
 BRION: g(F)=  0.120E+03 g(S)=  0.000E+00 retain N=  1 mean eig= 0.40
 eig:   0.399
 bond charge predicted
       N       E                     dE             d eps       ncg     rms          rms(c)
DAV:   1    -0.132323435212E+04    0.16817E+02   -0.25967E+03  1360   0.652E+01    0.214E+01
DAV:   2    -0.135455165095E+04   -0.31317E+02   -0.39925E+02  2568   0.347E+01    0.197E+01
DAV:   3    -0.135178864450E+04    0.27630E+01   -0.37284E+01  2576   0.120E+01    0.152E+01
DAV:   4    -0.134912584076E+04    0.26628E+01   -0.35563E+01  2176   0.641E+00    0.745E+00
DAV:   5    -0.134998667958E+04   -0.86084E+00   -0.87558E+00  2416   0.425E+00    0.860E+00
DAV:   6    -0.134871459404E+04    0.12721E+01   -0.14155E+01  2440   0.381E+00    0.206E+00
DAV:   7    -0.134880316883E+04   -0.88575E-01   -0.18439E+00  2520   0.308E+00    0.196E+00
DAV:   8    -0.134875039834E+04    0.52770E-01   -0.73752E-01  2504   0.140E+00    0.632E-01
DAV:   9    -0.134875423590E+04   -0.38376E-02   -0.12304E-01  2480   0.721E-01    0.354E-01
DAV:  10    -0.134875613821E+04   -0.19023E-02   -0.40572E-02  2496   0.368E-01    0.325E-01
DAV:  11    -0.134875580658E+04    0.33163E-03   -0.92397E-03  2616   0.210E-01    0.288E-01
DAV:  12    -0.134875450907E+04    0.12975E-02   -0.87005E-03  2424   0.152E-01    0.982E-02
DAV:  13    -0.134875470670E+04   -0.19763E-03   -0.47843E-03  2576   0.113E-01    0.790E-02
DAV:  14    -0.134875467247E+04    0.34231E-04   -0.59612E-04  2552   0.525E-02    0.511E-02
DAV:  15    -0.134875465639E+04    0.16076E-04   -0.25112E-04  2624   0.270E-02    0.188E-02
DAV:  16    -0.134875466070E+04   -0.43056E-05   -0.78559E-05  2608   0.170E-02    0.910E-03
DAV:  17    -0.134875465993E+04    0.77124E-06   -0.17689E-05  2224   0.943E-03    0.468E-03
DAV:  18    -0.134875466039E+04   -0.45863E-06   -0.10614E-05  1984   0.611E-03    0.634E-03
DAV:  19    -0.134875465976E+04    0.62825E-06   -0.18892E-06  1120   0.429E-03
   3 F= -.13487547E+04 E0= -.13487547E+04  d E =-.870324E+01
 BRION: g(F)=  0.120E+02 g(S)=  0.000E+00 retain N=  2 mean eig= 1.82
 eig:   0.242  3.404
 bond charge predicted
       N       E                     dE             d eps       ncg     rms          rms(c)
DAV:   1    -0.134955682470E+04   -0.80216E+00   -0.59268E+02  1400   0.329E+01    0.690E+00
DAV:   2    -0.135283924989E+04   -0.32824E+01   -0.38595E+01  2360   0.134E+01    0.322E+00
DAV:   3    -0.135288605856E+04   -0.46809E-01   -0.29907E+00  2584   0.375E+00    0.282E+00
DAV:   4    -0.135277800771E+04    0.10805E+00   -0.66916E-01  2560   0.164E+00    0.156E+00
DAV:   5    -0.135275228656E+04    0.25721E-01   -0.36523E-01  2200   0.111E+00    0.999E-01
DAV:   6    -0.135274555964E+04    0.67269E-02   -0.14952E-01  2512   0.769E-01    0.755E-01
DAV:   7    -0.135274244649E+04    0.31131E-02   -0.10888E-01  2480   0.557E-01    0.409E-01
DAV:   8    -0.135274166428E+04    0.78221E-03   -0.15417E-02  2544   0.261E-01    0.248E-01
DAV:   9    -0.135274151357E+04    0.15071E-03   -0.60418E-03  2616   0.140E-01    0.120E-01
DAV:  10    -0.135274167584E+04   -0.16228E-03   -0.20873E-03  2528   0.828E-02    0.991E-02
DAV:  11    -0.135274152917E+04    0.14667E-03   -0.91721E-04  2568   0.620E-02    0.358E-02
DAV:  12    -0.135274155781E+04   -0.28632E-04   -0.48324E-04  2528   0.406E-02    0.242E-02
DAV:  13    -0.135274155507E+04    0.27386E-05   -0.68156E-05  2624   0.184E-02    0.117E-02
DAV:  14    -0.135274155727E+04   -0.22008E-05   -0.38394E-05  2488   0.108E-02    0.702E-03
DAV:  15    -0.135274155702E+04    0.24405E-06   -0.41305E-06  1304   0.627E-03
   4 F= -.13527416E+04 E0= -.13527416E+04  d E =-.398690E+01
 BRION: g(F)=  0.457E+01 g(S)=  0.000E+00 retain N=  3 mean eig= 2.42
 eig:   6.468  0.403  0.403
 bond charge predicted
       N       E                     dE             d eps       ncg     rms          rms(c)
DAV:   1    -0.135390708041E+04   -0.11655E+01   -0.23256E+02  1368   0.206E+01    0.340E+00
DAV:   2    -0.135503438489E+04   -0.11273E+01   -0.12058E+01  2296   0.759E+00    0.172E+00
DAV:   3    -0.135505054661E+04   -0.16162E-01   -0.81097E-01  2624   0.160E+00    0.139E+00
DAV:   4    -0.135501031818E+04    0.40228E-01   -0.21796E-01  2536   0.931E-01    0.670E-01
DAV:   5    -0.135500529272E+04    0.50255E-02   -0.69410E-02  2488   0.538E-01    0.439E-01
DAV:   6    -0.135500484625E+04    0.44647E-03   -0.48763E-02  2568   0.390E-01    0.213E-01
DAV:   7    -0.135500473556E+04    0.11069E-03   -0.97101E-03  2280   0.198E-01    0.185E-01
DAV:   8    -0.135500462966E+04    0.10589E-03   -0.45094E-03  2336   0.107E-01    0.945E-02
DAV:   9    -0.135500458965E+04    0.40011E-04   -0.18323E-03  2592   0.753E-02    0.586E-02
DAV:  10    -0.135500457785E+04    0.11803E-04   -0.59235E-04  2520   0.525E-02    0.456E-02
DAV:  11    -0.135500457258E+04    0.52687E-05   -0.31670E-04  2528   0.330E-02    0.190E-02
DAV:  12    -0.135500457634E+04   -0.37574E-05   -0.91807E-05  2480   0.173E-02    0.105E-02
DAV:  13    -0.135500457747E+04   -0.11361E-05   -0.14054E-05  2040   0.860E-03    0.814E-03
DAV:  14    -0.135500457736E+04    0.11803E-06   -0.73997E-06  1648   0.576E-03
   5 F= -.13550046E+04 E0= -.13550046E+04  d E =-.226302E+01
 BRION: g(F)=  0.262E+01 g(S)=  0.000E+00 retain N=  4 mean eig= 1.87
 eig:   6.169  0.212  0.552  0.552
 bond charge predicted
       N       E                     dE             d eps       ncg     rms          rms(c)
DAV:   1    -0.135576719477E+04   -0.76262E+00   -0.24673E+02  1352   0.217E+01    0.302E+00
DAV:   2    -0.135704667741E+04   -0.12795E+01   -0.13560E+01  2288   0.829E+00    0.166E+00
DAV:   3    -0.135708990599E+04   -0.43229E-01   -0.95185E-01  2592   0.174E+00    0.148E+00
DAV:   4    -0.135706309549E+04    0.26810E-01   -0.14234E-01  2600   0.788E-01    0.963E-01
DAV:   5    -0.135704105981E+04    0.22036E-01   -0.10768E-01  2184   0.609E-01    0.393E-01
DAV:   6    -0.135704548448E+04   -0.44247E-02   -0.63111E-02  2416   0.446E-01    0.508E-01
DAV:   7    -0.135704244221E+04    0.30423E-02   -0.27706E-02  2496   0.297E-01    0.288E-01
DAV:   8    -0.135704187704E+04    0.56518E-03   -0.10729E-02  2520   0.180E-01    0.119E-01
DAV:   9    -0.135704187955E+04   -0.25080E-05   -0.12832E-03  2488   0.767E-02    0.817E-02
DAV:  10    -0.135704188776E+04   -0.82162E-05   -0.67445E-04  2328   0.422E-02    0.378E-02
DAV:  11    -0.135704187810E+04    0.96664E-05   -0.11824E-04  2552   0.286E-02    0.192E-02
DAV:  12    -0.135704189099E+04   -0.12893E-04   -0.20739E-04  2456   0.231E-02    0.233E-02
DAV:  13    -0.135704188278E+04    0.82097E-05   -0.54145E-05  2304   0.144E-02    0.929E-03
DAV:  14    -0.135704188338E+04   -0.59833E-06   -0.14438E-05  1840   0.756E-03    0.405E-03
DAV:  15    -0.135704188339E+04   -0.11831E-07   -0.19032E-06  1032   0.440E-03
   6 F= -.13570419E+04 E0= -.13570419E+04  d E =-.203731E+01
 BRION: g(F)=  0.155E+01 g(S)=  0.000E+00 retain N=  5 mean eig= 1.81
 eig:   6.221  0.069  0.872  0.872  0.996
 bond charge predicted
       N       E                     dE             d eps       ncg     rms          rms(c)
DAV:   1    -0.135741618984E+04   -0.37431E+00   -0.20456E+02  1368   0.195E+01    0.280E+00
DAV:   2    -0.135847376264E+04   -0.10576E+01   -0.11073E+01  2288   0.738E+00    0.149E+00
DAV:   3    -0.135850099979E+04   -0.27237E-01   -0.74266E-01  2592   0.151E+00    0.124E+00
DAV:   4    -0.135847183914E+04    0.29161E-01   -0.15635E-01  2552   0.779E-01    0.665E-01
DAV:   5    -0.135846274977E+04    0.90894E-02   -0.58434E-02  2472   0.474E-01    0.341E-01
DAV:   6    -0.135846337264E+04   -0.62286E-03   -0.28595E-02  2536   0.327E-01    0.248E-01
DAV:   7    -0.135846275966E+04    0.61297E-03   -0.11574E-02  2336   0.206E-01    0.163E-01
DAV:   8    -0.135846289739E+04   -0.13773E-03   -0.57982E-03  2416   0.119E-01    0.961E-02
DAV:   9    -0.135846281073E+04    0.86660E-04   -0.92508E-04  2544   0.608E-02    0.624E-02
DAV:  10    -0.135846280395E+04    0.67822E-05   -0.86508E-04  2408   0.505E-02    0.425E-02
DAV:  11    -0.135846279464E+04    0.93160E-05   -0.29378E-04  2528   0.354E-02    0.162E-02
DAV:  12    -0.135846279936E+04   -0.47286E-05   -0.92731E-05  2408   0.194E-02    0.119E-02
DAV:  13    -0.135846279982E+04   -0.45596E-06   -0.30278E-05  2264   0.106E-02    0.781E-03
DAV:  14    -0.135846279968E+04    0.13593E-06   -0.75242E-06  1536   0.628E-03
   7 F= -.13584628E+04 E0= -.13584628E+04  d E =-.142092E+01
 BRION: g(F)=  0.630E+00 g(S)=  0.000E+00 retain N=  6 mean eig= 2.25
 eig:   7.520  2.200  2.200  0.169  0.709  0.709
 bond charge predicted
       N       E                     dE             d eps       ncg     rms          rms(c)
DAV:   1    -0.135883351865E+04   -0.37072E+00   -0.66403E+01  1384   0.114E+01    0.174E+00
DAV:   2    -0.135916917080E+04   -0.33565E+00   -0.35470E+00  2296   0.434E+00    0.848E-01
DAV:   3    -0.135918359664E+04   -0.14426E-01   -0.27044E-01  2624   0.884E-01    0.664E-01
DAV:   4    -0.135917561501E+04    0.79816E-02   -0.45729E-02  2552   0.466E-01    0.342E-01
DAV:   5    -0.135917475373E+04    0.86128E-03   -0.16982E-02  2464   0.263E-01    0.181E-01
DAV:   6    -0.135917497802E+04   -0.22429E-03   -0.79877E-03  2608   0.162E-01    0.993E-02
DAV:   7    -0.135917495200E+04    0.26027E-04   -0.14738E-03  2528   0.846E-02    0.717E-02
DAV:   8    -0.135917495394E+04   -0.19472E-05   -0.70351E-04  2568   0.473E-02    0.358E-02
DAV:   9    -0.135917494754E+04    0.63992E-05   -0.15539E-04  2592   0.286E-02    0.206E-02
DAV:  10    -0.135917495523E+04   -0.76903E-05   -0.11038E-04  2520   0.182E-02    0.177E-02
DAV:  11    -0.135917495213E+04    0.31089E-05   -0.30472E-05  2408   0.119E-02    0.776E-03
DAV:  12    -0.135917495276E+04   -0.63665E-06   -0.14120E-05  1856   0.712E-03    0.552E-03
DAV:  13    -0.135917495237E+04    0.39709E-06   -0.15985E-06  1024   0.496E-03
   8 F= -.13591750E+04 E0= -.13591750E+04  d E =-.712153E+00
 BRION: g(F)=  0.599E+00 g(S)=  0.000E+00 retain N=  6 mean eig= 1.23
 eig:   2.579  2.579  0.626  0.626  0.484  0.484
 bond charge predicted
       N       E                     dE             d eps       ncg     rms          rms(c)
DAV:   1    -0.135955646673E+04   -0.38151E+00   -0.23412E+01  1392   0.680E+00    0.972E-01
DAV:   2    -0.135967594300E+04   -0.11948E+00   -0.12746E+00  2288   0.261E+00    0.484E-01
DAV:   3    -0.135968186144E+04   -0.59184E-02   -0.10133E-01  2624   0.543E-01    0.391E-01
DAV:   4    -0.135967924580E+04    0.26156E-02   -0.15478E-02  2584   0.282E-01    0.210E-01
DAV:   5    -0.135967873514E+04    0.51066E-03   -0.61968E-03  2440   0.163E-01    0.106E-01
DAV:   6    -0.135967884456E+04   -0.10942E-03   -0.28198E-03  2584   0.997E-02    0.691E-02
DAV:   7    -0.135967882376E+04    0.20798E-04   -0.77370E-04  2528   0.573E-02    0.464E-02
DAV:   8    -0.135967882625E+04   -0.24891E-05   -0.31406E-04  2576   0.325E-02    0.262E-02
DAV:   9    -0.135967882098E+04    0.52683E-05   -0.63658E-05  2576   0.180E-02    0.160E-02
DAV:  10    -0.135967882308E+04   -0.21021E-05   -0.50737E-05  2248   0.128E-02    0.110E-02
DAV:  11    -0.135967882241E+04    0.67768E-06   -0.12368E-05  1864   0.853E-03    0.476E-03
DAV:  12    -0.135967882282E+04   -0.41896E-06   -0.80261E-06  1656   0.589E-03
   9 F= -.13596788E+04 E0= -.13596788E+04  d E =-.503870E+00
 BRION: g(F)=  0.457E+00 g(S)=  0.000E+00 retain N=  7 mean eig= 1.50
 eig:   3.246  3.246  1.082  1.082  0.378  0.726  0.726
 bond charge predicted
       N       E                     dE             d eps       ncg     rms          rms(c)
DAV:   1    -0.136013878499E+04   -0.45996E+00   -0.57158E+01  1384   0.109E+01    0.137E+00
DAV:   2    -0.136044349416E+04   -0.30471E+00   -0.32427E+00  2288   0.428E+00    0.689E-01
DAV:   3    -0.136046209994E+04   -0.18606E-01   -0.26551E-01  2608   0.875E-01    0.555E-01
DAV:   4    -0.136045781686E+04    0.42831E-02   -0.29151E-02  2600   0.411E-01    0.362E-01
DAV:   5    -0.136045522122E+04    0.25956E-02   -0.13515E-02  2416   0.238E-01    0.149E-01
DAV:   6    -0.136045562516E+04   -0.40393E-03   -0.75419E-03  2520   0.170E-01    0.120E-01
DAV:   7    -0.136045559261E+04    0.32550E-04   -0.33579E-03  2464   0.111E-01    0.856E-02
DAV:   8    -0.136045559010E+04    0.25075E-05   -0.13879E-03  2608   0.691E-02    0.480E-02
DAV:   9    -0.136045557396E+04    0.16142E-04   -0.24467E-04  2584   0.350E-02    0.348E-02
DAV:  10    -0.136045557551E+04   -0.15513E-05   -0.18959E-04  2488   0.238E-02    0.212E-02
DAV:  11    -0.136045557404E+04    0.14690E-05   -0.64389E-05  2416   0.175E-02    0.101E-02
DAV:  12    -0.136045557517E+04   -0.11310E-05   -0.24276E-05  2280   0.108E-02    0.987E-03
DAV:  13    -0.136045557423E+04    0.94074E-06   -0.12554E-05  1800   0.694E-03    0.468E-03
DAV:  14    -0.136045557409E+04    0.13674E-06   -0.26652E-06  1080   0.502E-03
  10 F= -.13604556E+04 E0= -.13604556E+04  d E =-.776751E+00
 BRION: g(F)=  0.402E+00 g(S)=  0.000E+00 retain N=  8 mean eig= 2.49
 eig:   6.056  6.056  2.409  2.409  0.823  0.823  0.388  0.947
 bond charge predicted
       N       E                     dE             d eps       ncg     rms          rms(c)
DAV:   1    -0.136093056972E+04   -0.47500E+00   -0.79820E+01  1400   0.127E+01    0.157E+00
DAV:   2    -0.136136726118E+04   -0.43669E+00   -0.46352E+00  2288   0.514E+00    0.803E-01
DAV:   3    -0.136139284011E+04   -0.25579E-01   -0.37510E-01  2576   0.102E+00    0.655E-01
DAV:   4    -0.136138675349E+04    0.60866E-02   -0.42617E-02  2592   0.481E-01    0.430E-01
DAV:   5    -0.136138271705E+04    0.40364E-02   -0.16516E-02  2472   0.265E-01    0.185E-01
DAV:   6    -0.136138290569E+04   -0.18864E-03   -0.97672E-03  2384   0.186E-01    0.114E-01
DAV:   7    -0.136138299261E+04   -0.86917E-04   -0.43025E-03  2472   0.125E-01    0.955E-02
DAV:   8    -0.136138298016E+04    0.12448E-04   -0.14823E-03  2616   0.730E-02    0.585E-02
DAV:   9    -0.136138296039E+04    0.19771E-04   -0.43735E-04  2576   0.409E-02    0.370E-02
DAV:  10    -0.136138296897E+04   -0.85848E-05   -0.19290E-04  2576   0.265E-02    0.261E-02
DAV:  11    -0.136138296562E+04    0.33530E-05   -0.79519E-05  2440   0.185E-02    0.130E-02
DAV:  12    -0.136138296530E+04    0.32160E-06   -0.35220E-05  2312   0.128E-02    0.991E-03
DAV:  13    -0.136138296511E+04    0.18782E-06   -0.18980E-05  2160   0.802E-03    0.512E-03
DAV:  14    -0.136138296493E+04    0.18324E-06   -0.23971E-06  1032   0.491E-03
  11 F= -.13613830E+04 E0= -.13613830E+04  d E =-.927391E+00
 BRION: g(F)=  0.312E+00 g(S)=  0.000E+00 retain N=  8 mean eig= 1.99
 eig:   3.882  3.882  2.142  2.142  1.161  1.161  0.783  0.783
 bond charge predicted
       N       E                     dE             d eps       ncg     rms          rms(c)
DAV:   1    -0.136173296947E+04   -0.35000E+00   -0.26460E+01  1400   0.729E+00    0.942E-01
DAV:   2    -0.136187402247E+04   -0.14105E+00   -0.15018E+00  2312   0.288E+00    0.468E-01
DAV:   3    -0.136188113769E+04   -0.71152E-02   -0.11485E-01  2584   0.587E-01    0.368E-01
DAV:   4    -0.136187859833E+04    0.25394E-02   -0.14305E-02  2560   0.279E-01    0.220E-01
DAV:   5    -0.136187765291E+04    0.94542E-03   -0.63680E-03  2448   0.158E-01    0.927E-02
DAV:   6    -0.136187780168E+04   -0.14877E-03   -0.27479E-03  2584   0.982E-02    0.651E-02
DAV:   7    -0.136187779820E+04    0.34820E-05   -0.85021E-04  2512   0.607E-02    0.452E-02
DAV:   8    -0.136187780626E+04   -0.80603E-05   -0.43788E-04  2520   0.373E-02    0.279E-02
DAV:   9    -0.136187780062E+04    0.56376E-05   -0.73351E-05  2536   0.204E-02    0.201E-02
DAV:  10    -0.136187780072E+04   -0.94718E-07   -0.75627E-05  2408   0.153E-02    0.116E-02
DAV:  11    -0.136187780014E+04    0.57627E-06   -0.20089E-05  2136   0.103E-02    0.469E-03
DAV:  12    -0.136187780067E+04   -0.53034E-06   -0.68159E-06  1656   0.586E-03
  12 F= -.13618778E+04 E0= -.13618778E+04  d E =-.494836E+00
 BRION: g(F)=  0.292E+00 g(S)=  0.000E+00 retain N=  6 mean eig= 3.64
 eig:   7.928  7.928  2.090  2.090  0.904  0.904
 bond charge predicted
       N       E                     dE             d eps       ncg     rms          rms(c)
DAV:   1    -0.136219382891E+04   -0.31603E+00   -0.10050E+02  1408   0.142E+01    0.165E+00
DAV:   2    -0.136272032863E+04   -0.52650E+00   -0.55373E+00  2304   0.562E+00    0.846E-01
DAV:   3    -0.136274979052E+04   -0.29462E-01   -0.43442E-01  2584   0.108E+00    0.701E-01
DAV:   4    -0.136274352358E+04    0.62669E-02   -0.42536E-02  2616   0.480E-01    0.504E-01
DAV:   5    -0.136273576813E+04    0.77555E-02   -0.19980E-02  2320   0.295E-01    0.223E-01
DAV:   6    -0.136273562793E+04    0.14019E-03   -0.18158E-02  2264   0.247E-01    0.145E-01
DAV:   7    -0.136273577437E+04   -0.14644E-03   -0.75189E-03  2360   0.161E-01    0.128E-01
DAV:   8    -0.136273568676E+04    0.87609E-04   -0.22872E-03  2592   0.940E-02    0.766E-02
DAV:   9    -0.136273563308E+04    0.53686E-04   -0.82898E-04  2536   0.539E-02    0.419E-02
DAV:  10    -0.136273564912E+04   -0.16036E-04   -0.27047E-04  2568   0.312E-02    0.297E-02
DAV:  11    -0.136273564840E+04    0.71936E-06   -0.94614E-05  2424   0.206E-02    0.196E-02
DAV:  12    -0.136273564647E+04    0.19279E-05   -0.71894E-05  2328   0.170E-02    0.170E-02
DAV:  13    -0.136273564427E+04    0.21996E-05   -0.38873E-05  2240   0.115E-02    0.932E-03
DAV:  14    -0.136273564392E+04    0.34583E-06   -0.12228E-05  1760   0.664E-03    0.370E-03
DAV:  15    -0.136273564389E+04    0.28842E-07   -0.19965E-06  1024   0.442E-03
  13 F= -.13627356E+04 E0= -.13627356E+04  d E =-.857843E+00
 BRION: g(F)=  0.244E+00 g(S)=  0.000E+00 retain N=  4 mean eig= 4.15
 eig:   6.360  6.360  2.455  1.442
 bond charge predicted
       N       E                     dE             d eps       ncg     rms          rms(c)
DAV:   1    -0.136305516985E+04   -0.31953E+00   -0.61840E+01  1400   0.111E+01    0.134E+00
DAV:   2    -0.136338005431E+04   -0.32488E+00   -0.34238E+00  2304   0.439E+00    0.676E-01
DAV:   3    -0.136339858477E+04   -0.18530E-01   -0.27120E-01  2568   0.860E-01    0.549E-01
DAV:   4    -0.136339426846E+04    0.43163E-02   -0.28711E-02  2592   0.391E-01    0.377E-01
DAV:   5    -0.136339040469E+04    0.38638E-02   -0.12566E-02  2384   0.232E-01    0.158E-01
DAV:   6    -0.136339052659E+04   -0.12190E-03   -0.87877E-03  2376   0.174E-01    0.111E-01
DAV:   7    -0.136339055003E+04   -0.23438E-04   -0.34970E-03  2448   0.113E-01    0.905E-02
DAV:   8    -0.136339051591E+04    0.34117E-04   -0.13961E-03  2616   0.699E-02    0.527E-02
DAV:   9    -0.136339049887E+04    0.17035E-04   -0.34608E-04  2528   0.372E-02    0.334E-02
DAV:  10    -0.136339050200E+04   -0.31252E-05   -0.14192E-04  2592   0.220E-02    0.213E-02
DAV:  11    -0.136339050156E+04    0.43929E-06   -0.50241E-05  2424   0.154E-02    0.126E-02
DAV:  12    -0.136339050082E+04    0.74164E-06   -0.29001E-05  2288   0.115E-02    0.100E-02
DAV:  13    -0.136339050040E+04    0.42020E-06   -0.17281E-05  1976   0.768E-03    0.518E-03
DAV:  14    -0.136339050019E+04    0.20268E-06   -0.25045E-06  1056   0.487E-03
  14 F= -.13633905E+04 E0= -.13633905E+04  d E =-.654856E+00
 BRION: g(F)=  0.221E+00 g(S)=  0.000E+00 retain N=  3 mean eig= 3.41
 eig:   1.396  4.412  4.412
 bond charge predicted
       N       E                     dE             d eps       ncg     rms          rms(c)
DAV:   1    -0.136363915581E+04   -0.24866E+00   -0.21408E+01  1392   0.653E+00    0.781E-01
DAV:   2    -0.136374924597E+04   -0.11009E+00   -0.11608E+00  2304   0.254E+00    0.394E-01
DAV:   3    -0.136375554744E+04   -0.63015E-02   -0.92723E-02  2584   0.497E-01    0.322E-01
DAV:   4    -0.136375395813E+04    0.15893E-02   -0.93021E-03  2576   0.227E-01    0.219E-01
DAV:   5    -0.136375258755E+04    0.13706E-02   -0.50731E-03  2312   0.143E-01    0.836E-02
DAV:   6    -0.136375273311E+04   -0.14556E-03   -0.30007E-03  2448   0.100E-01    0.737E-02
DAV:   7    -0.136375270664E+04    0.26469E-04   -0.98170E-04  2488   0.610E-02    0.499E-02
DAV:   8    -0.136375269744E+04    0.91972E-05   -0.45782E-04  2544   0.393E-02    0.261E-02
DAV:   9    -0.136375269485E+04    0.25941E-05   -0.80719E-05  2352   0.198E-02    0.196E-02
DAV:  10    -0.136375269453E+04    0.32442E-06   -0.36033E-05  2392   0.116E-02    0.101E-02
DAV:  11    -0.136375269450E+04    0.24593E-07   -0.95453E-06  1712   0.796E-03
  15 F= -.13637527E+04 E0= -.13637527E+04  d E =-.362194E+00
 BRION: g(F)=  0.210E+00 g(S)=  0.000E+00 retain N=  4 mean eig= 4.27
 eig:   7.116  7.116  1.429  1.429
 bond charge predicted
       N       E                     dE             d eps       ncg     rms          rms(c)
DAV:   1    -0.136393373030E+04   -0.18104E+00   -0.12675E+01  1384   0.501E+00    0.590E-01
DAV:   2    -0.136399689126E+04   -0.63161E-01   -0.66253E-01  2312   0.191E+00    0.303E-01
DAV:   3    -0.136400036642E+04   -0.34752E-02   -0.51705E-02  2592   0.366E-01    0.240E-01
DAV:   4    -0.136399933522E+04    0.10312E-02   -0.52274E-03  2592   0.168E-01    0.160E-01
DAV:   5    -0.136399858778E+04    0.74744E-03   -0.27661E-03  2264   0.108E-01    0.583E-02
DAV:   6    -0.136399868865E+04   -0.10086E-03   -0.17409E-03  2480   0.776E-02    0.539E-02
DAV:   7    -0.136399867832E+04    0.10323E-04   -0.53572E-04  2424   0.439E-02    0.385E-02
DAV:   8    -0.136399867170E+04    0.66256E-05   -0.21771E-04  2592   0.269E-02    0.191E-02
DAV:   9    -0.136399866885E+04    0.28430E-05   -0.40850E-05  2312   0.141E-02    0.133E-02
DAV:  10    -0.136399866901E+04   -0.16112E-06   -0.21167E-05  2080   0.890E-03    0.755E-03
DAV:  11    -0.136399866856E+04    0.45920E-06   -0.24770E-06  1032   0.610E-03
  16 F= -.13639987E+04 E0= -.13639987E+04  d E =-.245974E+00
 BRION: g(F)=  0.205E+00 g(S)=  0.000E+00 retain N=  4 mean eig= 4.10
 eig:   6.886  6.886  1.322  1.322
 bond charge predicted
       N       E                     dE             d eps       ncg     rms          rms(c)
DAV:   1    -0.136428021971E+04   -0.28155E+00   -0.63372E+01  1376   0.112E+01    0.129E+00
DAV:   2    -0.136460498621E+04   -0.32477E+00   -0.34067E+00  2288   0.433E+00    0.660E-01
DAV:   3    -0.136462355907E+04   -0.18573E-01   -0.26890E-01  2584   0.844E-01    0.533E-01
DAV:   4    -0.136461939901E+04    0.41601E-02   -0.26200E-02  2600   0.374E-01    0.371E-01
DAV:   5    -0.136461524353E+04    0.41555E-02   -0.11753E-02  2336   0.225E-01    0.154E-01
DAV:   6    -0.136461534734E+04   -0.10381E-03   -0.89543E-03  2376   0.171E-01    0.103E-01
DAV:   7    -0.136461538616E+04   -0.38826E-04   -0.31774E-03  2440   0.107E-01    0.839E-02
DAV:   8    -0.136461535891E+04    0.27252E-04   -0.11489E-03  2608   0.647E-02    0.475E-02
DAV:   9    -0.136461534279E+04    0.16120E-04   -0.31950E-04  2456   0.356E-02    0.300E-02
DAV:  10    -0.136461534789E+04   -0.50960E-05   -0.12294E-04  2512   0.209E-02    0.197E-02
DAV:  11    -0.136461534675E+04    0.11367E-05   -0.40515E-05  2432   0.140E-02    0.112E-02
DAV:  12    -0.136461534694E+04   -0.18782E-06   -0.28190E-05  2280   0.107E-02    0.964E-03
DAV:  13    -0.136461534616E+04    0.77642E-06   -0.11424E-05  1784   0.686E-03    0.502E-03
DAV:  14    -0.136461534616E+04    0.48167E-08   -0.57916E-06  1488   0.532E-03
  17 F= -.13646153E+04 E0= -.13646153E+04  d E =-.616678E+00
 BRION: g(F)=  0.188E+00 g(S)=  0.000E+00 retain N=  4 mean eig= 4.57
 eig:   7.644  7.644  1.488  1.488
 bond charge predicted
       N       E                     dE             d eps       ncg     rms          rms(c)
DAV:   1    -0.136484877963E+04   -0.23343E+00   -0.24629E+01  1392   0.701E+00    0.832E-01
DAV:   2    -0.136497477069E+04   -0.12599E+00   -0.13262E+00  2312   0.273E+00    0.424E-01
DAV:   3    -0.136498163411E+04   -0.68634E-02   -0.10240E-01  2576   0.533E-01    0.334E-01
DAV:   4    -0.136497961768E+04    0.20164E-02   -0.11006E-02  2584   0.243E-01    0.215E-01
DAV:   5    -0.136497848025E+04    0.11374E-02   -0.50364E-03  2408   0.143E-01    0.820E-02
DAV:   6    -0.136497861254E+04   -0.13228E-03   -0.25811E-03  2472   0.955E-02    0.634E-02
DAV:   7    -0.136497860661E+04    0.59269E-05   -0.90457E-04  2440   0.593E-02    0.452E-02
DAV:   8    -0.136497860701E+04   -0.40530E-06   -0.40744E-04  2584   0.364E-02    0.257E-02
DAV:   9    -0.136497860380E+04    0.32166E-05   -0.71445E-05  2520   0.190E-02    0.188E-02
DAV:  10    -0.136497860348E+04    0.31669E-06   -0.51011E-05  2488   0.130E-02    0.105E-02
DAV:  11    -0.136497860335E+04    0.13124E-06   -0.15567E-05  2056   0.902E-03    0.471E-03
DAV:  12    -0.136497860349E+04   -0.13957E-06   -0.47326E-06  1384   0.572E-03
  18 F= -.13649786E+04 E0= -.13649786E+04  d E =-.363257E+00
 BRION: g(F)=  0.178E+00 g(S)=  0.000E+00 retain N=  4 mean eig= 3.38
 eig:   5.601  5.601  1.159  1.159
 bond charge predicted
       N       E                     dE             d eps       ncg     rms          rms(c)
DAV:   1    -0.136521714692E+04   -0.23854E+00   -0.59524E+01  1392   0.109E+01    0.127E+00
DAV:   2    -0.136552616005E+04   -0.30901E+00   -0.32497E+00  2312   0.427E+00    0.659E-01
DAV:   3    -0.136554268729E+04   -0.16527E-01   -0.25108E-01  2600   0.835E-01    0.526E-01
DAV:   4    -0.136553786544E+04    0.48218E-02   -0.27346E-02  2568   0.376E-01    0.340E-01
DAV:   5    -0.136553474785E+04    0.31176E-02   -0.10842E-02  2392   0.214E-01    0.144E-01
DAV:   6    -0.136553483005E+04   -0.82198E-04   -0.65920E-03  2384   0.148E-01    0.888E-02
DAV:   7    -0.136553486797E+04   -0.37924E-04   -0.24590E-03  2400   0.978E-02    0.696E-02
DAV:   8    -0.136553486891E+04   -0.93810E-06   -0.93453E-04  2592   0.552E-02    0.407E-02
DAV:   9    -0.136553486326E+04    0.56518E-05   -0.23765E-04  2528   0.318E-02    0.283E-02
DAV:  10    -0.136553486566E+04   -0.23986E-05   -0.10378E-04  2568   0.197E-02    0.191E-02
DAV:  11    -0.136553486380E+04    0.18557E-05   -0.45461E-05  2416   0.138E-02    0.859E-03
DAV:  12    -0.136553486411E+04   -0.30572E-06   -0.18338E-05  2000   0.940E-03    0.722E-03
DAV:  13    -0.136553486365E+04    0.46358E-06   -0.61842E-06  1392   0.586E-03
  19 F= -.13655349E+04 E0= -.13655349E+04  d E =-.556260E+00
 BRION: g(F)=  0.155E+00 g(S)=  0.000E+00 retain N=  3 mean eig= 4.98
 eig:   6.755  6.755  1.440
 bond charge predicted
       N       E                     dE             d eps       ncg     rms          rms(c)
DAV:   1    -0.136575495444E+04   -0.22009E+00   -0.31537E+01  1392   0.796E+00    0.950E-01
DAV:   2    -0.136591746446E+04   -0.16251E+00   -0.17159E+00  2312   0.312E+00    0.482E-01
DAV:   3    -0.136592678215E+04   -0.93177E-02   -0.13787E-01  2584   0.608E-01    0.373E-01
DAV:   4    -0.136592431031E+04    0.24718E-02   -0.14515E-02  2576   0.281E-01    0.245E-01
DAV:   5    -0.136592282290E+04    0.14874E-02   -0.60621E-03  2400   0.157E-01    0.101E-01
DAV:   6    -0.136592290289E+04   -0.79989E-04   -0.33636E-03  2432   0.109E-01    0.659E-02
DAV:   7    -0.136592292152E+04   -0.18631E-04   -0.13538E-03  2384   0.717E-02    0.514E-02
DAV:   8    -0.136592292283E+04   -0.13090E-05   -0.54117E-04  2552   0.425E-02    0.310E-02
DAV:   9    -0.136592291886E+04    0.39735E-05   -0.11765E-04  2544   0.234E-02    0.217E-02
DAV:  10    -0.136592291797E+04    0.88717E-06   -0.65045E-05  2568   0.152E-02    0.125E-02
DAV:  11    -0.136592291775E+04    0.22163E-06   -0.22765E-05  2240   0.100E-02    0.537E-03
DAV:  12    -0.136592291790E+04   -0.14613E-06   -0.69971E-06  1656   0.667E-03
  20 F= -.13659229E+04 E0= -.13659229E+04  d E =-.388054E+00
 BRION: g(F)=  0.143E+00 g(S)=  0.000E+00 retain N=  3 mean eig= 4.30
 eig:   1.461  5.719  5.719
