 # LLZO_Ia3d_Al00_partial_00.vasp
 
        1536  atoms
           4  atom types
 
      0.000000000000      26.285169601400  xlo xhi
      0.000000000000      26.285169601400  ylo yhi
      0.000000000000      26.285169601400  zlo zhi
 
Masses
 
            1   15.99900000             # O
            2   138.90547000            # La
            3   91.22400000             # Zr
            4   6.94000000              # Li
 
Atoms # atomic
 
         1    1        1.314258506355       2.570689639587       3.700951853592
         2    1       11.828326005208      10.571894793120       9.441632947108
         3    1        5.257033999136      10.571894793120      10.272244253942
         4    1        7.885551195842       2.570689639587       2.870340546758
         5    1       11.828326005208       9.141982407930       2.870340546758
         6    1        1.314258506355       4.000602760763      10.272244253942
         7    1        7.885551195842       4.000602760763       9.441632947108
         8    1        5.257033999136       9.141982407930       3.700951853592
         9    1        3.700951853592       1.314258506355       2.570689639587
        10    1        9.441632947108      11.828326005208      10.571894793120
        11    1       10.272244253942       5.257033999136      10.571894793120
        12    1        2.870340546758       7.885551195842       2.570689639587
        13    1        2.870340546758      11.828326005208       9.141982407930
        14    1       10.272244253942       1.314258506355       4.000602760763
        15    1        9.441632947108       7.885551195842       4.000602760763
        16    1        3.700951853592       5.257033999136       9.141982407930
        17    1        2.570689639587       3.700951853592       1.314258506355
        18    1       10.571894793120       9.441632947108      11.828326005208
        19    1       10.571894793120      10.272244253942       5.257033999136
        20    1        2.570689639587       2.870340546758       7.885551195842
        21    1        9.141982407930       2.870340546758      11.828326005208
        22    1        4.000602760763      10.272244253942       1.314258506355
        23    1        4.000602760763       9.441632947108       7.885551195842
        24    1        9.141982407930       3.700951853592       5.257033999136
        25    1       12.427628608105       4.599904601389      12.727279147283
        26    1        0.714956560588       8.542679805033       0.415305653417
        27    1        7.286248592945       8.542679805033       6.155986746933
        28    1        5.856335839762       4.599904601389       6.986598053767
        29    1        5.856335839762       1.971387798961       0.415305653417
        30    1        7.286248592945      11.171197396017      12.727279147283
        31    1        0.714956560588      11.171197396017       6.986598053767
        32    1       12.427628608105       1.971387798961       6.155986746933
        33    1       11.171197396017       6.986598053767       0.714956560588
        34    1        1.971387798961       6.155986746933      12.427628608105
        35    1        1.971387798961       0.415305653417       5.856335839762
        36    1       11.171197396017      12.727279147283       7.286248592945
        37    1        8.542679805033       6.155986746933       7.286248592945
        38    1        4.599904601389       6.986598053767       5.856335839762
        39    1        4.599904601389      12.727279147283      12.427628608105
        40    1        8.542679805033       0.415305653417       0.714956560588
        41    1        0.415305653417       5.856335839762       1.971387798961
        42    1       12.727279147283       7.286248592945      11.171197396017
        43    1        6.986598053767       0.714956560588      11.171197396017
        44    1        6.155986746933      12.427628608105       1.971387798961
        45    1       12.727279147283      12.427628608105       4.599904601389
        46    1        0.415305653417       0.714956560588       8.542679805033
        47    1        6.155986746933       7.286248592945       8.542679805033
        48    1        6.986598053767       5.856335839762       4.599904601389
        49    1        7.885551195842       9.141982407930      10.272244253942
        50    1        5.257033999136       4.000602760763       2.870340546758
        51    1       11.828326005208       4.000602760763       3.700951853592
        52    1        1.314258506355       9.141982407930       9.441632947108
        53    1        5.257033999136       2.570689639587       9.441632947108
        54    1        7.885551195842      10.571894793120       3.700951853592
        55    1        1.314258506355      10.571894793120       2.870340546758
        56    1       11.828326005208       2.570689639587      10.272244253942
        57    1       10.272244253942       7.885551195842       9.141982407930
        58    1        2.870340546758       5.257033999136       4.000602760763
        59    1        3.700951853592      11.828326005208       4.000602760763
        60    1        9.441632947108       1.314258506355       9.141982407930
        61    1        9.441632947108       5.257033999136       2.570689639587
        62    1        3.700951853592       7.885551195842      10.571894793120
        63    1        2.870340546758       1.314258506355      10.571894793120
        64    1       10.272244253942      11.828326005208       2.570689639587
        65    1        9.141982407930      10.272244253942       7.885551195842
        66    1        4.000602760763       2.870340546758       5.257033999136
        67    1        4.000602760763       3.700951853592      11.828326005208
        68    1        9.141982407930       9.441632947108       1.314258506355
        69    1        2.570689639587       9.441632947108       5.257033999136
        70    1       10.571894793120       3.700951853592       7.885551195842
        71    1       10.571894793120       2.870340546758       1.314258506355
        72    1        2.570689639587      10.272244253942      11.828326005208
        73    1        5.856335839762      11.171197396017       6.155986746933
        74    1        7.286248592945       1.971387798961       6.986598053767
        75    1        0.714956560588       1.971387798961      12.727279147283
        76    1       12.427628608105      11.171197396017       0.415305653417
        77    1       12.427628608105       8.542679805033       6.986598053767
        78    1        0.714956560588       4.599904601389       6.155986746933
        79    1        7.286248592945       4.599904601389       0.415305653417
        80    1        5.856335839762       8.542679805033      12.727279147283
        81    1        4.599904601389       0.415305653417       7.286248592945
        82    1        8.542679805033      12.727279147283       5.856335839762
        83    1        8.542679805033       6.986598053767      12.427628608105
        84    1        4.599904601389       6.155986746933       0.714956560588
        85    1        1.971387798961      12.727279147283       0.714956560588
        86    1       11.171197396017       0.415305653417      12.427628608105
        87    1       11.171197396017       6.155986746933       5.856335839762
        88    1        1.971387798961       6.986598053767       7.286248592945
        89    1        6.986598053767      12.427628608105       8.542679805033
        90    1        6.155986746933       0.714956560588       4.599904601389
        91    1        0.415305653417       7.286248592945       4.599904601389
        92    1       12.727279147283       5.856335839762       8.542679805033
        93    1        6.155986746933       5.856335839762      11.171197396017
        94    1        6.986598053767       7.286248592945       1.971387798961
        95    1       12.727279147283       0.714956560588       1.971387798961
        96    1        0.415305653417      12.427628608105      11.171197396017
        97    1        1.314258506355       2.570689639587      16.843536654292
        98    1       11.828326005208      10.571894793120      22.584217747808
        99    1        5.257033999136      10.571894793120      23.414829054642
       100    1        7.885551195842       2.570689639587      16.012925347458
       101    1       11.828326005208       9.141982407930      16.012925347458
       102    1        1.314258506355       4.000602760763      23.414829054642
       103    1        7.885551195842       4.000602760763      22.584217747808
       104    1        5.257033999136       9.141982407930      16.843536654292
       105    1        3.700951853592       1.314258506355      15.713274808280
       106    1        9.441632947108      11.828326005208      23.714479593820
       107    1       10.272244253942       5.257033999136      23.714479593820
       108    1        2.870340546758       7.885551195842      15.713274808280
       109    1        2.870340546758      11.828326005208      22.284567208630
       110    1       10.272244253942       1.314258506355      17.143187193470
       111    1        9.441632947108       7.885551195842      17.143187193470
       112    1        3.700951853592       5.257033999136      22.284567208630
       113    1        2.570689639587       3.700951853592      14.456843596192
       114    1       10.571894793120       9.441632947108      24.970910805908
       115    1       10.571894793120      10.272244253942      18.399618405558
       116    1        2.570689639587       2.870340546758      21.028135996542
       117    1        9.141982407930       2.870340546758      24.970910805908
       118    1        4.000602760763      10.272244253942      14.456843596192
       119    1        4.000602760763       9.441632947108      21.028135996542
       120    1        9.141982407930       3.700951853592      18.399618405558
       121    1       12.427628608105       4.599904601389      25.869863947983
       122    1        0.714956560588       8.542679805033      13.557890454117
       123    1        7.286248592945       8.542679805033      19.298571547633
       124    1        5.856335839762       4.599904601389      20.129182854467
       125    1        5.856335839762       1.971387798961      13.557890454117
       126    1        7.286248592945      11.171197396017      25.869863947983
       127    1        0.714956560588      11.171197396017      20.129182854467
       128    1       12.427628608105       1.971387798961      19.298571547633
       129    1       11.171197396017       6.986598053767      13.857540993295
       130    1        1.971387798961       6.155986746933      25.570213408805
       131    1        1.971387798961       0.415305653417      18.998921008455
       132    1       11.171197396017      12.727279147283      20.428833393645
       133    1        8.542679805033       6.155986746933      20.428833393645
       134    1        4.599904601389       6.986598053767      18.998921008455
       135    1        4.599904601389      12.727279147283      25.570213408805
       136    1        8.542679805033       0.415305653417      13.857540993295
       137    1        0.415305653417       5.856335839762      15.113972205383
       138    1       12.727279147283       7.286248592945      24.313782196717
       139    1        6.986598053767       0.714956560588      24.313782196717
       140    1        6.155986746933      12.427628608105      15.113972205383
       141    1       12.727279147283      12.427628608105      17.742489796367
       142    1        0.415305653417       0.714956560588      21.685264605733
       143    1        6.155986746933       7.286248592945      21.685264605733
       144    1        6.986598053767       5.856335839762      17.742489796367
       145    1        7.885551195842       9.141982407930      23.414829054642
       146    1        5.257033999136       4.000602760763      16.012925347458
       147    1       11.828326005208       4.000602760763      16.843536654292
       148    1        1.314258506355       9.141982407930      22.584217747808
       149    1        5.257033999136       2.570689639587      22.584217747808
       150    1        7.885551195842      10.571894793120      16.843536654292
       151    1        1.314258506355      10.571894793120      16.012925347458
       152    1       11.828326005208       2.570689639587      23.414829054642
       153    1       10.272244253942       7.885551195842      22.284567208630
       154    1        2.870340546758       5.257033999136      17.143187193470
       155    1        3.700951853592      11.828326005208      17.143187193470
       156    1        9.441632947108       1.314258506355      22.284567208630
       157    1        9.441632947108       5.257033999136      15.713274808280
       158    1        3.700951853592       7.885551195842      23.714479593820
       159    1        2.870340546758       1.314258506355      23.714479593820
       160    1       10.272244253942      11.828326005208      15.713274808280
       161    1        9.141982407930      10.272244253942      21.028135996542
       162    1        4.000602760763       2.870340546758      18.399618405558
       163    1        4.000602760763       3.700951853592      24.970910805908
       164    1        9.141982407930       9.441632947108      14.456843596192
       165    1        2.570689639587       9.441632947108      18.399618405558
       166    1       10.571894793120       3.700951853592      21.028135996542
       167    1       10.571894793120       2.870340546758      14.456843596192
       168    1        2.570689639587      10.272244253942      24.970910805908
       169    1        5.856335839762      11.171197396017      19.298571547633
       170    1        7.286248592945       1.971387798961      20.129182854467
       171    1        0.714956560588       1.971387798961      25.869863947983
       172    1       12.427628608105      11.171197396017      13.557890454117
       173    1       12.427628608105       8.542679805033      20.129182854467
       174    1        0.714956560588       4.599904601389      19.298571547633
       175    1        7.286248592945       4.599904601389      13.557890454117
       176    1        5.856335839762       8.542679805033      25.869863947983
       177    1        4.599904601389       0.415305653417      20.428833393645
       178    1        8.542679805033      12.727279147283      18.998921008455
       179    1        8.542679805033       6.986598053767      25.570213408805
       180    1        4.599904601389       6.155986746933      13.857540993295
       181    1        1.971387798961      12.727279147283      13.857540993295
       182    1       11.171197396017       0.415305653417      25.570213408805
       183    1       11.171197396017       6.155986746933      18.998921008455
       184    1        1.971387798961       6.986598053767      20.428833393645
       185    1        6.986598053767      12.427628608105      21.685264605733
       186    1        6.155986746933       0.714956560588      17.742489796367
       187    1        0.415305653417       7.286248592945      17.742489796367
       188    1       12.727279147283       5.856335839762      21.685264605733
       189    1        6.155986746933       5.856335839762      24.313782196717
       190    1        6.986598053767       7.286248592945      15.113972205383
       191    1       12.727279147283       0.714956560588      15.113972205383
       192    1        0.415305653417      12.427628608105      24.313782196717
       193    1        1.314258506355      15.713274808280       3.700951853592
       194    1       11.828326005208      23.714479593820       9.441632947108
       195    1        5.257033999136      23.714479593820      10.272244253942
       196    1        7.885551195842      15.713274808280       2.870340546758
       197    1       11.828326005208      22.284567208630       2.870340546758
       198    1        1.314258506355      17.143187193470      10.272244253942
       199    1        7.885551195842      17.143187193470       9.441632947108
       200    1        5.257033999136      22.284567208630       3.700951853592
       201    1        3.700951853592      14.456843596192       2.570689639587
       202    1        9.441632947108      24.970910805908      10.571894793120
       203    1       10.272244253942      18.399618405558      10.571894793120
       204    1        2.870340546758      21.028135996542       2.570689639587
       205    1        2.870340546758      24.970910805908       9.141982407930
       206    1       10.272244253942      14.456843596192       4.000602760763
       207    1        9.441632947108      21.028135996542       4.000602760763
       208    1        3.700951853592      18.399618405558       9.141982407930
       209    1        2.570689639587      16.843536654292       1.314258506355
       210    1       10.571894793120      22.584217747808      11.828326005208
       211    1       10.571894793120      23.414829054642       5.257033999136
       212    1        2.570689639587      16.012925347458       7.885551195842
       213    1        9.141982407930      16.012925347458      11.828326005208
       214    1        4.000602760763      23.414829054642       1.314258506355
       215    1        4.000602760763      22.584217747808       7.885551195842
       216    1        9.141982407930      16.843536654292       5.257033999136
       217    1       12.427628608105      17.742489796367      12.727279147283
       218    1        0.714956560588      21.685264605733       0.415305653417
       219    1        7.286248592945      21.685264605733       6.155986746933
       220    1        5.856335839762      17.742489796367       6.986598053767
       221    1        5.856335839762      15.113972205383       0.415305653417
       222    1        7.286248592945      24.313782196717      12.727279147283
       223    1        0.714956560588      24.313782196717       6.986598053767
       224    1       12.427628608105      15.113972205383       6.155986746933
       225    1       11.171197396017      20.129182854467       0.714956560588
       226    1        1.971387798961      19.298571547633      12.427628608105
       227    1        1.971387798961      13.557890454117       5.856335839762
       228    1       11.171197396017      25.869863947983       7.286248592945
       229    1        8.542679805033      19.298571547633       7.286248592945
       230    1        4.599904601389      20.129182854467       5.856335839762
       231    1        4.599904601389      25.869863947983      12.427628608105
       232    1        8.542679805033      13.557890454117       0.714956560588
       233    1        0.415305653417      18.998921008455       1.971387798961
       234    1       12.727279147283      20.428833393645      11.171197396017
       235    1        6.986598053767      13.857540993295      11.171197396017
       236    1        6.155986746933      25.570213408805       1.971387798961
       237    1       12.727279147283      25.570213408805       4.599904601389
       238    1        0.415305653417      13.857540993295       8.542679805033
       239    1        6.155986746933      20.428833393645       8.542679805033
       240    1        6.986598053767      18.998921008455       4.599904601389
       241    1        7.885551195842      22.284567208630      10.272244253942
       242    1        5.257033999136      17.143187193470       2.870340546758
       243    1       11.828326005208      17.143187193470       3.700951853592
       244    1        1.314258506355      22.284567208630       9.441632947108
       245    1        5.257033999136      15.713274808280       9.441632947108
       246    1        7.885551195842      23.714479593820       3.700951853592
       247    1        1.314258506355      23.714479593820       2.870340546758
       248    1       11.828326005208      15.713274808280      10.272244253942
       249    1       10.272244253942      21.028135996542       9.141982407930
       250    1        2.870340546758      18.399618405558       4.000602760763
       251    1        3.700951853592      24.970910805908       4.000602760763
       252    1        9.441632947108      14.456843596192       9.141982407930
       253    1        9.441632947108      18.399618405558       2.570689639587
       254    1        3.700951853592      21.028135996542      10.571894793120
       255    1        2.870340546758      14.456843596192      10.571894793120
       256    1       10.272244253942      24.970910805908       2.570689639587
       257    1        9.141982407930      23.414829054642       7.885551195842
       258    1        4.000602760763      16.012925347458       5.257033999136
       259    1        4.000602760763      16.843536654292      11.828326005208
       260    1        9.141982407930      22.584217747808       1.314258506355
       261    1        2.570689639587      22.584217747808       5.257033999136
       262    1       10.571894793120      16.843536654292       7.885551195842
       263    1       10.571894793120      16.012925347458       1.314258506355
       264    1        2.570689639587      23.414829054642      11.828326005208
       265    1        5.856335839762      24.313782196717       6.155986746933
       266    1        7.286248592945      15.113972205383       6.986598053767
       267    1        0.714956560588      15.113972205383      12.727279147283
       268    1       12.427628608105      24.313782196717       0.415305653417
       269    1       12.427628608105      21.685264605733       6.986598053767
       270    1        0.714956560588      17.742489796367       6.155986746933
       271    1        7.286248592945      17.742489796367       0.415305653417
       272    1        5.856335839762      21.685264605733      12.727279147283
       273    1        4.599904601389      13.557890454117       7.286248592945
       274    1        8.542679805033      25.869863947983       5.856335839762
       275    1        8.542679805033      20.129182854467      12.427628608105
       276    1        4.599904601389      19.298571547633       0.714956560588
       277    1        1.971387798961      25.869863947983       0.714956560588
       278    1       11.171197396017      13.557890454117      12.427628608105
       279    1       11.171197396017      19.298571547633       5.856335839762
       280    1        1.971387798961      20.129182854467       7.286248592945
       281    1        6.986598053767      25.570213408805       8.542679805033
       282    1        6.155986746933      13.857540993295       4.599904601389
       283    1        0.415305653417      20.428833393645       4.599904601389
       284    1       12.727279147283      18.998921008455       8.542679805033
       285    1        6.155986746933      18.998921008455      11.171197396017
       286    1        6.986598053767      20.428833393645       1.971387798961
       287    1       12.727279147283      13.857540993295       1.971387798961
       288    1        0.415305653417      25.570213408805      11.171197396017
       289    1        1.314258506355      15.713274808280      16.843536654292
       290    1       11.828326005208      23.714479593820      22.584217747808
       291    1        5.257033999136      23.714479593820      23.414829054642
       292    1        7.885551195842      15.713274808280      16.012925347458
       293    1       11.828326005208      22.284567208630      16.012925347458
       294    1        1.314258506355      17.143187193470      23.414829054642
       295    1        7.885551195842      17.143187193470      22.584217747808
       296    1        5.257033999136      22.284567208630      16.843536654292
       297    1        3.700951853592      14.456843596192      15.713274808280
       298    1        9.441632947108      24.970910805908      23.714479593820
       299    1       10.272244253942      18.399618405558      23.714479593820
       300    1        2.870340546758      21.028135996542      15.713274808280
       301    1        2.870340546758      24.970910805908      22.284567208630
       302    1       10.272244253942      14.456843596192      17.143187193470
       303    1        9.441632947108      21.028135996542      17.143187193470
       304    1        3.700951853592      18.399618405558      22.284567208630
       305    1        2.570689639587      16.843536654292      14.456843596192
       306    1       10.571894793120      22.584217747808      24.970910805908
       307    1       10.571894793120      23.414829054642      18.399618405558
       308    1        2.570689639587      16.012925347458      21.028135996542
       309    1        9.141982407930      16.012925347458      24.970910805908
       310    1        4.000602760763      23.414829054642      14.456843596192
       311    1        4.000602760763      22.584217747808      21.028135996542
       312    1        9.141982407930      16.843536654292      18.399618405558
       313    1       12.427628608105      17.742489796367      25.869863947983
       314    1        0.714956560588      21.685264605733      13.557890454117
       315    1        7.286248592945      21.685264605733      19.298571547633
       316    1        5.856335839762      17.742489796367      20.129182854467
       317    1        5.856335839762      15.113972205383      13.557890454117
       318    1        7.286248592945      24.313782196717      25.869863947983
       319    1        0.714956560588      24.313782196717      20.129182854467
       320    1       12.427628608105      15.113972205383      19.298571547633
       321    1       11.171197396017      20.129182854467      13.857540993295
       322    1        1.971387798961      19.298571547633      25.570213408805
       323    1        1.971387798961      13.557890454117      18.998921008455
       324    1       11.171197396017      25.869863947983      20.428833393645
       325    1        8.542679805033      19.298571547633      20.428833393645
       326    1        4.599904601389      20.129182854467      18.998921008455
       327    1        4.599904601389      25.869863947983      25.570213408805
       328    1        8.542679805033      13.557890454117      13.857540993295
       329    1        0.415305653417      18.998921008455      15.113972205383
       330    1       12.727279147283      20.428833393645      24.313782196717
       331    1        6.986598053767      13.857540993295      24.313782196717
       332    1        6.155986746933      25.570213408805      15.113972205383
       333    1       12.727279147283      25.570213408805      17.742489796367
       334    1        0.415305653417      13.857540993295      21.685264605733
       335    1        6.155986746933      20.428833393645      21.685264605733
       336    1        6.986598053767      18.998921008455      17.742489796367
       337    1        7.885551195842      22.284567208630      23.414829054642
       338    1        5.257033999136      17.143187193470      16.012925347458
       339    1       11.828326005208      17.143187193470      16.843536654292
       340    1        1.314258506355      22.284567208630      22.584217747808
       341    1        5.257033999136      15.713274808280      22.584217747808
       342    1        7.885551195842      23.714479593820      16.843536654292
       343    1        1.314258506355      23.714479593820      16.012925347458
       344    1       11.828326005208      15.713274808280      23.414829054642
       345    1       10.272244253942      21.028135996542      22.284567208630
       346    1        2.870340546758      18.399618405558      17.143187193470
       347    1        3.700951853592      24.970910805908      17.143187193470
       348    1        9.441632947108      14.456843596192      22.284567208630
       349    1        9.441632947108      18.399618405558      15.713274808280
       350    1        3.700951853592      21.028135996542      23.714479593820
       351    1        2.870340546758      14.456843596192      23.714479593820
       352    1       10.272244253942      24.970910805908      15.713274808280
       353    1        9.141982407930      23.414829054642      21.028135996542
       354    1        4.000602760763      16.012925347458      18.399618405558
       355    1        4.000602760763      16.843536654292      24.970910805908
       356    1        9.141982407930      22.584217747808      14.456843596192
       357    1        2.570689639587      22.584217747808      18.399618405558
       358    1       10.571894793120      16.843536654292      21.028135996542
       359    1       10.571894793120      16.012925347458      14.456843596192
       360    1        2.570689639587      23.414829054642      24.970910805908
       361    1        5.856335839762      24.313782196717      19.298571547633
       362    1        7.286248592945      15.113972205383      20.129182854467
       363    1        0.714956560588      15.113972205383      25.869863947983
       364    1       12.427628608105      24.313782196717      13.557890454117
       365    1       12.427628608105      21.685264605733      20.129182854467
       366    1        0.714956560588      17.742489796367      19.298571547633
       367    1        7.286248592945      17.742489796367      13.557890454117
       368    1        5.856335839762      21.685264605733      25.869863947983
       369    1        4.599904601389      13.557890454117      20.428833393645