 # LLZO_Ia3d_Al00_partial_00.vasp
 
        1536  atoms
           4  atom types
 
      0.000000000000      26.384199142500  xlo xhi
      0.000000000000      26.384199142500  ylo yhi
      0.000000000000      26.384199142500  zlo zhi
 
Masses
 
            1   15.99900000             # O
            2   138.90547000            # La
            3   91.22400000             # Zr
            4   6.94000000              # Li
 
Atoms # atomic
 
         1    1        1.319209983509       2.580374728905       3.714895212880
         2    1       11.872889297515      10.611724472966       9.477204358370
         3    1        5.276839907653      10.611724472966      10.310944998505
         4    1        7.915260059360       2.580374728905       2.881154572745
         5    1       11.872889297515       9.176424883909       2.881154572745
         6    1        1.319209983509       4.015675056720      10.310944998505
         7    1        7.915260059360       4.015675056720       9.477204358370
         8    1        5.276839907653       9.176424883909       3.714895212880
         9    1        3.714895212880       1.319209983509       2.580374728905
        10    1        9.477204358370      11.872889297515      10.611724472966
        11    1       10.310944998505       5.276839907653      10.611724472966
        12    1        2.881154572745       7.915260059360       2.580374728905
        13    1        2.881154572745      11.872889297515       9.176424883909
        14    1       10.310944998505       1.319209983509       4.015675056720
        15    1        9.477204358370       7.915260059360       4.015675056720
        16    1        3.714895212880       5.276839907653       9.176424883909
        17    1        2.580374728905       3.714895212880       1.319209983509
        18    1       10.611724472966       9.477204358370      11.872889297515
        19    1       10.611724472966      10.310944998505       5.276839907653
        20    1        2.580374728905       2.881154572745       7.915260059360
        21    1        9.176424883909       2.881154572745      11.872889297515
        22    1        4.015675056720      10.310944998505       1.319209983509
        23    1        4.015675056720       9.477204358370       7.915260059360
        24    1        9.176424883909       3.714895212880       5.276839907653
        25    1       12.474449776721       4.617234770785      12.775229251183
        26    1        0.717650163908       8.574864404702       0.416870320067
        27    1        7.313699580154       8.574864404702       6.179179465558
        28    1        5.878399621717       4.617234770785       7.012920105692
        29    1        5.878399621717       1.978815014840       0.416870320067
        30    1        7.313699580154      11.213284952173      12.775229251183
        31    1        0.717650163908      11.213284952173       7.012920105692
        32    1       12.474449776721       1.978815014840       6.179179465558
        33    1       11.213284952173       7.012920105692       0.717650163908
        34    1        1.978815014840       6.179179465558      12.474449776721
        35    1        1.978815014840       0.416870320067       5.878399621717
        36    1       11.213284952173      12.775229251183       7.313699580154
        37    1        8.574864404702       6.179179465558       7.313699580154
        38    1        4.617234770785       7.012920105692       5.878399621717
        39    1        4.617234770785      12.775229251183      12.474449776721
        40    1        8.574864404702       0.416870320067       0.717650163908
        41    1        0.416870320067       5.878399621717       1.978815014840
        42    1       12.775229251183       7.313699580154      11.213284952173
        43    1        7.012920105692       0.717650163908      11.213284952173
        44    1        6.179179465558      12.474449776721       1.978815014840
        45    1       12.775229251183      12.474449776721       4.617234770785
        46    1        0.416870320067       0.717650163908       8.574864404702
        47    1        6.179179465558       7.313699580154       8.574864404702
        48    1        7.012920105692       5.878399621717       4.617234770785
        49    1        7.915260059360       9.176424883909      10.310944998505
        50    1        5.276839907653       4.015675056720       2.881154572745
        51    1       11.872889297515       4.015675056720       3.714895212880
        52    1        1.319209983509       9.176424883909       9.477204358370
        53    1        5.276839907653       2.580374728905       9.477204358370
        54    1        7.915260059360      10.611724472966       3.714895212880
        55    1        1.319209983509      10.611724472966       2.881154572745
        56    1       11.872889297515       2.580374728905      10.310944998505
        57    1       10.310944998505       7.915260059360       9.176424883909
        58    1        2.881154572745       5.276839907653       4.015675056720
        59    1        3.714895212880      11.872889297515       4.015675056720
        60    1        9.477204358370       1.319209983509       9.176424883909
        61    1        9.477204358370       5.276839907653       2.580374728905
        62    1        3.714895212880       7.915260059360      10.611724472966
        63    1        2.881154572745       1.319209983509      10.611724472966
        64    1       10.310944998505      11.872889297515       2.580374728905
        65    1        9.176424883909      10.310944998505       7.915260059360
        66    1        4.015675056720       2.881154572745       5.276839907653
        67    1        4.015675056720       3.714895212880      11.872889297515
        68    1        9.176424883909       9.477204358370       1.319209983509
        69    1        2.580374728905       9.477204358370       5.276839907653
        70    1       10.611724472966       3.714895212880       7.915260059360
        71    1       10.611724472966       2.881154572745       1.319209983509
        72    1        2.580374728905      10.310944998505      11.872889297515
        73    1        5.878399621717      11.213284952173       6.179179465558
        74    1        7.313699580154       1.978815014840       7.012920105692
        75    1        0.717650163908       1.978815014840      12.775229251183
        76    1       12.474449776721      11.213284952173       0.416870320067
        77    1       12.474449776721       8.574864404702       7.012920105692
        78    1        0.717650163908       4.617234770785       6.179179465558
        79    1        7.313699580154       4.617234770785       0.416870320067
        80    1        5.878399621717       8.574864404702      12.775229251183
        81    1        4.617234770785       0.416870320067       7.313699580154
        82    1        8.574864404702      12.775229251183       5.878399621717
        83    1        8.574864404702       7.012920105692      12.474449776721
        84    1        4.617234770785       6.179179465558       0.717650163908
        85    1        1.978815014840      12.775229251183       0.717650163908
        86    1       11.213284952173       0.416870320067      12.474449776721
        87    1       11.213284952173       6.179179465558       5.878399621717
        88    1        1.978815014840       7.012920105692       7.313699580154
        89    1        7.012920105692      12.474449776721       8.574864404702
        90    1        6.179179465558       0.717650163908       4.617234770785
        91    1        0.416870320067       7.313699580154       4.617234770785
        92    1       12.775229251183       5.878399621717       8.574864404702
        93    1        6.179179465558       5.878399621717      11.213284952173
        94    1        7.012920105692       7.313699580154       1.978815014840
        95    1       12.775229251183       0.717650163908       1.978815014840
        96    1        0.416870320067      12.474449776721      11.213284952173
        97    1        1.319209983509       2.580374728905      16.906994784130
        98    1       11.872889297515      10.611724472966      22.669303929620
        99    1        5.276839907653      10.611724472966      23.503044569755
       100    1        7.915260059360       2.580374728905      16.073254143995
       101    1       11.872889297515       9.176424883909      16.073254143995
       102    1        1.319209983509       4.015675056720      23.503044569755
       103    1        7.915260059360       4.015675056720      22.669303929620
       104    1        5.276839907653       9.176424883909      16.906994784130
       105    1        3.714895212880       1.319209983509      15.772474669534
       106    1        9.477204358370      11.872889297515      23.803824044216
       107    1       10.310944998505       5.276839907653      23.803824044216
       108    1        2.881154572745       7.915260059360      15.772474669534
       109    1        2.881154572745      11.872889297515      22.368524455159
       110    1       10.310944998505       1.319209983509      17.207774258591
       111    1        9.477204358370       7.915260059360      17.207774258591
       112    1        3.714895212880       5.276839907653      22.368524455159
       113    1        2.580374728905       3.714895212880      14.511309844985
       114    1       10.611724472966       9.477204358370      25.064988868765
       115    1       10.611724472966      10.310944998505      18.468939083140
       116    1        2.580374728905       2.881154572745      21.107359630610
       117    1        9.176424883909       2.881154572745      25.064988868765
       118    1        4.015675056720      10.310944998505      14.511309844985
       119    1        4.015675056720       9.477204358370      21.107359630610
       120    1        9.176424883909       3.714895212880      18.468939083140
       121    1       12.474449776721       4.617234770785      25.967328822433
       122    1        0.717650163908       8.574864404702      13.608969891317
       123    1        7.313699580154       8.574864404702      19.371279036808
       124    1        5.878399621717       4.617234770785      20.205019676942
       125    1        5.878399621717       1.978815014840      13.608969891317
       126    1        7.313699580154      11.213284952173      25.967328822433
       127    1        0.717650163908      11.213284952173      20.205019676942
       128    1       12.474449776721       1.978815014840      19.371279036808
       129    1       11.213284952173       7.012920105692      13.909749365779
       130    1        1.978815014840       6.179179465558      25.666549347971
       131    1        1.978815014840       0.416870320067      19.070499562346
       132    1       11.213284952173      12.775229251183      20.505799151404
       133    1        8.574864404702       6.179179465558      20.505799151404
       134    1        4.617234770785       7.012920105692      19.070499562346
       135    1        4.617234770785      12.775229251183      25.666549347971
       136    1        8.574864404702       0.416870320067      13.909749365779
       137    1        0.416870320067       5.878399621717      15.170914190327
       138    1       12.775229251183       7.313699580154      24.405384523423
       139    1        7.012920105692       0.717650163908      24.405384523423
       140    1        6.179179465558      12.474449776721      15.170914190327
       141    1       12.775229251183      12.474449776721      17.809334737798
       142    1        0.416870320067       0.717650163908      21.766963975952
       143    1        6.179179465558       7.313699580154      21.766963975952
       144    1        7.012920105692       5.878399621717      17.809334737798
       145    1        7.915260059360       9.176424883909      23.503044569755
       146    1        5.276839907653       4.015675056720      16.073254143995
       147    1       11.872889297515       4.015675056720      16.906994784130
       148    1        1.319209983509       9.176424883909      22.669303929620
       149    1        5.276839907653       2.580374728905      22.669303929620
       150    1        7.915260059360      10.611724472966      16.906994784130
       151    1        1.319209983509      10.611724472966      16.073254143995
       152    1       11.872889297515       2.580374728905      23.503044569755
       153    1       10.310944998505       7.915260059360      22.368524455159
       154    1        2.881154572745       5.276839907653      17.207774258591
       155    1        3.714895212880      11.872889297515      17.207774258591
       156    1        9.477204358370       1.319209983509      22.368524455159
       157    1        9.477204358370       5.276839907653      15.772474669534
       158    1        3.714895212880       7.915260059360      23.803824044216
       159    1        2.881154572745       1.319209983509      23.803824044216
       160    1       10.310944998505      11.872889297515      15.772474669534
       161    1        9.176424883909      10.310944998505      21.107359630610
       162    1        4.015675056720       2.881154572745      18.468939083140
       163    1        4.015675056720       3.714895212880      25.064988868765
       164    1        9.176424883909       9.477204358370      14.511309844985
       165    1        2.580374728905       9.477204358370      18.468939083140
       166    1       10.611724472966       3.714895212880      21.107359630610
       167    1       10.611724472966       2.881154572745      14.511309844985
       168    1        2.580374728905      10.310944998505      25.064988868765
       169    1        5.878399621717      11.213284952173      19.371279036808
       170    1        7.313699580154       1.978815014840      20.205019676942
       171    1        0.717650163908       1.978815014840      25.967328822433
       172    1       12.474449776721      11.213284952173      13.608969891317
       173    1       12.474449776721       8.574864404702      20.205019676942
       174    1        0.717650163908       4.617234770785      19.371279036808
       175    1        7.313699580154       4.617234770785      13.608969891317
       176    1        5.878399621717       8.574864404702      25.967328822433
       177    1        4.617234770785       0.416870320067      20.505799151404
       178    1        8.574864404702      12.775229251183      19.070499562346
       179    1        8.574864404702       7.012920105692      25.666549347971
       180    1        4.617234770785       6.179179465558      13.909749365779
       181    1        1.978815014840      12.775229251183      13.909749365779
       182    1       11.213284952173       0.416870320067      25.666549347971
       183    1       11.213284952173       6.179179465558      19.070499562346
       184    1        1.978815014840       7.012920105692      20.505799151404
       185    1        7.012920105692      12.474449776721      21.766963975952
       186    1        6.179179465558       0.717650163908      17.809334737798
       187    1        0.416870320067       7.313699580154      17.809334737798
       188    1       12.775229251183       5.878399621717      21.766963975952
       189    1        6.179179465558       5.878399621717      24.405384523423
       190    1        7.012920105692       7.313699580154      15.170914190327
       191    1       12.775229251183       0.717650163908      15.170914190327
       192    1        0.416870320067      12.474449776721      24.405384523423
       193    1        1.319209983509      15.772474669534       3.714895212880
       194    1       11.872889297515      23.803824044216       9.477204358370
       195    1        5.276839907653      23.803824044216      10.310944998505
       196    1        7.915260059360      15.772474669534       2.881154572745
       197    1       11.872889297515      22.368524455159       2.881154572745
       198    1        1.319209983509      17.207774258591      10.310944998505
       199    1        7.915260059360      17.207774258591       9.477204358370
       200    1        5.276839907653      22.368524455159       3.714895212880
       201    1        3.714895212880      14.511309844985       2.580374728905
       202    1        9.477204358370      25.064988868765      10.611724472966
       203    1       10.310944998505      18.468939083140      10.611724472966
       204    1        2.881154572745      21.107359630610       2.580374728905
       205    1        2.881154572745      25.064988868765       9.176424883909
       206    1       10.310944998505      14.511309844985       4.015675056720
       207    1        9.477204358370      21.107359630610       4.015675056720
       208    1        3.714895212880      18.468939083140       9.176424883909
       209    1        2.580374728905      16.906994784130       1.319209983509
       210    1       10.611724472966      22.669303929620      11.872889297515
       211    1       10.611724472966      23.503044569755       5.276839907653
       212    1        2.580374728905      16.073254143995       7.915260059360
       213    1        9.176424883909      16.073254143995      11.872889297515
       214    1        4.015675056720      23.503044569755       1.319209983509
       215    1        4.015675056720      22.669303929620       7.915260059360
       216    1        9.176424883909      16.906994784130       5.276839907653
       217    1       12.474449776721      17.809334737798      12.775229251183
       218    1        0.717650163908      21.766963975952       0.416870320067
       219    1        7.313699580154      21.766963975952       6.179179465558
       220    1        5.878399621717      17.809334737798       7.012920105692
       221    1        5.878399621717      15.170914190327       0.416870320067
       222    1        7.313699580154      24.405384523423      12.775229251183
       223    1        0.717650163908      24.405384523423       7.012920105692
       224    1       12.474449776721      15.170914190327       6.179179465558
       225    1       11.213284952173      20.205019676942       0.717650163908
       226    1        1.978815014840      19.371279036808      12.474449776721
       227    1        1.978815014840      13.608969891317       5.878399621717
       228    1       11.213284952173      25.967328822433       7.313699580154
       229    1        8.574864404702      19.371279036808       7.313699580154
       230    1        4.617234770785      20.205019676942       5.878399621717
       231    1        4.617234770785      25.967328822433      12.474449776721
       232    1        8.574864404702      13.608969891317       0.717650163908
       233    1        0.416870320067      19.070499562346       1.978815014840
       234    1       12.775229251183      20.505799151404      11.213284952173
       235    1        7.012920105692      13.909749365779      11.213284952173
       236    1        6.179179465558      25.666549347971       1.978815014840
       237    1       12.775229251183      25.666549347971       4.617234770785
       238    1        0.416870320067      13.909749365779       8.574864404702
       239    1        6.179179465558      20.505799151404       8.574864404702
       240    1        7.012920105692      19.070499562346       4.617234770785
       241    1        7.915260059360      22.368524455159      10.310944998505
       242    1        5.276839907653      17.207774258591       2.881154572745
       243    1       11.872889297515      17.207774258591       3.714895212880
       244    1        1.319209983509      22.368524455159       9.477204358370
       245    1        5.276839907653      15.772474669534       9.477204358370
       246    1        7.915260059360      23.803824044216       3.714895212880
       247    1        1.319209983509      23.803824044216       2.881154572745
       248    1       11.872889297515      15.772474669534      10.310944998505
       249    1       10.310944998505      21.107359630610       9.176424883909
       250    1        2.881154572745      18.468939083140       4.015675056720
       251    1        3.714895212880      25.064988868765       4.015675056720
       252    1        9.477204358370      14.511309844985       9.176424883909
       253    1        9.477204358370      18.468939083140       2.580374728905
       254    1        3.714895212880      21.107359630610      10.611724472966
       255    1        2.881154572745      14.511309844985      10.611724472966
       256    1       10.310944998505      25.064988868765       2.580374728905
       257    1        9.176424883909      23.503044569755       7.915260059360
       258    1        4.015675056720      16.073254143995       5.276839907653
       259    1        4.015675056720      16.906994784130      11.872889297515
       260    1        9.176424883909      22.669303929620       1.319209983509
       261    1        2.580374728905      22.669303929620       5.276839907653
       262    1       10.611724472966      16.906994784130       7.915260059360
       263    1       10.611724472966      16.073254143995       1.319209983509
       264    1        2.580374728905      23.503044569755      11.872889297515
       265    1        5.878399621717      24.405384523423       6.179179465558
       266    1        7.313699580154      15.170914190327       7.012920105692
       267    1        0.717650163908      15.170914190327      12.775229251183
       268    1       12.474449776721      24.405384523423       0.416870320067
       269    1       12.474449776721      21.766963975952       7.012920105692
       270    1        0.717650163908      17.809334737798       6.179179465558
       271    1        7.313699580154      17.809334737798       0.416870320067
       272    1        5.878399621717      21.766963975952      12.775229251183
       273    1        4.617234770785      13.608969891317       7.313699580154
       274    1        8.574864404702      25.967328822433       5.878399621717
       275    1        8.574864404702      20.205019676942      12.474449776721
       276    1        4.617234770785      19.371279036808       0.717650163908
       277    1        1.978815014840      25.967328822433       0.717650163908
       278    1       11.213284952173      13.608969891317      12.474449776721
       279    1       11.213284952173      19.371279036808       5.878399621717
       280    1        1.978815014840      20.205019676942       7.313699580154
       281    1        7.012920105692      25.666549347971       8.574864404702
       282    1        6.179179465558      13.909749365779       4.617234770785
       283    1        0.416870320067      20.505799151404       4.617234770785
       284    1       12.775229251183      19.070499562346       8.574864404702
       285    1        6.179179465558      19.070499562346      11.213284952173
       286    1        7.012920105692      20.505799151404       1.978815014840
       287    1       12.775229251183      13.909749365779       1.978815014840
       288    1        0.416870320067      25.666549347971      11.213284952173
       289    1        1.319209983509      15.772474669534      16.906994784130
       290    1       11.872889297515      23.803824044216      22.669303929620
       291    1        5.276839907653      23.803824044216      23.503044569755
       292    1        7.915260059360      15.772474669534      16.073254143995
       293    1       11.872889297515      22.368524455159      16.073254143995
       294    1        1.319209983509      17.207774258591      23.503044569755
       295    1        7.915260059360      17.207774258591      22.669303929620
       296    1        5.276839907653      22.368524455159      16.906994784130
       297    1        3.714895212880      14.511309844985      15.772474669534
       298    1        9.477204358370      25.064988868765      23.803824044216
       299    1       10.310944998505      18.468939083140      23.803824044216
       300    1        2.881154572745      21.107359630610      15.772474669534
       301    1        2.881154572745      25.064988868765      22.368524455159
       302    1       10.310944998505      14.511309844985      17.207774258591
       303    1        9.477204358370      21.107359630610      17.207774258591
       304    1        3.714895212880      18.468939083140      22.368524455159
       305    1        2.580374728905      16.906994784130      14.511309844985
       306    1       10.611724472966      22.669303929620      25.064988868765
       307    1       10.611724472966      23.503044569755      18.468939083140
       308    1        2.580374728905      16.073254143995      21.107359630610
       309    1        9.176424883909      16.073254143995      25.064988868765
       310    1        4.015675056720      23.503044569755      14.511309844985
       311    1        4.015675056720      22.669303929620      21.107359630610
       312    1        9.176424883909      16.906994784130      18.468939083140
       313    1       12.474449776721      17.809334737798      25.967328822433
       314    1        0.717650163908      21.766963975952      13.608969891317
       315    1        7.313699580154      21.766963975952      19.371279036808
       316    1        5.878399621717      17.809334737798      20.205019676942
       317    1        5.878399621717      15.170914190327      13.608969891317
       318    1        7.313699580154      24.405384523423      25.967328822433
       319    1        0.717650163908      24.405384523423      20.205019676942
       320    1       12.474449776721      15.170914190327      19.371279036808
       321    1       11.213284952173      20.205019676942      13.909749365779
       322    1        1.978815014840      19.371279036808      25.666549347971
       323    1        1.978815014840      13.608969891317      19.070499562346
       324    1       11.213284952173      25.967328822433      20.505799151404
       325    1        8.574864404702      19.371279036808      20.505799151404
       326    1        4.617234770785      20.205019676942      19.070499562346
       327    1        4.617234770785      25.967328822433      25.666549347971
       328    1        8.574864404702      13.608969891317      13.909749365779
       329    1        0.416870320067      19.070499562346      15.170914190327
       330    1       12.775229251183      20.505799151404      24.405384523423
       331    1        7.012920105692      13.909749365779      24.405384523423
       332    1        6.179179465558      25.666549347971      15.170914190327
       333    1       12.775229251183      25.666549347971      17.809334737798
       334    1        0.416870320067      13.909749365779      21.766963975952
       335    1        6.179179465558      20.505799151404      21.766963975952
       336    1        7.012920105692      19.070499562346      17.809334737798
       337    1        7.915260059360      22.368524455159      23.503044569755
       338    1        5.276839907653      17.207774258591      16.073254143995
       339    1       11.872889297515      17.207774258591      16.906994784130
       340    1        1.319209983509      22.368524455159      22.669303929620
       341    1        5.276839907653      15.772474669534      22.669303929620
       342    1        7.915260059360      23.803824044216      16.906994784130
       343    1        1.319209983509      23.803824044216      16.073254143995
       344    1       11.872889297515      15.772474669534      23.503044569755
       345    1       10.310944998505      21.107359630610      22.368524455159
       346    1        2.881154572745      18.468939083140      17.207774258591
       347    1        3.714895212880      25.064988868765      17.207774258591
       348    1        9.477204358370      14.511309844985      22.368524455159
       349    1        9.477204358370      18.468939083140      15.772474669534
       350    1        3.714895212880      21.107359630610      23.803824044216
       351    1        2.881154572745      14.511309844985      23.803824044216
       352    1       10.310944998505      25.064988868765      15.772474669534
       353    1        9.176424883909      23.503044569755      21.107359630610
       354    1        4.015675056720      16.073254143995      18.468939083140
       355    1        4.015675056720      16.906994784130      25.064988868765
       356    1        9.176424883909      22.669303929620      14.511309844985
       357    1        2.580374728905      22.669303929620      18.468939083140
       358    1       10.611724472966      16.906994784130      21.107359630610
       359    1       10.611724472966      16.073254143995      14.511309844985
       360    1        2.580374728905      23.503044569755      25.064988868765
       361    1        5.878399621717      24.405384523423      19.371279036808
       362    1        7.313699580154      15.170914190327      20.205019676942
       363    1        0.717650163908      15.170914190327      25.967328822433
       364    1       12.474449776721      24.405384523423      13.608969891317
       365    1       12.474449776721      21.766963975952      20.205019676942
       366    1        0.717650163908      17.809334737798      19.371279036808
       367    1        7.313699580154      17.809334737798      13.608969891317
       368    1        5.878399621717      21.766963975952      25.967328822433
       369    1        4.617234770785      13.608969891317      20.505799151404