 # LLZO_Ia3d_Al00_partial_00.vasp
 
        1536  atoms
           4  atom types
 
      0.000000000000      25.988079020000  xlo xhi
      0.000000000000      25.988079020000  ylo yhi
      0.000000000000      25.988079020000  zlo zhi
 
Masses
 
            1   15.99900000             # O
            2   138.90547000            # La
            3   91.22400000             # Zr
            4   6.94000000              # Li
 
Atoms # atomic
 
         1    1        1.309307029206       2.561004550279       3.687008494318
         2    1       11.783762712946      10.532065113315       9.406061535882
         3    1        5.237228090638      10.532065113315      10.233543509418
         4    1        7.855842332354       2.561004550279       2.859526520782
         5    1       11.783762712946       9.107539931985       2.859526520782
         6    1        1.309307029206       3.985530464821      10.233543509418
         7    1        7.855842332354       3.985530464821       9.406061535882
         8    1        5.237228090638       9.107539931985       3.687008494318
         9    1        3.687008494318       1.309307029206       2.561004550279
        10    1        9.406061535882      11.783762712946      10.532065113315
        11    1       10.233543509418       5.237228090638      10.532065113315
        12    1        2.859526520782       7.855842332354       2.561004550279
        13    1        2.859526520782      11.783762712946       9.107539931985
        14    1       10.233543509418       1.309307029206       3.985530464821
        15    1        9.406061535882       7.855842332354       3.985530464821
        16    1        3.687008494318       5.237228090638       9.107539931985
        17    1        2.561004550279       3.687008494318       1.309307029206
        18    1       10.532065113315       9.406061535882      11.783762712946
        19    1       10.532065113315      10.233543509418       5.237228090638
        20    1        2.561004550279       2.859526520782       7.855842332354
        21    1        9.107539931985       2.859526520782      11.783762712946
        22    1        3.985530464821      10.233543509418       1.309307029206
        23    1        3.985530464821       9.406061535882       7.855842332354
        24    1        9.107539931985       3.687008494318       5.237228090638
        25    1       12.380807439535       4.582574432012      12.679329043432
        26    1        0.712262957271       8.510495205396       0.413740986768
        27    1        7.258797605765       8.510495205396       6.132794028332
        28    1        5.834272057829       4.582574432012       6.960276001868
        29    1        5.834272057829       1.963960583088       0.413740986768
        30    1        7.258797605765      11.129109839904      12.679329043432
        31    1        0.712262957271      11.129109839904       6.960276001868
        32    1       12.380807439535       1.963960583088       6.132794028332
        33    1       11.129109839904       6.960276001868       0.712262957271
        34    1        1.963960583088       6.132794028332      12.380807439535
        35    1        1.963960583088       0.413740986768       5.834272057829
        36    1       11.129109839904      12.679329043432       7.258797605765
        37    1        8.510495205396       6.132794028332       7.258797605765
        38    1        4.582574432012       6.960276001868       5.834272057829
        39    1        4.582574432012      12.679329043432      12.380807439535
        40    1        8.510495205396       0.413740986768       0.712262957271
        41    1        0.413740986768       5.834272057829       1.963960583088
        42    1       12.679329043432       7.258797605765      11.129109839904
        43    1        6.960276001868       0.712262957271      11.129109839904
        44    1        6.132794028332      12.380807439535       1.963960583088
        45    1       12.679329043432      12.380807439535       4.582574432012
        46    1        0.413740986768       0.712262957271       8.510495205396
        47    1        6.132794028332       7.258797605765       8.510495205396
        48    1        6.960276001868       5.834272057829       4.582574432012
        49    1        7.855842332354       9.107539931985      10.233543509418
        50    1        5.237228090638       3.985530464821       2.859526520782
        51    1       11.783762712946       3.985530464821       3.687008494318
        52    1        1.309307029206       9.107539931985       9.406061535882
        53    1        5.237228090638       2.561004550279       9.406061535882
        54    1        7.855842332354      10.532065113315       3.687008494318
        55    1        1.309307029206      10.532065113315       2.859526520782
        56    1       11.783762712946       2.561004550279      10.233543509418
        57    1       10.233543509418       7.855842332354       9.107539931985
        58    1        2.859526520782       5.237228090638       3.985530464821
        59    1        3.687008494318      11.783762712946       3.985530464821
        60    1        9.406061535882       1.309307029206       9.107539931985
        61    1        9.406061535882       5.237228090638       2.561004550279
        62    1        3.687008494318       7.855842332354      10.532065113315
        63    1        2.859526520782       1.309307029206      10.532065113315
        64    1       10.233543509418      11.783762712946       2.561004550279
        65    1        9.107539931985      10.233543509418       7.855842332354
        66    1        3.985530464821       2.859526520782       5.237228090638
        67    1        3.985530464821       3.687008494318      11.783762712946
        68    1        9.107539931985       9.406061535882       1.309307029206
        69    1        2.561004550279       9.406061535882       5.237228090638
        70    1       10.532065113315       3.687008494318       7.855842332354
        71    1       10.532065113315       2.859526520782       1.309307029206
        72    1        2.561004550279      10.233543509418      11.783762712946
        73    1        5.834272057829      11.129109839904       6.132794028332
        74    1        7.258797605765       1.963960583088       6.960276001868
        75    1        0.712262957271       1.963960583088      12.679329043432
        76    1       12.380807439535      11.129109839904       0.413740986768
        77    1       12.380807439535       8.510495205396       6.960276001868
        78    1        0.712262957271       4.582574432012       6.132794028332
        79    1        7.258797605765       4.582574432012       0.413740986768
        80    1        5.834272057829       8.510495205396      12.679329043432
        81    1        4.582574432012       0.413740986768       7.258797605765
        82    1        8.510495205396      12.679329043432       5.834272057829
        83    1        8.510495205396       6.960276001868      12.380807439535
        84    1        4.582574432012       6.132794028332       0.712262957271
        85    1        1.963960583088      12.679329043432       0.712262957271
        86    1       11.129109839904       0.413740986768      12.380807439535
        87    1       11.129109839904       6.132794028332       5.834272057829
        88    1        1.963960583088       6.960276001868       7.258797605765
        89    1        6.960276001868      12.380807439535       8.510495205396
        90    1        6.132794028332       0.712262957271       4.582574432012
        91    1        0.413740986768       7.258797605765       4.582574432012
        92    1       12.679329043432       5.834272057829       8.510495205396
        93    1        6.132794028332       5.834272057829      11.129109839904
        94    1        6.960276001868       7.258797605765       1.963960583088
        95    1       12.679329043432       0.712262957271       1.963960583088
        96    1        0.413740986768      12.380807439535      11.129109839904
        97    1        1.309307029206       2.561004550279      16.780078524518
        98    1       11.783762712946      10.532065113315      22.499131566082
        99    1        5.237228090638      10.532065113315      23.326613539618
       100    1        7.855842332354       2.561004550279      15.952596550982
       101    1       11.783762712946       9.107539931985      15.952596550982
       102    1        1.309307029206       3.985530464821      23.326613539618
       103    1        7.855842332354       3.985530464821      22.499131566082
       104    1        5.237228090638       9.107539931985      16.780078524518
       105    1        3.687008494318       1.309307029206      15.654074947085
       106    1        9.406061535882      11.783762712946      23.625135143515
       107    1       10.233543509418       5.237228090638      23.625135143515
       108    1        2.859526520782       7.855842332354      15.654074947085
       109    1        2.859526520782      11.783762712946      22.200609962185
       110    1       10.233543509418       1.309307029206      17.078600128415
       111    1        9.406061535882       7.855842332354      17.078600128415
       112    1        3.687008494318       5.237228090638      22.200609962185
       113    1        2.561004550279       3.687008494318      14.402377347454
       114    1       10.532065113315       9.406061535882      24.876832743146
       115    1       10.532065113315      10.233543509418      18.330297728046
       116    1        2.561004550279       2.859526520782      20.948912362554
       117    1        9.107539931985       2.859526520782      24.876832743146
       118    1        3.985530464821      10.233543509418      14.402377347454
       119    1        3.985530464821       9.406061535882      20.948912362554
       120    1        9.107539931985       3.687008494318      18.330297728046
       121    1       12.380807439535       4.582574432012      25.772399073632
       122    1        0.712262957271       8.510495205396      13.506811016968
       123    1        7.258797605765       8.510495205396      19.225864058532
       124    1        5.834272057829       4.582574432012      20.053346032068
       125    1        5.834272057829       1.963960583088      13.506811016968
       126    1        7.258797605765      11.129109839904      25.772399073632
       127    1        0.712262957271      11.129109839904      20.053346032068
       128    1       12.380807439535       1.963960583088      19.225864058532
       129    1       11.129109839904       6.960276001868      13.805332620865
       130    1        1.963960583088       6.132794028332      25.473877469735
       131    1        1.963960583088       0.413740986768      18.927342454635
       132    1       11.129109839904      12.679329043432      20.351867635965
       133    1        8.510495205396       6.132794028332      20.351867635965
       134    1        4.582574432012       6.960276001868      18.927342454635
       135    1        4.582574432012      12.679329043432      25.473877469735
       136    1        8.510495205396       0.413740986768      13.805332620865
       137    1        0.413740986768       5.834272057829      15.057030220496
       138    1       12.679329043432       7.258797605765      24.222179870104
       139    1        6.960276001868       0.712262957271      24.222179870104
       140    1        6.132794028332      12.380807439535      15.057030220496
       141    1       12.679329043432      12.380807439535      17.675644855004
       142    1        0.413740986768       0.712262957271      21.603565235596
       143    1        6.132794028332       7.258797605765      21.603565235596
       144    1        6.960276001868       5.834272057829      17.675644855004
       145    1        7.855842332354       9.107539931985      23.326613539618
       146    1        5.237228090638       3.985530464821      15.952596550982
       147    1       11.783762712946       3.985530464821      16.780078524518
       148    1        1.309307029206       9.107539931985      22.499131566082
       149    1        5.237228090638       2.561004550279      22.499131566082
       150    1        7.855842332354      10.532065113315      16.780078524518
       151    1        1.309307029206      10.532065113315      15.952596550982
       152    1       11.783762712946       2.561004550279      23.326613539618
       153    1       10.233543509418       7.855842332354      22.200609962185
       154    1        2.859526520782       5.237228090638      17.078600128415
       155    1        3.687008494318      11.783762712946      17.078600128415
       156    1        9.406061535882       1.309307029206      22.200609962185
       157    1        9.406061535882       5.237228090638      15.654074947085
       158    1        3.687008494318       7.855842332354      23.625135143515
       159    1        2.859526520782       1.309307029206      23.625135143515
       160    1       10.233543509418      11.783762712946      15.654074947085
       161    1        9.107539931985      10.233543509418      20.948912362554
       162    1        3.985530464821       2.859526520782      18.330297728046
       163    1        3.985530464821       3.687008494318      24.876832743146
       164    1        9.107539931985       9.406061535882      14.402377347454
       165    1        2.561004550279       9.406061535882      18.330297728046
       166    1       10.532065113315       3.687008494318      20.948912362554
       167    1       10.532065113315       2.859526520782      14.402377347454
       168    1        2.561004550279      10.233543509418      24.876832743146
       169    1        5.834272057829      11.129109839904      19.225864058532
       170    1        7.258797605765       1.963960583088      20.053346032068
       171    1        0.712262957271       1.963960583088      25.772399073632
       172    1       12.380807439535      11.129109839904      13.506811016968
       173    1       12.380807439535       8.510495205396      20.053346032068
       174    1        0.712262957271       4.582574432012      19.225864058532
       175    1        7.258797605765       4.582574432012      13.506811016968
       176    1        5.834272057829       8.510495205396      25.772399073632
       177    1        4.582574432012       0.413740986768      20.351867635965
       178    1        8.510495205396      12.679329043432      18.927342454635
       179    1        8.510495205396       6.960276001868      25.473877469735
       180    1        4.582574432012       6.132794028332      13.805332620865
       181    1        1.963960583088      12.679329043432      13.805332620865
       182    1       11.129109839904       0.413740986768      25.473877469735
       183    1       11.129109839904       6.132794028332      18.927342454635
       184    1        1.963960583088       6.960276001868      20.351867635965
       185    1        6.960276001868      12.380807439535      21.603565235596
       186    1        6.132794028332       0.712262957271      17.675644855004
       187    1        0.413740986768       7.258797605765      17.675644855004
       188    1       12.679329043432       5.834272057829      21.603565235596
       189    1        6.132794028332       5.834272057829      24.222179870104
       190    1        6.960276001868       7.258797605765      15.057030220496
       191    1       12.679329043432       0.712262957271      15.057030220496
       192    1        0.413740986768      12.380807439535      24.222179870104
       193    1        1.309307029206      15.654074947085       3.687008494318
       194    1       11.783762712946      23.625135143515       9.406061535882
       195    1        5.237228090638      23.625135143515      10.233543509418
       196    1        7.855842332354      15.654074947085       2.859526520782
       197    1       11.783762712946      22.200609962185       2.859526520782
       198    1        1.309307029206      17.078600128415      10.233543509418
       199    1        7.855842332354      17.078600128415       9.406061535882
       200    1        5.237228090638      22.200609962185       3.687008494318
       201    1        3.687008494318      14.402377347454       2.561004550279
       202    1        9.406061535882      24.876832743146      10.532065113315
       203    1       10.233543509418      18.330297728046      10.532065113315
       204    1        2.859526520782      20.948912362554       2.561004550279
       205    1        2.859526520782      24.876832743146       9.107539931985
       206    1       10.233543509418      14.402377347454       3.985530464821
       207    1        9.406061535882      20.948912362554       3.985530464821
       208    1        3.687008494318      18.330297728046       9.107539931985
       209    1        2.561004550279      16.780078524518       1.309307029206
       210    1       10.532065113315      22.499131566082      11.783762712946
       211    1       10.532065113315      23.326613539618       5.237228090638
       212    1        2.561004550279      15.952596550982       7.855842332354
       213    1        9.107539931985      15.952596550982      11.783762712946
       214    1        3.985530464821      23.326613539618       1.309307029206
       215    1        3.985530464821      22.499131566082       7.855842332354
       216    1        9.107539931985      16.780078524518       5.237228090638
       217    1       12.380807439535      17.675644855004      12.679329043432
       218    1        0.712262957271      21.603565235596       0.413740986768
       219    1        7.258797605765      21.603565235596       6.132794028332
       220    1        5.834272057829      17.675644855004       6.960276001868
       221    1        5.834272057829      15.057030220496       0.413740986768
       222    1        7.258797605765      24.222179870104      12.679329043432
       223    1        0.712262957271      24.222179870104       6.960276001868
       224    1       12.380807439535      15.057030220496       6.132794028332
       225    1       11.129109839904      20.053346032068       0.712262957271
       226    1        1.963960583088      19.225864058532      12.380807439535
       227    1        1.963960583088      13.506811016968       5.834272057829
       228    1       11.129109839904      25.772399073632       7.258797605765
       229    1        8.510495205396      19.225864058532       7.258797605765
       230    1        4.582574432012      20.053346032068       5.834272057829
       231    1        4.582574432012      25.772399073632      12.380807439535
       232    1        8.510495205396      13.506811016968       0.712262957271
       233    1        0.413740986768      18.927342454635       1.963960583088
       234    1       12.679329043432      20.351867635965      11.129109839904
       235    1        6.960276001868      13.805332620865      11.129109839904
       236    1        6.132794028332      25.473877469735       1.963960583088
       237    1       12.679329043432      25.473877469735       4.582574432012
       238    1        0.413740986768      13.805332620865       8.510495205396
       239    1        6.132794028332      20.351867635965       8.510495205396
       240    1        6.960276001868      18.927342454635       4.582574432012
       241    1        7.855842332354      22.200609962185      10.233543509418
       242    1        5.237228090638      17.078600128415       2.859526520782
       243    1       11.783762712946      17.078600128415       3.687008494318
       244    1        1.309307029206      22.200609962185       9.406061535882
       245    1        5.237228090638      15.654074947085       9.406061535882
       246    1        7.855842332354      23.625135143515       3.687008494318
       247    1        1.309307029206      23.625135143515       2.859526520782
       248    1       11.783762712946      15.654074947085      10.233543509418
       249    1       10.233543509418      20.948912362554       9.107539931985
       250    1        2.859526520782      18.330297728046       3.985530464821
       251    1        3.687008494318      24.876832743146       3.985530464821
       252    1        9.406061535882      14.402377347454       9.107539931985
       253    1        9.406061535882      18.330297728046       2.561004550279
       254    1        3.687008494318      20.948912362554      10.532065113315
       255    1        2.859526520782      14.402377347454      10.532065113315
       256    1       10.233543509418      24.876832743146       2.561004550279
       257    1        9.107539931985      23.326613539618       7.855842332354
       258    1        3.985530464821      15.952596550982       5.237228090638
       259    1        3.985530464821      16.780078524518      11.783762712946
       260    1        9.107539931985      22.499131566082       1.309307029206
       261    1        2.561004550279      22.499131566082       5.237228090638
       262    1       10.532065113315      16.780078524518       7.855842332354
       263    1       10.532065113315      15.952596550982       1.309307029206
       264    1        2.561004550279      23.326613539618      11.783762712946
       265    1        5.834272057829      24.222179870104       6.132794028332
       266    1        7.258797605765      15.057030220496       6.960276001868
       267    1        0.712262957271      15.057030220496      12.679329043432
       268    1       12.380807439535      24.222179870104       0.413740986768
       269    1       12.380807439535      21.603565235596       6.960276001868
       270    1        0.712262957271      17.675644855004       6.132794028332
       271    1        7.258797605765      17.675644855004       0.413740986768
       272    1        5.834272057829      21.603565235596      12.679329043432
       273    1        4.582574432012      13.506811016968       7.258797605765
       274    1        8.510495205396      25.772399073632       5.834272057829
       275    1        8.510495205396      20.053346032068      12.380807439535
       276    1        4.582574432012      19.225864058532       0.712262957271
       277    1        1.963960583088      25.772399073632       0.712262957271
       278    1       11.129109839904      13.506811016968      12.380807439535
       279    1       11.129109839904      19.225864058532       5.834272057829
       280    1        1.963960583088      20.053346032068       7.258797605765
       281    1        6.960276001868      25.473877469735       8.510495205396
       282    1        6.132794028332      13.805332620865       4.582574432012
       283    1        0.413740986768      20.351867635965       4.582574432012
       284    1       12.679329043432      18.927342454635       8.510495205396
       285    1        6.132794028332      18.927342454635      11.129109839904
       286    1        6.960276001868      20.351867635965       1.963960583088
       287    1       12.679329043432      13.805332620865       1.963960583088
       288    1        0.413740986768      25.473877469735      11.129109839904
       289    1        1.309307029206      15.654074947085      16.780078524518
       290    1       11.783762712946      23.625135143515      22.499131566082
       291    1        5.237228090638      23.625135143515      23.326613539618
       292    1        7.855842332354      15.654074947085      15.952596550982
       293    1       11.783762712946      22.200609962185      15.952596550982
       294    1        1.309307029206      17.078600128415      23.326613539618
       295    1        7.855842332354      17.078600128415      22.499131566082
       296    1        5.237228090638      22.200609962185      16.780078524518
       297    1        3.687008494318      14.402377347454      15.654074947085
       298    1        9.406061535882      24.876832743146      23.625135143515
       299    1       10.233543509418      18.330297728046      23.625135143515
       300    1        2.859526520782      20.948912362554      15.654074947085
       301    1        2.859526520782      24.876832743146      22.200609962185
       302    1       10.233543509418      14.402377347454      17.078600128415
       303    1        9.406061535882      20.948912362554      17.078600128415
       304    1        3.687008494318      18.330297728046      22.200609962185
       305    1        2.561004550279      16.780078524518      14.402377347454
       306    1       10.532065113315      22.499131566082      24.876832743146
       307    1       10.532065113315      23.326613539618      18.330297728046
       308    1        2.561004550279      15.952596550982      20.948912362554
       309    1        9.107539931985      15.952596550982      24.876832743146
       310    1        3.985530464821      23.326613539618      14.402377347454
       311    1        3.985530464821      22.499131566082      20.948912362554
       312    1        9.107539931985      16.780078524518      18.330297728046
       313    1       12.380807439535      17.675644855004      25.772399073632
       314    1        0.712262957271      21.603565235596      13.506811016968
       315    1        7.258797605765      21.603565235596      19.225864058532
       316    1        5.834272057829      17.675644855004      20.053346032068
       317    1        5.834272057829      15.057030220496      13.506811016968
       318    1        7.258797605765      24.222179870104      25.772399073632
       319    1        0.712262957271      24.222179870104      20.053346032068
       320    1       12.380807439535      15.057030220496      19.225864058532
       321    1       11.129109839904      20.053346032068      13.805332620865
       322    1        1.963960583088      19.225864058532      25.473877469735
       323    1        1.963960583088      13.506811016968      18.927342454635
       324    1       11.129109839904      25.772399073632      20.351867635965
       325    1        8.510495205396      19.225864058532      20.351867635965
       326    1        4.582574432012      20.053346032068      18.927342454635
       327    1        4.582574432012      25.772399073632      25.473877469735
       328    1        8.510495205396      13.506811016968      13.805332620865
       329    1        0.413740986768      18.927342454635      15.057030220496
       330    1       12.679329043432      20.351867635965      24.222179870104
       331    1        6.960276001868      13.805332620865      24.222179870104
       332    1        6.132794028332      25.473877469735      15.057030220496
       333    1       12.679329043432      25.473877469735      17.675644855004
       334    1        0.413740986768      13.805332620865      21.603565235596
       335    1        6.132794028332      20.351867635965      21.603565235596
       336    1        6.960276001868      18.927342454635      17.675644855004
       337    1        7.855842332354      22.200609962185      23.326613539618
       338    1        5.237228090638      17.078600128415      15.952596550982
       339    1       11.783762712946      17.078600128415      16.780078524518
       340    1        1.309307029206      22.200609962185      22.499131566082
       341    1        5.237228090638      15.654074947085      22.499131566082
       342    1        7.855842332354      23.625135143515      16.780078524518
       343    1        1.309307029206      23.625135143515      15.952596550982
       344    1       11.783762712946      15.654074947085      23.326613539618
       345    1       10.233543509418      20.948912362554      22.200609962185
       346    1        2.859526520782      18.330297728046      17.078600128415
       347    1        3.687008494318      24.876832743146      17.078600128415
       348    1        9.406061535882      14.402377347454      22.200609962185
       349    1        9.406061535882      18.330297728046      15.654074947085
       350    1        3.687008494318      20.948912362554      23.625135143515
       351    1        2.859526520782      14.402377347454      23.625135143515
       352    1       10.233543509418      24.876832743146      15.654074947085
       353    1        9.107539931985      23.326613539618      20.948912362554
       354    1        3.985530464821      15.952596550982      18.330297728046
       355    1        3.985530464821      16.780078524518      24.876832743146
       356    1        9.107539931985      22.499131566082      14.402377347454
       357    1        2.561004550279      22.499131566082      18.330297728046
       358    1       10.532065113315      16.780078524518      20.948912362554
       359    1       10.532065113315      15.952596550982      14.402377347454
       360    1        2.561004550279      23.326613539618      24.876832743146
       361    1        5.834272057829      24.222179870104      19.225864058532
       362    1        7.258797605765      15.057030220496      20.053346032068
       363    1        0.712262957271      15.057030220496      25.772399073632
       364    1       12.380807439535      24.222179870104      13.506811016968
       365    1       12.380807439535      21.603565235596      20.053346032068
       366    1        0.712262957271      17.675644855004      19.225864058532
       367    1        7.258797605765      17.675644855004      13.506811016968
       368    1        5.834272057829      21.603565235596      25.772399073632
       369    1        4.582574432012      13.506811016968      20.351867635965