 192 192   0   0
  0.1135071E+02  0.1296520E-08  0.1296500E-08  0.1296500E-08  0.2000000E-14
   1500.00000000000     
  CAR 
 unknown system                          
     12.74855263    -45.47128030  301      6.55056625      1.00000000
    -45.471  0.0000E+00  0.0000E+00
    -45.277  0.0000E+00  0.0000E+00
    -45.083  0.0000E+00  0.0000E+00
    -44.889  0.0000E+00  0.0000E+00
    -44.695  0.0000E+00  0.0000E+00
    -44.501  0.0000E+00  0.0000E+00
    -44.307  0.0000E+00  0.0000E+00
    -44.113  0.0000E+00  0.0000E+00
    -43.919  0.4700E-13  0.9146E-14
    -43.725  0.9685E-09  0.1885E-09
    -43.531  0.3163E-05  0.6160E-06
    -43.337  0.1677E-02  0.3271E-03
    -43.142  0.1514E+00  0.2980E-01
    -42.948  0.2564E+01  0.5290E+00
    -42.754  0.1004E+02  0.2482E+01
    -42.560  0.1514E+02  0.5426E+01
    -42.366  0.1899E+02  0.9120E+01
    -42.172  0.2306E+02  0.1361E+02
    -41.978  0.2467E+02  0.1841E+02
    -41.784  0.2293E+02  0.2288E+02
    -41.590  0.1850E+02  0.2649E+02
    -41.396  0.1292E+02  0.2901E+02
    -41.202  0.7881E+01  0.3055E+02
    -41.008  0.4212E+01  0.3138E+02
    -40.814  0.1954E+01  0.3176E+02
    -40.620  0.8075E+00  0.3192E+02
    -40.426  0.3030E+00  0.3198E+02
    -40.231  0.8687E-01  0.3200E+02
    -40.037  0.1699E-01  0.3200E+02
    -39.843  0.2021E-02  0.3200E+02
    -39.649  0.8668E-04  0.3200E+02
    -39.455  0.8541E-06  0.3200E+02
    -39.261  0.1529E-08  0.3200E+02
    -39.067  0.4464E-12  0.3200E+02
    -38.873  0.2009E-16  0.3200E+02
    -38.679  0.0000E+00  0.3200E+02
    -38.485  0.0000E+00  0.3200E+02
    -38.291  0.0000E+00  0.3200E+02
    -38.097  0.0000E+00  0.3200E+02
    -37.903  0.0000E+00  0.3200E+02
    -37.709  0.0000E+00  0.3200E+02
    -37.515  0.0000E+00  0.3200E+02
    -37.321  0.0000E+00  0.3200E+02
    -37.126  0.0000E+00  0.3200E+02
    -36.932  0.0000E+00  0.3200E+02
    -36.738  0.0000E+00  0.3200E+02
    -36.544  0.0000E+00  0.3200E+02
    -36.350  0.0000E+00  0.3200E+02
    -36.156  0.0000E+00  0.3200E+02
    -35.962  0.0000E+00  0.3200E+02
    -35.768  0.0000E+00  0.3200E+02
    -35.574  0.0000E+00  0.3200E+02
    -35.380  0.0000E+00  0.3200E+02
    -35.186  0.0000E+00  0.3200E+02
    -34.992  0.0000E+00  0.3200E+02
    -34.798  0.0000E+00  0.3200E+02
    -34.604  0.0000E+00  0.3200E+02
    -34.410  0.0000E+00  0.3200E+02
    -34.215  0.0000E+00  0.3200E+02
    -34.021  0.0000E+00  0.3200E+02
    -33.827  0.0000E+00  0.3200E+02
    -33.633  0.0000E+00  0.3200E+02
    -33.439  0.0000E+00  0.3200E+02
    -33.245  0.0000E+00  0.3200E+02
    -33.051  0.0000E+00  0.3200E+02
    -32.857  0.0000E+00  0.3200E+02
    -32.663  0.0000E+00  0.3200E+02
    -32.469  0.0000E+00  0.3200E+02
    -32.275  0.0000E+00  0.3200E+02
    -32.081  0.0000E+00  0.3200E+02
    -31.887  0.0000E+00  0.3200E+02
    -31.693  0.0000E+00  0.3200E+02
    -31.499  0.0000E+00  0.3200E+02
    -31.304  0.0000E+00  0.3200E+02
    -31.110  0.0000E+00  0.3200E+02
    -30.916  0.0000E+00  0.3200E+02
    -30.722  0.0000E+00  0.3200E+02
    -30.528  0.0000E+00  0.3200E+02
    -30.334  0.0000E+00  0.3200E+02
    -30.140  0.0000E+00  0.3200E+02
    -29.946  0.0000E+00  0.3200E+02
    -29.752  0.0000E+00  0.3200E+02
    -29.558  0.0000E+00  0.3200E+02
    -29.364  0.0000E+00  0.3200E+02
    -29.170  0.0000E+00  0.3200E+02
    -28.976  0.0000E+00  0.3200E+02
    -28.782  0.0000E+00  0.3200E+02
    -28.588  0.0000E+00  0.3200E+02
    -28.393  0.0000E+00  0.3200E+02
    -28.199  0.0000E+00  0.3200E+02
    -28.005  0.2175E-16  0.3200E+02
    -27.811  0.4250E-12  0.3200E+02
    -27.617  0.1339E-08  0.3200E+02
    -27.423  0.7024E-06  0.3200E+02
    -27.229  0.6446E-04  0.3200E+02
    -27.035  0.1139E-02  0.3200E+02
    -26.841  0.4907E-02  0.3200E+02
    -26.647  0.1271E-01  0.3200E+02
    -26.453  0.5421E-01  0.3201E+02
    -26.259  0.2030E+00  0.3205E+02
    -26.065  0.6641E+00  0.3218E+02
    -25.871  0.2044E+01  0.3258E+02
    -25.677  0.5200E+01  0.3359E+02
    -25.482  0.1094E+02  0.3572E+02
    -25.288  0.1924E+02  0.3946E+02
    -25.094  0.2883E+02  0.4507E+02
    -24.900  0.3695E+02  0.5227E+02
    -24.706  0.3991E+02  0.6004E+02
    -24.512  0.3646E+02  0.6715E+02
    -24.318  0.2832E+02  0.7268E+02
    -24.124  0.1875E+02  0.7634E+02
    -23.930  0.1052E+02  0.7839E+02
    -23.736  0.5094E+01  0.7939E+02
    -23.542  0.2143E+01  0.7981E+02
    -23.348  0.7404E+00  0.7995E+02
    -23.154  0.1993E+00  0.7999E+02
    -22.960  0.3887E-01  0.8000E+02
    -22.766  0.4872E-02  0.8000E+02
    -22.571  0.2715E-03  0.8000E+02
    -22.377  0.3958E-05  0.8000E+02
    -22.183  0.3705E-05  0.8000E+02
    -21.989  0.6446E-03  0.8000E+02
    -21.795  0.2771E-01  0.8001E+02
    -21.601  0.4151E+00  0.8009E+02
    -21.407  0.3183E+01  0.8071E+02
    -21.213  0.1385E+02  0.8341E+02
    -21.019  0.3393E+02  0.9001E+02
    -20.825  0.5537E+02  0.1008E+03
    -20.631  0.7449E+02  0.1153E+03
    -20.437  0.8566E+02  0.1320E+03
    -20.243  0.8200E+02  0.1479E+03
    -20.049  0.6453E+02  0.1605E+03
    -19.855  0.4181E+02  0.1687E+03
    -19.660  0.2236E+02  0.1731E+03
    -19.466  0.9920E+01  0.1750E+03
    -19.272  0.3675E+01  0.1757E+03
    -19.078  0.1137E+01  0.1759E+03
    -18.884  0.2795E+00  0.1760E+03
    -18.690  0.4509E-01  0.1760E+03
    -18.496  0.3363E-02  0.1760E+03
    -18.302  0.7746E-04  0.1760E+03
    -18.108  0.4002E-06  0.1760E+03
    -17.914  0.3828E-09  0.1760E+03
    -17.720  0.6120E-13  0.1760E+03
    -17.526  0.1129E-17  0.1760E+03
    -17.332  0.0000E+00  0.1760E+03
    -17.138  0.0000E+00  0.1760E+03
    -16.944  0.0000E+00  0.1760E+03
    -16.749  0.0000E+00  0.1760E+03
    -16.555  0.0000E+00  0.1760E+03
    -16.361  0.0000E+00  0.1760E+03
    -16.167  0.0000E+00  0.1760E+03
    -15.973  0.0000E+00  0.1760E+03
    -15.779  0.0000E+00  0.1760E+03
    -15.585  0.0000E+00  0.1760E+03
    -15.391  0.1145E-18  0.1760E+03
    -15.197  0.3659E-14  0.1760E+03
    -15.003  0.2761E-10  0.1760E+03
    -14.809  0.3499E-07  0.1760E+03
    -14.615  0.7945E-05  0.1760E+03
    -14.421  0.3758E-03  0.1760E+03
    -14.227  0.5139E-02  0.1760E+03
    -14.033  0.2980E-01  0.1760E+03
    -13.839  0.9116E-01  0.1760E+03
    -13.644  0.2368E+00  0.1761E+03
    -13.450  0.6496E+00  0.1762E+03
    -13.256  0.1792E+01  0.1765E+03
    -13.062  0.4667E+01  0.1775E+03
    -12.868  0.1065E+02  0.1795E+03
    -12.674  0.2073E+02  0.1836E+03
    -12.480  0.3376E+02  0.1901E+03
    -12.286  0.4760E+02  0.1994E+03
    -12.092  0.6033E+02  0.2112E+03
    -11.898  0.7091E+02  0.2250E+03
    -11.704  0.7930E+02  0.2404E+03
    -11.510  0.8540E+02  0.2571E+03
    -11.316  0.8907E+02  0.2744E+03
    -11.122  0.9009E+02  0.2920E+03
    -10.928  0.8794E+02  0.3091E+03
    -10.733  0.8252E+02  0.3252E+03
    -10.539  0.7324E+02  0.3395E+03
    -10.345  0.5924E+02  0.3510E+03
    -10.151  0.4190E+02  0.3592E+03
     -9.957  0.2512E+02  0.3641E+03
     -9.763  0.1277E+02  0.3666E+03
     -9.569  0.6404E+01  0.3678E+03
     -9.375  0.5904E+01  0.3690E+03
     -9.181  0.1217E+02  0.3713E+03
     -8.987  0.2605E+02  0.3764E+03
     -8.793  0.4550E+02  0.3853E+03
     -8.599  0.6467E+02  0.3979E+03
     -8.405  0.7789E+02  0.4130E+03
     -8.211  0.8388E+02  0.4294E+03
     -8.017  0.8407E+02  0.4458E+03
     -7.822  0.8054E+02  0.4615E+03
     -7.628  0.7394E+02  0.4759E+03
     -7.434  0.6344E+02  0.4882E+03
     -7.240  0.4950E+02  0.4979E+03
     -7.046  0.3440E+02  0.5046E+03
     -6.852  0.2085E+02  0.5087E+03
     -6.658  0.1061E+02  0.5107E+03
     -6.464  0.4423E+01  0.5116E+03
     -6.270  0.1562E+01  0.5119E+03
     -6.076  0.4243E+00  0.5120E+03
     -5.882  0.8978E-01  0.5120E+03
     -5.688  0.2000E-01  0.5120E+03
     -5.494  0.2307E-02  0.5120E+03
     -5.300  0.6653E-04  0.5120E+03
     -5.106  0.3645E-06  0.5120E+03
     -4.911  0.3374E-09  0.5120E+03
     -4.717  0.4986E-13  0.5120E+03
     -4.523  0.6807E-18  0.5120E+03
     -4.329  0.0000E+00  0.5120E+03
     -4.135  0.0000E+00  0.5120E+03
     -3.941  0.0000E+00  0.5120E+03
     -3.747  0.0000E+00  0.5120E+03
     -3.553  0.0000E+00  0.5120E+03
     -3.359  0.0000E+00  0.5120E+03
     -3.165  0.0000E+00  0.5120E+03
     -2.971  0.0000E+00  0.5120E+03
     -2.777  0.0000E+00  0.5120E+03
     -2.583  0.0000E+00  0.5120E+03
     -2.389  0.0000E+00  0.5120E+03
     -2.195  0.0000E+00  0.5120E+03
     -2.000  0.0000E+00  0.5120E+03
     -1.806  0.0000E+00  0.5120E+03
     -1.612  0.0000E+00  0.5120E+03
     -1.418  0.0000E+00  0.5120E+03
     -1.224  0.0000E+00  0.5120E+03
     -1.030  0.2270E-18  0.5120E+03
     -0.836  0.9728E-14  0.5120E+03
     -0.642  0.7533E-10  0.5120E+03
     -0.448  0.9739E-07  0.5120E+03
     -0.254  0.2321E-04  0.5120E+03
     -0.060  0.1265E-02  0.5120E+03
      0.134  0.2398E-01  0.5120E+03
      0.328  0.2478E+00  0.5121E+03
      0.522  0.1699E+01  0.5124E+03
      0.716  0.7742E+01  0.5139E+03
      0.911  0.2306E+02  0.5184E+03
      1.105  0.4855E+02  0.5278E+03
      1.299  0.7821E+02  0.5431E+03
      1.493  0.1061E+03  0.5638E+03
      1.687  0.1293E+03  0.5890E+03
      1.881  0.1455E+03  0.6173E+03
      2.075  0.1549E+03  0.6475E+03
      2.269  0.1583E+03  0.6783E+03
      2.463  0.1562E+03  0.7088E+03
      2.657  0.1512E+03  0.7382E+03
      2.851  0.1485E+03  0.7672E+03
      3.045  0.1491E+03  0.7962E+03
      3.239  0.1508E+03  0.8256E+03
      3.433  0.1532E+03  0.8555E+03
      3.627  0.1580E+03  0.8863E+03
      3.822  0.1638E+03  0.9182E+03
      4.016  0.1663E+03  0.9506E+03
      4.210  0.1632E+03  0.9824E+03
      4.404  0.1534E+03  0.1012E+04
      4.598  0.1351E+03  0.1039E+04
      4.792  0.1077E+03  0.1060E+04
      4.986  0.7429E+02  0.1074E+04
      5.180  0.4233E+02  0.1082E+04
      5.374  0.1921E+02  0.1086E+04
      5.568  0.7010E+01  0.1087E+04
      5.762  0.2150E+01  0.1088E+04
      5.956  0.5901E+00  0.1088E+04
      6.150  0.1561E+00  0.1088E+04
      6.344  0.3564E-01  0.1088E+04
      6.538  0.4624E-02  0.1088E+04
      6.733  0.2142E-03  0.1088E+04
      6.927  0.2934E-05  0.1088E+04
      7.121  0.5454E-04  0.1088E+04
      7.315  0.2271E-02  0.1088E+04
      7.509  0.2917E-01  0.1088E+04
      7.703  0.1710E+00  0.1088E+04
      7.897  0.7046E+00  0.1088E+04
      8.091  0.2634E+01  0.1089E+04
      8.285  0.8136E+01  0.1090E+04
      8.479  0.1895E+02  0.1094E+04
      8.673  0.3534E+02  0.1101E+04
      8.867  0.5686E+02  0.1112E+04
      9.061  0.8183E+02  0.1128E+04
      9.255  0.1095E+03  0.1149E+04
      9.449  0.1408E+03  0.1177E+04
      9.643  0.1764E+03  0.1211E+04
      9.838  0.2105E+03  0.1252E+04
     10.032  0.1974E+03  0.1291E+04
     10.226  0.9457E+02  0.1309E+04
     10.420  0.1508E+02  0.1312E+04
     10.614  0.5991E+00  0.1312E+04
     10.808  0.4926E-02  0.1312E+04
     11.002  0.7456E-05  0.1312E+04
     11.196  0.1939E-08  0.1312E+04
     11.390  0.8181E-13  0.1312E+04
     11.584  0.0000E+00  0.1312E+04
     11.778  0.0000E+00  0.1312E+04
     11.972  0.0000E+00  0.1312E+04
     12.166  0.0000E+00  0.1312E+04
     12.360  0.0000E+00  0.1312E+04
     12.554  0.0000E+00  0.1312E+04
     12.749  0.0000E+00  0.1312E+04
     12.79021822    -45.47792616  301      6.58101908      1.00000000
    -45.478  0.0000E+00  0.0000E+00
    -45.284  0.0000E+00  0.0000E+00
    -45.089  0.0000E+00  0.0000E+00
    -44.895  0.0000E+00  0.0000E+00
    -44.701  0.0000E+00  0.0000E+00
    -44.507  0.0000E+00  0.0000E+00
    -44.313  0.0000E+00  0.0000E+00
    -44.118  0.0000E+00  0.0000E+00
    -43.924  0.1029E-16  0.1998E-17
    -43.730  0.2013E-12  0.3910E-13
    -43.536  0.6338E-09  0.1231E-09
    -43.341  0.3321E-06  0.6462E-07
    -43.147  0.3125E-04  0.6134E-05
    -42.953  0.6045E-03  0.1235E-03
    -42.759  0.2865E-02  0.6801E-03
    -42.565  0.4076E-02  0.1472E-02
    -42.370  0.3423E-02  0.2136E-02
    -42.176  0.3879E-02  0.2890E-02
    -41.982  0.6010E-02  0.4057E-02
    -41.788  0.5521E-02  0.5130E-02
    -41.593  0.2392E-02  0.5594E-02
    -41.399  0.1587E-02  0.5903E-02
    -41.205  0.1779E-02  0.6248E-02
    -41.011  0.7099E-03  0.6386E-02
    -40.816  0.7020E-04  0.6400E-02
    -40.622  0.1380E-05  0.6400E-02
    -40.428  0.4729E-08  0.6400E-02
    -40.234  0.2656E-11  0.6400E-02
    -40.040  0.2373E-15  0.6400E-02
    -39.845  0.0000E+00  0.6400E-02
    -39.651  0.0000E+00  0.6400E-02
    -39.457  0.0000E+00  0.6400E-02
    -39.263  0.0000E+00  0.6400E-02
    -39.068  0.0000E+00  0.6400E-02
    -38.874  0.0000E+00  0.6400E-02
    -38.680  0.0000E+00  0.6400E-02
    -38.486  0.0000E+00  0.6400E-02
    -38.292  0.0000E+00  0.6400E-02
    -38.097  0.0000E+00  0.6400E-02
    -37.903  0.0000E+00  0.6400E-02
    -37.709  0.0000E+00  0.6400E-02
    -37.515  0.0000E+00  0.6400E-02
    -37.320  0.0000E+00  0.6400E-02
    -37.126  0.0000E+00  0.6400E-02
    -36.932  0.0000E+00  0.6400E-02
    -36.738  0.0000E+00  0.6400E-02
    -36.543  0.0000E+00  0.6400E-02
    -36.349  0.0000E+00  0.6400E-02
    -36.155  0.0000E+00  0.6400E-02
    -35.961  0.0000E+00  0.6400E-02
    -35.767  0.0000E+00  0.6400E-02
    -35.572  0.0000E+00  0.6400E-02
    -35.378  0.0000E+00  0.6400E-02
    -35.184  0.0000E+00  0.6400E-02
    -34.990  0.0000E+00  0.6400E-02
    -34.795  0.0000E+00  0.6400E-02
    -34.601  0.0000E+00  0.6400E-02
    -34.407  0.0000E+00  0.6400E-02
    -34.213  0.0000E+00  0.6400E-02
    -34.019  0.0000E+00  0.6400E-02
    -33.824  0.0000E+00  0.6400E-02
    -33.630  0.0000E+00  0.6400E-02
    -33.436  0.0000E+00  0.6400E-02
    -33.242  0.0000E+00  0.6400E-02
    -33.047  0.0000E+00  0.6400E-02
    -32.853  0.0000E+00  0.6400E-02
    -32.659  0.0000E+00  0.6400E-02
    -32.465  0.0000E+00  0.6400E-02
    -32.270  0.0000E+00  0.6400E-02
    -32.076  0.0000E+00  0.6400E-02
    -31.882  0.0000E+00  0.6400E-02
    -31.688  0.0000E+00  0.6400E-02
    -31.494  0.0000E+00  0.6400E-02
    -31.299  0.0000E+00  0.6400E-02
    -31.105  0.0000E+00  0.6400E-02
    -30.911  0.0000E+00  0.6400E-02
    -30.717  0.0000E+00  0.6400E-02
    -30.522  0.0000E+00  0.6400E-02
    -30.328  0.0000E+00  0.6400E-02
    -30.134  0.0000E+00  0.6400E-02
    -29.940  0.0000E+00  0.6400E-02
    -29.746  0.0000E+00  0.6400E-02
    -29.551  0.0000E+00  0.6400E-02
    -29.357  0.0000E+00  0.6400E-02
    -29.163  0.0000E+00  0.6400E-02
    -28.969  0.0000E+00  0.6400E-02
    -28.774  0.0000E+00  0.6400E-02
    -28.580  0.0000E+00  0.6400E-02
    -28.386  0.0000E+00  0.6400E-02
    -28.192  0.0000E+00  0.6400E-02
    -27.997  0.0000E+00  0.6400E-02
    -27.803  0.0000E+00  0.6400E-02
    -27.609  0.0000E+00  0.6400E-02
    -27.415  0.0000E+00  0.6400E-02
    -27.221  0.0000E+00  0.6400E-02
    -27.026  0.1459E-15  0.6400E-02
    -26.832  0.1782E-11  0.6400E-02
    -26.638  0.3461E-08  0.6400E-02
    -26.444  0.1100E-05  0.6400E-02
    -26.249  0.6087E-04  0.6412E-02
    -26.055  0.6659E-03  0.6541E-02
    -25.861  0.1818E-02  0.6894E-02
    -25.667  0.2247E-02  0.7331E-02
    -25.473  0.3589E-02  0.8028E-02
    -25.278  0.4307E-02  0.8865E-02
    -25.084  0.6328E-02  0.1009E-01
    -24.890  0.8364E-02  0.1172E-01
    -24.696  0.5874E-02  0.1286E-01
    -24.501  0.4912E-02  0.1381E-01
    -24.307  0.5124E-02  0.1481E-01
    -24.113  0.3136E-02  0.1542E-01
    -23.919  0.1639E-02  0.1574E-01
    -23.724  0.1079E-02  0.1595E-01
    -23.530  0.2671E-03  0.1600E-01
    -23.336  0.1355E-04  0.1600E-01
    -23.142  0.1215E-06  0.1600E-01
    -22.948  0.1809E-09  0.1600E-01
    -22.753  0.4329E-13  0.1600E-01
    -22.559  0.1601E-17  0.1600E-01
    -22.365  0.4687E-17  0.1600E-01
    -22.171  0.1044E-12  0.1600E-01
    -21.976  0.3678E-09  0.1600E-01
    -21.782  0.2121E-06  0.1600E-01
    -21.588  0.2167E-04  0.1600E-01
    -21.394  0.4819E-03  0.1610E-01
    -21.200  0.3323E-02  0.1674E-01
    -21.005  0.9131E-02  0.1852E-01
    -20.811  0.1283E-01  0.2101E-01
    -20.617  0.1525E-01  0.2397E-01
    -20.423  0.1617E-01  0.2711E-01
    -20.228  0.1754E-01  0.3052E-01
    -20.034  0.1144E-01  0.3274E-01
    -19.840  0.5011E-02  0.3371E-01
    -19.646  0.4434E-02  0.3457E-01
    -19.451  0.2712E-02  0.3510E-01
    -19.257  0.4908E-03  0.3520E-01
    -19.063  0.2097E-04  0.3520E-01
    -18.869  0.1805E-06  0.3520E-01
    -18.675  0.2775E-09  0.3520E-01
    -18.480  0.7094E-13  0.3520E-01
    -18.286  0.2744E-17  0.3520E-01
    -18.092  0.0000E+00  0.3520E-01
    -17.898  0.0000E+00  0.3520E-01
    -17.703  0.0000E+00  0.3520E-01
    -17.509  0.0000E+00  0.3520E-01
    -17.315  0.0000E+00  0.3520E-01
    -17.121  0.0000E+00  0.3520E-01
    -16.927  0.0000E+00  0.3520E-01
    -16.732  0.0000E+00  0.3520E-01
    -16.538  0.0000E+00  0.3520E-01
    -16.344  0.0000E+00  0.3520E-01
    -16.150  0.0000E+00  0.3520E-01
    -15.955  0.0000E+00  0.3520E-01
    -15.761  0.0000E+00  0.3520E-01
    -15.567  0.0000E+00  0.3520E-01
    -15.373  0.0000E+00  0.3520E-01
    -15.178  0.0000E+00  0.3520E-01
    -14.984  0.0000E+00  0.3520E-01
    -14.790  0.0000E+00  0.3520E-01
    -14.596  0.0000E+00  0.3520E-01
    -14.402  0.0000E+00  0.3520E-01
    -14.207  0.1378E-14  0.3520E-01
    -14.013  0.1135E-10  0.3520E-01
    -13.819  0.1513E-07  0.3520E-01
    -13.625  0.3406E-05  0.3520E-01
    -13.430  0.1389E-03  0.3523E-01
    -13.236  0.1139E-02  0.3545E-01
    -13.042  0.2354E-02  0.3591E-01
    -12.848  0.3489E-02  0.3658E-01
    -12.654  0.6911E-02  0.3793E-01
    -12.459  0.1057E-01  0.3998E-01
    -12.265  0.1241E-01  0.4239E-01
    -12.071  0.1289E-01  0.4489E-01
    -11.877  0.1283E-01  0.4739E-01
    -11.682  0.1341E-01  0.4999E-01
    -11.488  0.1503E-01  0.5291E-01
    -11.294  0.1693E-01  0.5620E-01
    -11.100  0.1698E-01  0.5949E-01
    -10.905  0.1533E-01  0.6247E-01
    -10.711  0.1361E-01  0.6511E-01
    -10.517  0.1445E-01  0.6792E-01
    -10.323  0.1238E-01  0.7033E-01
    -10.129  0.8628E-02  0.7200E-01
     -9.934  0.4651E-02  0.7291E-01
     -9.740  0.2448E-02  0.7338E-01
     -9.546  0.1859E-02  0.7374E-01
     -9.352  0.3103E-02  0.7435E-01
     -9.157  0.5197E-02  0.7535E-01
     -8.963  0.7601E-02  0.7683E-01
     -8.769  0.1117E-01  0.7900E-01
     -8.575  0.1347E-01  0.8162E-01
     -8.381  0.1547E-01  0.8462E-01
     -8.186  0.1693E-01  0.8791E-01
     -7.992  0.1417E-01  0.9066E-01
     -7.798  0.1220E-01  0.9303E-01
     -7.604  0.1230E-01  0.9542E-01
     -7.409  0.1055E-01  0.9747E-01
     -7.215  0.8884E-02  0.9919E-01
     -7.021  0.6461E-02  0.1004E+00
     -6.827  0.5143E-02  0.1014E+00
     -6.632  0.3191E-02  0.1021E+00
     -6.438  0.1409E-02  0.1023E+00
     -6.244  0.2882E-03  0.1024E+00
     -6.050  0.1415E-04  0.1024E+00
     -5.856  0.1276E-06  0.1024E+00
     -5.661  0.1925E-09  0.1024E+00
     -5.467  0.4676E-13  0.1024E+00
     -5.273  0.1829E-17  0.1024E+00
     -5.079  0.0000E+00  0.1024E+00
     -4.884  0.0000E+00  0.1024E+00
     -4.690  0.0000E+00  0.1024E+00
     -4.496  0.0000E+00  0.1024E+00
     -4.302  0.0000E+00  0.1024E+00
     -4.108  0.0000E+00  0.1024E+00
     -3.913  0.0000E+00  0.1024E+00
     -3.719  0.0000E+00  0.1024E+00
     -3.525  0.0000E+00  0.1024E+00
     -3.331  0.0000E+00  0.1024E+00
     -3.136  0.0000E+00  0.1024E+00
     -2.942  0.0000E+00  0.1024E+00
     -2.748  0.0000E+00  0.1024E+00
     -2.554  0.0000E+00  0.1024E+00
     -2.359  0.0000E+00  0.1024E+00
     -2.165  0.0000E+00  0.1024E+00
     -1.971  0.0000E+00  0.1024E+00
     -1.777  0.0000E+00  0.1024E+00
     -1.583  0.0000E+00  0.1024E+00
     -1.388  0.0000E+00  0.1024E+00
     -1.194  0.0000E+00  0.1024E+00
     -1.000  0.0000E+00  0.1024E+00
     -0.806  0.0000E+00  0.1024E+00
     -0.611  0.0000E+00  0.1024E+00
     -0.417  0.3658E-17  0.1024E+00
     -0.223  0.8692E-13  0.1024E+00
     -0.029  0.3335E-09  0.1024E+00
      0.165  0.2131E-06  0.1024E+00
      0.360  0.2418E-04  0.1024E+00
      0.554  0.5504E-03  0.1025E+00
      0.748  0.3271E-02  0.1031E+00
      0.942  0.8542E-02  0.1048E+00
      1.137  0.1508E-01  0.1077E+00
      1.331  0.1940E-01  0.1115E+00
      1.525  0.2288E-01  0.1159E+00
      1.719  0.2643E-01  0.1211E+00
      1.913  0.2839E-01  0.1266E+00
      2.108  0.2953E-01  0.1323E+00
      2.302  0.3029E-01  0.1382E+00
      2.496  0.2999E-01  0.1440E+00
      2.690  0.2905E-01  0.1497E+00
      2.885  0.2790E-01  0.1551E+00
      3.079  0.2900E-01  0.1607E+00
      3.273  0.3060E-01  0.1667E+00
      3.467  0.3058E-01  0.1726E+00
      3.662  0.3034E-01  0.1785E+00
      3.856  0.3056E-01  0.1844E+00
      4.050  0.3007E-01  0.1903E+00
      4.244  0.2986E-01  0.1961E+00
      4.438  0.2929E-01  0.2018E+00
      4.633  0.2701E-01  0.2070E+00
      4.827  0.2118E-01  0.2111E+00
      5.021  0.1412E-01  0.2139E+00
      5.215  0.9924E-02  0.2158E+00
      5.410  0.5902E-02  0.2169E+00
      5.604  0.2340E-02  0.2174E+00
      5.798  0.8754E-03  0.2176E+00
      5.992  0.1298E-03  0.2176E+00
      6.186  0.3905E-05  0.2176E+00
      6.381  0.2039E-07  0.2176E+00
      6.575  0.1747E-10  0.2176E+00
      6.769  0.2389E-14  0.2176E+00
      6.963  0.0000E+00  0.2176E+00
      7.158  0.5199E-15  0.2176E+00
      7.352  0.5049E-11  0.2176E+00
      7.546  0.7823E-08  0.2176E+00
      7.740  0.1999E-05  0.2176E+00
      7.935  0.9041E-04  0.2176E+00
      8.129  0.8424E-03  0.2178E+00
      8.323  0.2259E-02  0.2182E+00
      8.517  0.3770E-02  0.2190E+00
      8.711  0.7306E-02  0.2204E+00
      8.906  0.1316E-01  0.2229E+00
      9.100  0.1941E-01  0.2267E+00
      9.294  0.2401E-01  0.2314E+00
      9.488  0.2826E-01  0.2368E+00
      9.683  0.3432E-01  0.2435E+00
      9.877  0.4049E-01  0.2514E+00
     10.071  0.3685E-01  0.2585E+00
     10.265  0.1711E-01  0.2619E+00
     10.459  0.2667E-02  0.2624E+00
     10.654  0.1064E-03  0.2624E+00
     10.848  0.9035E-06  0.2624E+00
     11.042  0.1437E-08  0.2624E+00
     11.236  0.3957E-12  0.2624E+00
     11.431  0.1806E-16  0.2624E+00
     11.625  0.0000E+00  0.2624E+00
     11.819  0.0000E+00  0.2624E+00
     12.013  0.0000E+00  0.2624E+00
     12.208  0.0000E+00  0.2624E+00
     12.402  0.0000E+00  0.2624E+00
     12.596  0.0000E+00  0.2624E+00
     12.790  0.0000E+00  0.2624E+00
