       N       E                     dE             d eps       ncg     rms          rms(c)
DAV:   1     0.252339190944E+05    0.25234E+05   -0.42127E+05  1584   0.253E+03
DAV:   2     0.948017356302E+04   -0.15754E+05   -0.14545E+05  1432   0.709E+02
DAV:   3     0.269521544164E+04   -0.67850E+04   -0.61866E+04  1520   0.356E+02
DAV:   4    -0.372981379158E+03   -0.30682E+04   -0.28603E+04  2064   0.226E+02
DAV:   5    -0.141724680879E+04   -0.10443E+04   -0.10066E+04  2536   0.140E+02    0.116E+02
DAV:   6    -0.130147437768E+04    0.11577E+03   -0.14331E+03  2432   0.660E+01    0.504E+01
DAV:   7    -0.132461580537E+04   -0.23141E+02   -0.39793E+02  2560   0.343E+01    0.250E+01
DAV:   8    -0.133330678948E+04   -0.86910E+01   -0.25961E+02  2536   0.274E+01    0.259E+01
DAV:   9    -0.132643383403E+04    0.68730E+01   -0.54041E+01  2504   0.150E+01    0.769E+00
DAV:  10    -0.132734208812E+04   -0.90825E+00   -0.16202E+01  2624   0.809E+00    0.720E+00
DAV:  11    -0.132769284353E+04   -0.35076E+00   -0.57480E+00  2624   0.424E+00    0.427E+00
DAV:  12    -0.132755157056E+04    0.14127E+00   -0.24161E+00  2544   0.350E+00    0.320E+00
DAV:  13    -0.132761349138E+04   -0.61921E-01   -0.95987E-01  2584   0.181E+00    0.226E+00
DAV:  14    -0.132759418215E+04    0.19309E-01   -0.22616E-01  2616   0.103E+00    0.130E+00
DAV:  15    -0.132759522233E+04   -0.10402E-02   -0.11134E-01  2536   0.614E-01    0.932E-01
DAV:  16    -0.132759542899E+04   -0.20666E-03   -0.29974E-02  2616   0.354E-01    0.575E-01
DAV:  17    -0.132759460620E+04    0.82279E-03   -0.23788E-02  2336   0.288E-01    0.380E-01
DAV:  18    -0.132759483338E+04   -0.22717E-03   -0.51378E-03  2376   0.153E-01    0.126E-01
DAV:  19    -0.132759480413E+04    0.29247E-04   -0.20483E-03  2616   0.911E-02    0.127E-01
DAV:  20    -0.132759481296E+04   -0.88340E-05   -0.61885E-04  2576   0.478E-02    0.689E-02
DAV:  21    -0.132759481031E+04    0.26540E-05   -0.33490E-04  2568   0.318E-02    0.405E-02
DAV:  22    -0.132759482645E+04   -0.16137E-04   -0.80970E-05  2600   0.182E-02    0.198E-02
DAV:  23    -0.132759482573E+04    0.71942E-06   -0.29539E-05  2136   0.105E-02    0.121E-02
DAV:  24    -0.132759482745E+04   -0.17253E-05   -0.86166E-06  1096   0.645E-03    0.724E-03
DAV:  25    -0.132759482795E+04   -0.50254E-06   -0.10556E-05  1416   0.660E-03    0.502E-03
DAV:  26    -0.132759482845E+04   -0.49833E-06   -0.22205E-06   984   0.486E-03
   1 F= -.13275948E+04 E0= -.13275906E+04  d E =-.132759E+04
       N       E                     dE             d eps       ncg     rms          rms(c)
DAV:   1    -0.128354672024E+04    0.44048E+02   -0.80687E+03  1744   0.139E+02    0.311E+01
DAV:   2    -0.134939919914E+04   -0.65852E+02   -0.76776E+02  2576   0.636E+01    0.152E+01
DAV:   3    -0.134782802213E+04    0.15712E+01   -0.47336E+01  2624   0.172E+01    0.104E+01
DAV:   4    -0.134534228751E+04    0.24857E+01   -0.15913E+01  2384   0.866E+00    0.489E+00
DAV:   5    -0.134518767815E+04    0.15461E+00   -0.58159E+00  2584   0.513E+00    0.366E+00
DAV:   6    -0.134512193542E+04    0.65743E-01   -0.40777E+00  2584   0.348E+00    0.218E+00
DAV:   7    -0.134505833027E+04    0.63605E-01   -0.58248E-01  2536   0.198E+00    0.112E+00
DAV:   8    -0.134506945634E+04   -0.11126E-01   -0.50073E-01  2600   0.119E+00    0.788E-01
DAV:   9    -0.134507100090E+04   -0.15446E-02   -0.64298E-02  2584   0.558E-01    0.641E-01
DAV:  10    -0.134506508045E+04    0.59205E-02   -0.48813E-02  2520   0.395E-01    0.244E-01
DAV:  11    -0.134506676130E+04   -0.16809E-02   -0.26100E-02  2536   0.294E-01    0.226E-01
DAV:  12    -0.134506675094E+04    0.10357E-04   -0.36217E-03  2560   0.133E-01    0.177E-01
DAV:  13    -0.134506627305E+04    0.47789E-03   -0.35734E-03  2328   0.106E-01    0.368E-02
DAV:  14    -0.134506636062E+04   -0.87574E-04   -0.97159E-04  2408   0.622E-02    0.253E-02
DAV:  15    -0.134506638641E+04   -0.25789E-04   -0.21138E-04  2504   0.270E-02    0.308E-02
DAV:  16    -0.134506637081E+04    0.15601E-04   -0.67144E-05  2552   0.188E-02    0.195E-02
DAV:  17    -0.134506637122E+04   -0.40855E-06   -0.80945E-05  2496   0.150E-02    0.780E-03
DAV:  18    -0.134506637076E+04    0.45421E-06   -0.61153E-06  1392   0.707E-03
   2 F= -.13450664E+04 E0= -.13450664E+04  d E =-.174715E+02
       N       E                     dE             d eps       ncg     rms          rms(c)
DAV:   1    -0.132956782178E+04    0.15499E+02   -0.24778E+03  1448   0.678E+01    0.197E+01
DAV:   2    -0.135710543102E+04   -0.27538E+02   -0.34465E+02  2544   0.308E+01    0.175E+01
DAV:   3    -0.135481552270E+04    0.22899E+01   -0.24656E+01  2584   0.108E+01    0.133E+01
DAV:   4    -0.135326394922E+04    0.15516E+01   -0.27753E+01  2104   0.669E+00    0.649E+00
DAV:   5    -0.135359439118E+04   -0.33044E+00   -0.57276E+00  2296   0.386E+00    0.730E+00
DAV:   6    -0.135266554351E+04    0.92885E+00   -0.99850E+00  2304   0.364E+00    0.167E+00
DAV:   7    -0.135275481655E+04   -0.89273E-01   -0.17044E+00  2288   0.267E+00    0.145E+00
DAV:   8    -0.135274024845E+04    0.14568E-01   -0.47255E-01  2536   0.120E+00    0.686E-01
DAV:   9    -0.135273923866E+04    0.10098E-02   -0.99052E-02  2504   0.602E-01    0.419E-01
DAV:  10    -0.135273965976E+04   -0.42111E-03   -0.33116E-02  2544   0.336E-01    0.219E-01
DAV:  11    -0.135273969817E+04   -0.38409E-04   -0.10327E-02  2592   0.215E-01    0.197E-01
DAV:  12    -0.135273941435E+04    0.28382E-03   -0.55156E-03  2568   0.137E-01    0.110E-01
DAV:  13    -0.135273932910E+04    0.85257E-04   -0.22336E-03  2608   0.886E-02    0.425E-02
DAV:  14    -0.135273934429E+04   -0.15190E-04   -0.41891E-04  2512   0.413E-02    0.198E-02
DAV:  15    -0.135273935199E+04   -0.77073E-05   -0.74509E-05  2624   0.189E-02    0.125E-02
DAV:  16    -0.135273935239E+04   -0.39719E-06   -0.29314E-05  2568   0.111E-02    0.579E-03
DAV:  17    -0.135273935342E+04   -0.10321E-05   -0.80298E-06  1704   0.724E-03    0.342E-03
DAV:  18    -0.135273935343E+04   -0.34925E-08   -0.19825E-06  1040   0.474E-03
   3 F= -.13527394E+04 E0= -.13527394E+04  d E =-.767298E+01
       N       E                     dE             d eps       ncg     rms          rms(c)
DAV:   1    -0.135381668593E+04   -0.10773E+01   -0.49010E+02  1408   0.294E+01    0.667E+00
DAV:   2    -0.135635481134E+04   -0.25381E+01   -0.30141E+01  2312   0.118E+01    0.299E+00
DAV:   3    -0.135638150927E+04   -0.26698E-01   -0.24661E+00  2608   0.316E+00    0.258E+00
DAV:   4    -0.135629010396E+04    0.91405E-01   -0.58754E-01  2560   0.152E+00    0.137E+00
DAV:   5    -0.135626682426E+04    0.23280E-01   -0.23894E-01  2352   0.985E-01    0.778E-01
DAV:   6    -0.135626558158E+04    0.12427E-02   -0.12960E-01  2528   0.718E-01    0.591E-01
DAV:   7    -0.135626385073E+04    0.17309E-02   -0.69969E-02  2448   0.445E-01    0.379E-01
DAV:   8    -0.135626330800E+04    0.54272E-03   -0.15460E-02  2592   0.238E-01    0.211E-01
DAV:   9    -0.135626301652E+04    0.29149E-03   -0.45605E-03  2600   0.130E-01    0.118E-01
DAV:  10    -0.135626325323E+04   -0.23671E-03   -0.38302E-03  2240   0.987E-02    0.120E-01
DAV:  11    -0.135626303930E+04    0.21393E-03   -0.11292E-03  2536   0.686E-02    0.463E-02
DAV:  12    -0.135626307198E+04   -0.32687E-04   -0.86445E-04  2528   0.479E-02    0.365E-02
DAV:  13    -0.135626305892E+04    0.13059E-04   -0.13549E-04  2528   0.248E-02    0.171E-02
DAV:  14    -0.135626306044E+04   -0.15174E-05   -0.52009E-05  2472   0.125E-02    0.713E-03
DAV:  15    -0.135626306076E+04   -0.31681E-06   -0.58846E-06  1400   0.650E-03
   4 F= -.13562631E+04 E0= -.13562631E+04  d E =-.352371E+01
       N       E                     dE             d eps       ncg     rms          rms(c)
DAV:   1    -0.135728130949E+04   -0.10182E+01   -0.21827E+02  1360   0.194E+01    0.316E+00
DAV:   2    -0.135833962923E+04   -0.10583E+01   -0.11288E+01  2264   0.723E+00    0.170E+00
DAV:   3    -0.135834847457E+04   -0.88453E-02   -0.71268E-01  2600   0.151E+00    0.132E+00
DAV:   4    -0.135830651613E+04    0.41958E-01   -0.20511E-01  2448   0.902E-01    0.592E-01
DAV:   5    -0.135830498605E+04    0.15301E-02   -0.73149E-02  2480   0.525E-01    0.420E-01
DAV:   6    -0.135830461103E+04    0.37503E-03   -0.47634E-02  2584   0.366E-01    0.207E-01
DAV:   7    -0.135830445180E+04    0.15923E-03   -0.71758E-03  2496   0.187E-01    0.152E-01
DAV:   8    -0.135830437387E+04    0.77933E-04   -0.44599E-03  2456   0.109E-01    0.641E-02
DAV:   9    -0.135830440300E+04   -0.29136E-04   -0.89103E-04  2608   0.647E-02    0.572E-02
DAV:  10    -0.135830436991E+04    0.33096E-04   -0.47330E-04  2560   0.401E-02    0.208E-02
DAV:  11    -0.135830438304E+04   -0.13137E-04   -0.18795E-04  2568   0.258E-02    0.181E-02
DAV:  12    -0.135830438260E+04    0.43934E-06   -0.27851E-05  2456   0.110E-02    0.123E-02
DAV:  13    -0.135830438127E+04    0.13344E-05   -0.20547E-05  2032   0.853E-03    0.436E-03
DAV:  14    -0.135830438156E+04   -0.29246E-06   -0.50724E-06  1352   0.600E-03
   5 F= -.13583044E+04 E0= -.13583044E+04  d E =-.204132E+01
       N       E                     dE             d eps       ncg     rms          rms(c)
DAV:   1    -0.135907446608E+04   -0.77008E+00   -0.15614E+02  1368   0.168E+01    0.262E+00
DAV:   2    -0.135982885685E+04   -0.75439E+00   -0.80210E+00  2296   0.625E+00    0.139E+00
DAV:   3    -0.135984215198E+04   -0.13295E-01   -0.52707E-01  2616   0.126E+00    0.114E+00
DAV:   4    -0.135981666751E+04    0.25484E-01   -0.14349E-01  2528   0.735E-01    0.529E-01
DAV:   5    -0.135981465093E+04    0.20166E-02   -0.44291E-02  2504   0.413E-01    0.365E-01
DAV:   6    -0.135981398931E+04    0.66162E-03   -0.28733E-02  2552   0.291E-01    0.155E-01
DAV:   7    -0.135981401207E+04   -0.22761E-04   -0.75254E-03  2280   0.161E-01    0.133E-01
DAV:   8    -0.135981400127E+04    0.10805E-04   -0.21439E-03  2408   0.756E-02    0.796E-02
DAV:   9    -0.135981394974E+04    0.51532E-04   -0.11855E-03  2560   0.594E-02    0.390E-02
DAV:  10    -0.135981395369E+04   -0.39505E-05   -0.32972E-04  2400   0.369E-02    0.308E-02
DAV:  11    -0.135981395315E+04    0.53807E-06   -0.18309E-04  2424   0.224E-02    0.140E-02
DAV:  12    -0.135981395334E+04   -0.18827E-06   -0.39745E-05  2312   0.118E-02    0.717E-03
DAV:  13    -0.135981395403E+04   -0.69071E-06   -0.10552E-05  1552   0.684E-03    0.489E-03
DAV:  14    -0.135981395406E+04   -0.29686E-07   -0.35978E-06  1144   0.530E-03
   6 F= -.13598140E+04 E0= -.13598140E+04  d E =-.150957E+01
       N       E                     dE             d eps       ncg     rms          rms(c)
DAV:   1    -0.136004357696E+04   -0.22962E+00   -0.23368E+02  1368   0.208E+01    0.309E+00
DAV:   2    -0.136120775955E+04   -0.11642E+01   -0.12181E+01  2272   0.777E+00    0.157E+00
DAV:   3    -0.136123979547E+04   -0.32036E-01   -0.82538E-01  2624   0.157E+00    0.124E+00
DAV:   4    -0.136120693548E+04    0.32860E-01   -0.19449E-01  2504   0.866E-01    0.574E-01
DAV:   5    -0.136120506818E+04    0.18673E-02   -0.52425E-02  2496   0.460E-01    0.363E-01
DAV:   6    -0.136120489349E+04    0.17469E-03   -0.25073E-02  2480   0.265E-01    0.156E-01
DAV:   7    -0.136120496518E+04   -0.71690E-04   -0.67044E-03  2376   0.162E-01    0.112E-01
DAV:   8    -0.136120499717E+04   -0.31991E-04   -0.20969E-03  2600   0.800E-02    0.651E-02
DAV:   9    -0.136120498777E+04    0.93955E-05   -0.81765E-04  2616   0.545E-02    0.378E-02
DAV:  10    -0.136120499611E+04   -0.83319E-05   -0.22529E-04  2512   0.281E-02    0.236E-02
DAV:  11    -0.136120499632E+04   -0.21808E-06   -0.12828E-04  2472   0.202E-02    0.131E-02
DAV:  12    -0.136120499645E+04   -0.12458E-06   -0.26436E-05  2240   0.105E-02    0.947E-03
DAV:  13    -0.136120499620E+04    0.25428E-06   -0.16108E-05  1800   0.803E-03    0.482E-03
DAV:  14    -0.136120499617E+04    0.26310E-07   -0.31359E-06  1064   0.591E-03
   7 F= -.13612050E+04 E0= -.13612050E+04  d E =-.139104E+01
       N       E                     dE             d eps       ncg     rms          rms(c)
DAV:   1    -0.136153979425E+04   -0.33480E+00   -0.20551E+01  1384   0.629E+00    0.118E+00
DAV:   2    -0.136163917445E+04   -0.99380E-01   -0.10802E+00  2280   0.241E+00    0.554E-01
DAV:   3    -0.136164138452E+04   -0.22101E-02   -0.80624E-02  2608   0.514E-01    0.421E-01
DAV:   4    -0.136163855563E+04    0.28289E-02   -0.19096E-02  2456   0.288E-01    0.182E-01
DAV:   5    -0.136163855943E+04   -0.38064E-05   -0.55689E-03  2440   0.158E-01    0.120E-01
DAV:   6    -0.136163861167E+04   -0.52240E-04   -0.37485E-03  2544   0.105E-01    0.624E-02
DAV:   7    -0.136163858488E+04    0.26790E-04   -0.61898E-04  2448   0.550E-02    0.460E-02
DAV:   8    -0.136163858609E+04   -0.12106E-05   -0.35941E-04  2472   0.307E-02    0.181E-02
DAV:   9    -0.136163858822E+04   -0.21293E-05   -0.54270E-05  2528   0.169E-02    0.139E-02
DAV:  10    -0.136163858773E+04    0.49810E-06   -0.26342E-05  2392   0.102E-02    0.860E-03
DAV:  11    -0.136163858767E+04    0.54468E-07   -0.13347E-05  1832   0.754E-03    0.468E-03
DAV:  12    -0.136163858768E+04   -0.10958E-07   -0.22643E-06  1040   0.482E-03
   8 F= -.13616386E+04 E0= -.13616386E+04  d E =-.433592E+00
       N       E                     dE             d eps       ncg     rms          rms(c)
DAV:   1    -0.136205771459E+04   -0.41913E+00   -0.10678E+02  1384   0.149E+01    0.186E+00
DAV:   2    -0.136260966166E+04   -0.55195E+00   -0.58801E+00  2296   0.594E+00    0.929E-01
DAV:   3    -0.136264204968E+04   -0.32388E-01   -0.46667E-01  2624   0.116E+00    0.744E-01
DAV:   4    -0.136263467948E+04    0.73702E-02   -0.49416E-02  2616   0.536E-01    0.500E-01
DAV:   5    -0.136262986222E+04    0.48173E-02   -0.24279E-02  2392   0.314E-01    0.212E-01
DAV:   6    -0.136263042415E+04   -0.56193E-03   -0.13831E-02  2472   0.235E-01    0.168E-01
DAV:   7    -0.136263036375E+04    0.60396E-04   -0.69496E-03  2448   0.159E-01    0.123E-01
DAV:   8    -0.136263035884E+04    0.49108E-05   -0.30957E-03  2560   0.102E-01    0.745E-02
DAV:   9    -0.136263031850E+04    0.40334E-04   -0.54172E-04  2552   0.504E-02    0.520E-02
DAV:  10    -0.136263031380E+04    0.47092E-05   -0.35106E-04  2568   0.325E-02    0.287E-02
DAV:  11    -0.136263031554E+04   -0.17472E-05   -0.12282E-04  2520   0.231E-02    0.156E-02
DAV:  12    -0.136263031516E+04    0.38522E-06   -0.41604E-05  2368   0.152E-02    0.137E-02
DAV:  13    -0.136263031410E+04    0.10553E-05   -0.34046E-05  2152   0.100E-02    0.712E-03
DAV:  14    -0.136263031414E+04   -0.39960E-07   -0.92050E-06  1752   0.604E-03
   9 F= -.13626303E+04 E0= -.13626303E+04  d E =-.991726E+00
       N       E                     dE             d eps       ncg     rms          rms(c)
DAV:   1    -0.136301374146E+04   -0.38343E+00   -0.78570E+01  1384   0.127E+01    0.161E+00
DAV:   2    -0.136342739681E+04   -0.41366E+00   -0.44170E+00  2304   0.502E+00    0.789E-01
DAV:   3    -0.136345165681E+04   -0.24260E-01   -0.35679E-01  2600   0.100E+00    0.634E-01
DAV:   4    -0.136344566345E+04    0.59934E-02   -0.39336E-02  2608   0.474E-01    0.412E-01
DAV:   5    -0.136344223804E+04    0.34254E-02   -0.17146E-02  2432   0.259E-01    0.169E-01
DAV:   6    -0.136344260433E+04   -0.36628E-03   -0.84593E-03  2464   0.176E-01    0.119E-01
DAV:   7    -0.136344261432E+04   -0.99900E-05   -0.36940E-03  2480   0.118E-01    0.861E-02
DAV:   8    -0.136344263185E+04   -0.17535E-04   -0.15754E-03  2608   0.734E-02    0.554E-02
DAV:   9    -0.136344261382E+04    0.18034E-04   -0.30917E-04  2568   0.381E-02    0.395E-02
DAV:  10    -0.136344261337E+04    0.44302E-06   -0.18108E-04  2600   0.243E-02    0.233E-02
DAV:  11    -0.136344261273E+04    0.64177E-06   -0.74610E-05  2472   0.172E-02    0.112E-02
DAV:  12    -0.136344261242E+04    0.31042E-06   -0.22015E-05  2184   0.113E-02    0.842E-03
DAV:  13    -0.136344261253E+04   -0.10588E-06   -0.16541E-05  1928   0.715E-03    0.485E-03
DAV:  14    -0.136344261231E+04    0.21796E-06   -0.16381E-06   992   0.479E-03
  10 F= -.13634426E+04 E0= -.13634426E+04  d E =-.812298E+00
       N       E                     dE             d eps       ncg     rms          rms(c)
DAV:   1    -0.136377118572E+04   -0.32857E+00   -0.52734E+01  1384   0.104E+01    0.126E+00
DAV:   2    -0.136405189224E+04   -0.28071E+00   -0.30024E+00  2296   0.413E+00    0.632E-01
DAV:   3    -0.136406878560E+04   -0.16893E-01   -0.24395E-01  2568   0.825E-01    0.513E-01
DAV:   4    -0.136406513019E+04    0.36554E-02   -0.25473E-02  2600   0.379E-01    0.357E-01
DAV:   5    -0.136406183002E+04    0.33002E-02   -0.12121E-02  2384   0.223E-01    0.146E-01
DAV:   6    -0.136406198481E+04   -0.15479E-03   -0.78178E-03  2408   0.168E-01    0.112E-01
DAV:   7    -0.136406200272E+04   -0.17913E-04   -0.35588E-03  2408   0.112E-01    0.860E-02
DAV:   8    -0.136406198744E+04    0.15288E-04   -0.13423E-03  2584   0.686E-02    0.494E-02
DAV:   9    -0.136406197213E+04    0.15305E-04   -0.30937E-04  2568   0.364E-02    0.335E-02
DAV:  10    -0.136406197481E+04   -0.26757E-05   -0.12298E-04  2576   0.207E-02    0.217E-02
DAV:  11    -0.136406197548E+04   -0.67371E-06   -0.62166E-05  2400   0.160E-02    0.140E-02
DAV:  12    -0.136406197387E+04    0.16127E-05   -0.26718E-05  2272   0.119E-02    0.111E-02
DAV:  13    -0.136406197329E+04    0.57719E-06   -0.20795E-05  2016   0.797E-03    0.532E-03
DAV:  14    -0.136406197301E+04    0.27929E-06   -0.23112E-06  1056   0.498E-03
  11 F= -.13640620E+04 E0= -.13640620E+04  d E =-.619361E+00
       N       E                     dE             d eps       ncg     rms          rms(c)
DAV:   1    -0.136436846562E+04   -0.30649E+00   -0.51544E+01  1392   0.102E+01    0.125E+00
DAV:   2    -0.136464124826E+04   -0.27278E+00   -0.29017E+00  2296   0.400E+00    0.611E-01
DAV:   3    -0.136465789156E+04   -0.16643E-01   -0.23762E-01  2584   0.807E-01    0.502E-01
DAV:   4    -0.136465435011E+04    0.35415E-02   -0.23272E-02  2584   0.366E-01    0.353E-01
DAV:   5    -0.136465085469E+04    0.34954E-02   -0.11869E-02  2320   0.222E-01    0.138E-01
DAV:   6    -0.136465111785E+04   -0.26315E-03   -0.79393E-03  2400   0.163E-01    0.113E-01
DAV:   7    -0.136465109256E+04    0.25281E-04   -0.30840E-03  2440   0.105E-01    0.821E-02
DAV:   8    -0.136465107328E+04    0.19288E-04   -0.12312E-03  2568   0.665E-02    0.451E-02
DAV:   9    -0.136465106412E+04    0.91585E-05   -0.25369E-04  2456   0.336E-02    0.314E-02
DAV:  10    -0.136465106588E+04   -0.17630E-05   -0.91444E-05  2472   0.181E-02    0.187E-02
DAV:  11    -0.136465106636E+04   -0.47898E-06   -0.39533E-05  2464   0.133E-02    0.110E-02
DAV:  12    -0.136465106601E+04    0.34909E-06   -0.21148E-05  2240   0.103E-02    0.881E-03
DAV:  13    -0.136465106578E+04    0.23088E-06   -0.12959E-05  1768   0.682E-03    0.505E-03
DAV:  14    -0.136465106555E+04    0.22721E-06   -0.18913E-06  1016   0.469E-03
  12 F= -.13646511E+04 E0= -.13646511E+04  d E =-.589093E+00
       N       E                     dE             d eps       ncg     rms          rms(c)
DAV:   1    -0.136489835383E+04   -0.24729E+00   -0.22101E+01  1400   0.672E+00    0.819E-01
DAV:   2    -0.136501377091E+04   -0.11542E+00   -0.12281E+00  2312   0.259E+00    0.404E-01
DAV:   3    -0.136502038425E+04   -0.66133E-02   -0.98350E-02  2600   0.533E-01    0.327E-01
DAV:   4    -0.136501865591E+04    0.17283E-02   -0.99203E-03  2576   0.241E-01    0.224E-01
DAV:   5    -0.136501721717E+04    0.14387E-02   -0.53877E-03  2328   0.149E-01    0.862E-02
DAV:   6    -0.136501735762E+04   -0.14045E-03   -0.33402E-03  2440   0.108E-01    0.759E-02
DAV:   7    -0.136501734290E+04    0.14722E-04   -0.12204E-03  2464   0.666E-02    0.532E-02
DAV:   8    -0.136501733517E+04    0.77235E-05   -0.48808E-04  2568   0.412E-02    0.274E-02
DAV:   9    -0.136501733114E+04    0.40315E-05   -0.90178E-05  2384   0.207E-02    0.199E-02
DAV:  10    -0.136501733172E+04   -0.57829E-06   -0.47054E-05  2384   0.129E-02    0.120E-02
DAV:  11    -0.136501733120E+04    0.52132E-06   -0.17127E-05  2184   0.945E-03    0.579E-03
DAV:  12    -0.136501733181E+04   -0.61277E-06   -0.95637E-06  1768   0.628E-03
  13 F= -.13650173E+04 E0= -.13650173E+04  d E =-.366266E+00
       N       E                     dE             d eps       ncg     rms          rms(c)
DAV:   1    -0.136528189715E+04   -0.26457E+00   -0.26324E+01  1376   0.729E+00    0.865E-01
DAV:   2    -0.136541934661E+04   -0.13745E+00   -0.14581E+00  2288   0.283E+00    0.429E-01
DAV:   3    -0.136542807322E+04   -0.87266E-02   -0.12138E-01  2592   0.575E-01    0.351E-01
DAV:   4    -0.136542641683E+04    0.16564E-02   -0.11162E-02  2608   0.255E-01    0.253E-01
DAV:   5    -0.136542456793E+04    0.18489E-02   -0.60151E-03  2320   0.155E-01    0.997E-02
DAV:   6    -0.136542468163E+04   -0.11370E-03   -0.41290E-03  2368   0.117E-01    0.818E-02
DAV:   7    -0.136542466972E+04    0.11914E-04   -0.16524E-03  2424   0.767E-02    0.588E-02
DAV:   8    -0.136542465879E+04    0.10931E-04   -0.63526E-04  2552   0.480E-02    0.330E-02
DAV:   9    -0.136542465356E+04    0.52271E-05   -0.13177E-04  2440   0.244E-02    0.228E-02
DAV:  10    -0.136542465391E+04   -0.34798E-06   -0.48380E-05  2480   0.130E-02    0.127E-02
DAV:  11    -0.136542465478E+04   -0.87105E-06   -0.17393E-05  2152   0.927E-03    0.821E-03
DAV:  12    -0.136542465432E+04    0.45847E-06   -0.10445E-05  1760   0.728E-03    0.661E-03
DAV:  13    -0.136542465416E+04    0.16055E-06   -0.71038E-06  1600   0.565E-03
  14 F= -.13654247E+04 E0= -.13654247E+04  d E =-.407322E+00
       N       E                     dE             d eps       ncg     rms          rms(c)
DAV:   1    -0.136567255630E+04   -0.24790E+00   -0.21207E+01  1376   0.651E+00    0.757E-01
DAV:   2    -0.136578128231E+04   -0.10873E+00   -0.11476E+00  2296   0.249E+00    0.374E-01
DAV:   3    -0.136578795948E+04   -0.66772E-02   -0.93140E-02  2584   0.500E-01    0.304E-01
DAV:   4    -0.136578672485E+04    0.12346E-02   -0.83501E-03  2584   0.219E-01    0.220E-01
DAV:   5    -0.136578525132E+04    0.14735E-02   -0.42766E-03  2336   0.135E-01    0.899E-02
DAV:   6    -0.136578529407E+04   -0.42751E-04   -0.32957E-03  2312   0.105E-01    0.668E-02
DAV:   7    -0.136578530458E+04   -0.10512E-04   -0.12854E-03  2456   0.677E-02    0.527E-02
DAV:   8    -0.136578529303E+04    0.11547E-04   -0.44929E-04  2520   0.407E-02    0.293E-02
DAV:   9    -0.136578528691E+04    0.61208E-05   -0.11756E-04  2400   0.218E-02    0.187E-02
DAV:  10    -0.136578528851E+04   -0.15978E-05   -0.43453E-05  2416   0.123E-02    0.119E-02
DAV:  11    -0.136578528832E+04    0.18765E-06   -0.14727E-05  2000   0.882E-03    0.730E-03
DAV:  12    -0.136578528825E+04    0.72105E-07   -0.10081E-05  1744   0.687E-03    0.636E-03
DAV:  13    -0.136578528776E+04    0.49290E-06   -0.35842E-06  1184   0.523E-03
  15 F= -.13657853E+04 E0= -.13657853E+04  d E =-.360634E+00
       N       E                     dE             d eps       ncg     rms          rms(c)
DAV:   1    -0.136599335627E+04   -0.20807E+00   -0.50410E+01  1376   0.100E+01    0.114E+00
DAV:   2    -0.136624688263E+04   -0.25353E+00   -0.26562E+00  2288   0.386E+00    0.576E-01
DAV:   3    -0.136626140384E+04   -0.14521E-01   -0.20414E-01  2592   0.761E-01    0.467E-01
DAV:   4    -0.136625847788E+04    0.29260E-02   -0.18214E-02  2592   0.317E-01    0.337E-01
DAV:   5    -0.136625509068E+04    0.33872E-02   -0.99427E-03  2280   0.207E-01    0.133E-01
DAV:   6    -0.136625537435E+04   -0.28366E-03   -0.78786E-03  2360   0.159E-01    0.110E-01
DAV:   7    -0.136625534009E+04    0.34262E-04   -0.26864E-03  2408   0.981E-02    0.834E-02
DAV:   8    -0.136625530590E+04    0.34189E-04   -0.10850E-03  2584   0.609E-02    0.441E-02
DAV:   9    -0.136625529040E+04    0.15496E-04   -0.24405E-04  2328   0.322E-02    0.287E-02
DAV:  10    -0.136625529268E+04   -0.22746E-05   -0.94009E-05  2368   0.183E-02    0.169E-02
DAV:  11    -0.136625529216E+04    0.51764E-06   -0.28306E-05  2336   0.117E-02    0.912E-03
DAV:  12    -0.136625529240E+04   -0.24594E-06   -0.17857E-05  2040   0.875E-03    0.763E-03
DAV:  13    -0.136625529199E+04    0.41633E-06   -0.74946E-06  1648   0.612E-03
  16 F= -.13662553E+04 E0= -.13662553E+04  d E =-.470004E+00
       N       E                     dE             d eps       ncg     rms          rms(c)
DAV:   1    -0.136653121860E+04   -0.27593E+00   -0.35851E+01  1376   0.843E+00    0.963E-01
DAV:   2    -0.136671611361E+04   -0.18490E+00   -0.19523E+00  2304   0.328E+00    0.487E-01
DAV:   3    -0.136672692376E+04   -0.10810E-01   -0.15397E-01  2584   0.653E-01    0.396E-01
DAV:   4    -0.136672481055E+04    0.21132E-02   -0.14146E-02  2568   0.281E-01    0.283E-01
DAV:   5    -0.136672242237E+04    0.23882E-02   -0.68088E-03  2336   0.169E-01    0.120E-01
DAV:   6    -0.136672240951E+04    0.12855E-04   -0.52945E-03  2296   0.134E-01    0.826E-02
DAV:   7    -0.136672245379E+04   -0.44273E-04   -0.22564E-03  2424   0.888E-02    0.695E-02
DAV:   8    -0.136672243088E+04    0.22907E-04   -0.74555E-04  2560   0.526E-02    0.408E-02
DAV:   9    -0.136672241955E+04    0.11331E-04   -0.23283E-04  2496   0.294E-02    0.242E-02
DAV:  10    -0.136672242339E+04   -0.38407E-05   -0.76450E-05  2544   0.168E-02    0.169E-02
DAV:  11    -0.136672242338E+04    0.11976E-07   -0.32396E-05  2352   0.121E-02    0.113E-02
DAV:  12    -0.136672242236E+04    0.10154E-05   -0.19835E-05  2136   0.984E-03    0.916E-03
DAV:  13    -0.136672242185E+04    0.51047E-06   -0.11590E-05  1768   0.667E-03    0.486E-03
DAV:  14    -0.136672242159E+04    0.25563E-06   -0.20659E-06  1000   0.469E-03
  17 F= -.13667224E+04 E0= -.13667224E+04  d E =-.467130E+00
       N       E                     dE             d eps       ncg     rms          rms(c)
DAV:   1    -0.136693410568E+04   -0.21168E+00   -0.19898E+01  1384   0.630E+00    0.732E-01
DAV:   2    -0.136703596798E+04   -0.10186E+00   -0.10721E+00  2312   0.247E+00    0.374E-01
DAV:   3    -0.136704174349E+04   -0.57755E-02   -0.84063E-02  2584   0.471E-01    0.295E-01
DAV:   4    -0.136704026236E+04    0.14811E-02   -0.78214E-03  2576   0.211E-01    0.205E-01
DAV:   5    -0.136703892193E+04    0.13404E-02   -0.43013E-03  2304   0.137E-01    0.786E-02
DAV:   6    -0.136703903202E+04   -0.11009E-03   -0.30448E-03  2400   0.101E-01    0.674E-02
DAV:   7    -0.136703903295E+04   -0.93698E-06   -0.97916E-04  2432   0.591E-02    0.512E-02
DAV:   8    -0.136703901876E+04    0.14194E-04   -0.39019E-04  2552   0.364E-02    0.255E-02
DAV:   9    -0.136703901283E+04    0.59253E-05   -0.86562E-05  2248   0.197E-02    0.169E-02
DAV:  10    -0.136703901361E+04   -0.77677E-06   -0.33040E-05  2328   0.114E-02    0.109E-02
DAV:  11    -0.136703901297E+04    0.64367E-06   -0.12971E-05  1952   0.795E-03    0.496E-03
DAV:  12    -0.136703901329E+04   -0.31726E-06   -0.59514E-06  1536   0.571E-03
  18 F= -.13670390E+04 E0= -.13670390E+04  d E =-.316592E+00
       N       E                     dE             d eps       ncg     rms          rms(c)
DAV:   1    -0.136720961488E+04   -0.17060E+00   -0.10870E+02  1384   0.148E+01    0.171E+00
DAV:   2    -0.136778042596E+04   -0.57081E+00   -0.60499E+00  2312   0.583E+00    0.879E-01
DAV:   3    -0.136781363413E+04   -0.33208E-01   -0.48263E-01  2576   0.114E+00    0.722E-01
DAV:   4    -0.136780713977E+04    0.64944E-02   -0.47090E-02  2592   0.510E-01    0.521E-01
DAV:   5    -0.136779934804E+04    0.77917E-02   -0.20043E-02  2352   0.295E-01    0.242E-01
DAV:   6    -0.136779873001E+04    0.61803E-03   -0.18353E-02  2256   0.255E-01    0.147E-01
DAV:   7    -0.136779900702E+04   -0.27701E-03   -0.91834E-03  2384   0.177E-01    0.141E-01
DAV:   8    -0.136779891385E+04    0.93171E-04   -0.23226E-03  2576   0.971E-02    0.976E-02
DAV:   9    -0.136779880820E+04    0.10566E-03   -0.11096E-03  2512   0.600E-02    0.457E-02
DAV:  10    -0.136779883288E+04   -0.24682E-04   -0.38345E-04  2488   0.371E-02    0.310E-02
DAV:  11    -0.136779883901E+04   -0.61359E-05   -0.95477E-05  2280   0.207E-02    0.244E-02
DAV:  12    -0.136779883179E+04    0.72261E-05   -0.11564E-04  2176   0.212E-02    0.196E-02
DAV:  13    -0.136779883026E+04    0.15277E-05   -0.57349E-05  2312   0.145E-02    0.146E-02
DAV:  14    -0.136779882842E+04    0.18445E-05   -0.24534E-05  2056   0.871E-03    0.451E-03
DAV:  15    -0.136779882850E+04   -0.86817E-07   -0.18645E-06  1080   0.451E-03
  19 F= -.13677988E+04 E0= -.13677988E+04  d E =-.759815E+00
       N       E                     dE             d eps       ncg     rms          rms(c)
DAV:   1    -0.136799055969E+04   -0.19173E+00   -0.47265E+01  1384   0.968E+00    0.114E+00
DAV:   2    -0.136823378348E+04   -0.24322E+00   -0.25872E+00  2320   0.382E+00    0.583E-01
DAV:   3    -0.136824688087E+04   -0.13097E-01   -0.20481E-01  2576   0.741E-01    0.470E-01
DAV:   4    -0.136824309673E+04    0.37841E-02   -0.20747E-02  2560   0.341E-01    0.328E-01
DAV:   5    -0.136823940633E+04    0.36904E-02   -0.10580E-02  2264   0.216E-01    0.137E-01
DAV:   6    -0.136823940210E+04    0.42351E-05   -0.85133E-03  2296   0.177E-01    0.112E-01
DAV:   7    -0.136823946618E+04   -0.64088E-04   -0.40260E-03  2328   0.115E-01    0.921E-02
DAV:   8    -0.136823943158E+04    0.34599E-04   -0.12724E-03  2576   0.668E-02    0.496E-02
DAV:   9    -0.136823940760E+04    0.23985E-04   -0.37880E-04  2552   0.384E-02    0.305E-02
DAV:  10    -0.136823941496E+04   -0.73646E-05   -0.14906E-04  2552   0.230E-02    0.237E-02
DAV:  11    -0.136823941292E+04    0.20403E-05   -0.80555E-05  2440   0.183E-02    0.151E-02
DAV:  12    -0.136823941188E+04    0.10391E-05   -0.32125E-05  2296   0.130E-02    0.137E-02
DAV:  13    -0.136823941028E+04    0.16009E-05   -0.25098E-05  2000   0.862E-03    0.619E-03
DAV:  14    -0.136823941004E+04    0.24329E-06   -0.46933E-06  1320   0.557E-03
  20 F= -.13682394E+04 E0= -.13682394E+04  d E =-.440582E+00
