 vasp.5.4.4.18Apr17-6-g9f103f2a35 (build May 01 2020 14:22:42) gamma-only       
  
 executed on             LinuxIFC date 2022.02.19  06:10:56
 running on  160 total cores
 distrk:  each k-point on  160 cores,    1 groups
 distr:  one band on NCORES_PER_BAND=  20 cores,    8 groups


--------------------------------------------------------------------------------------------------------


 INCAR:
 POTCAR:    PAW_PBE O 08Apr2002                   
 POTCAR:    PAW_PBE La 06Sep2000                  
 POTCAR:    PAW_PBE Zr_sv 04Jan2005               
 POTCAR:    PAW_PBE Li 17Jan2003                  
 POTCAR:    PAW_PBE Al 04Jan2001                  
 POTCAR:    PAW_PBE O 08Apr2002                   
   VRHFIN =O: s2p4                                                              
   LEXCH  = PE                                                                  
   EATOM  =   432.3788 eV,   31.7789 Ry                                         
                                                                                
   TITEL  = PAW_PBE O 08Apr2002                                                 
   LULTRA =        F    use ultrasoft PP ?                                      
   IUNSCR =        1    unscreen: 0-lin 1-nonlin 2-no                           
   RPACOR =    1.200    partial core radius                                     
   POMASS =   16.000; ZVAL   =    6.000    mass and valenz                      
   RCORE  =    1.520    outmost cutoff radius                                   
   RWIGS  =    1.550; RWIGS  =    0.820    wigner-seitz radius (au A)           
   ENMAX  =  400.000; ENMIN  =  300.000 eV                                      
   ICORE  =        2    local potential                                         
   LCOR   =        T    correct aug charges                                     
   LPAW   =        T    paw PP                                                  
   EAUG   =  605.392                                                            
   DEXC   =    0.000                                                            
   RMAX   =    1.553    core radius for proj-oper                               
   RAUG   =    1.300    factor for augmentation sphere                          
   RDEP   =    1.550    radius for radial grids                                 
   RDEPT  =    1.329    core radius for aug-charge                              
                                                                                
   Atomic configuration                                                         
    4 entries                                                                   
     n  l   j            E        occ.                                          
     1  0  0.50      -514.6923   2.0000                                         
     2  0  0.50       -23.9615   2.0000                                         
     2  1  0.50        -9.0305   4.0000                                         
     3  2  1.50        -9.5241   0.0000                                         
   Description                                                                  
     l       E           TYP  RCUT    TYP  RCUT                                 
     0    -23.9615318     23  1.200                                             
     0     -9.5240782     23  1.200                                             
     1     -9.0304911     23  1.520                                             
     1      8.1634956     23  1.520                                             
     2     -9.5240782      7  1.500                                             
  local pseudopotential read in
  partial core-charges read in
  partial kinetic energy density read in
  kinetic energy density of atom read in
  atomic valenz-charges read in
  non local Contribution for L=           0  read in
    real space projection operators read in
  non local Contribution for L=           0  read in
    real space projection operators read in
  non local Contribution for L=           1  read in
    real space projection operators read in
  non local Contribution for L=           1  read in
    real space projection operators read in
    PAW grid and wavefunctions read in
 
   number of l-projection  operators is LMAX  =           4
   number of lm-projection operators is LMMAX =           8
 
 POTCAR:    PAW_PBE La 06Sep2000                  
   VRHFIN =La : [core=Kr4d]                                                     
   LEXCH  = PE                                                                  
   EATOM  =   865.9763 eV,   63.6475 Ry                                         
                                                                                
   TITEL  = PAW_PBE La 06Sep2000                                                
   LULTRA =        F    use ultrasoft PP ?                                      
   IUNSCR =        1    unscreen: 0-lin 1-nonlin 2-no                           
   RPACOR =    2.300    partial core radius                                     
   POMASS =  138.900; ZVAL   =   11.000    mass and valenz                      
   RCORE  =    2.800    outmost cutoff radius                                   
   RWIGS  =    2.900; RWIGS  =    1.535    wigner-seitz radius (au A)           
   ENMAX  =  219.292; ENMIN  =  164.469 eV                                      
   RCLOC  =    1.601    cutoff for local pot                                    
   LCOR   =        T    correct aug charges                                     
   LPAW   =        T    paw PP                                                  
   EAUG   =  583.575                                                            
   DEXC   =    0.000                                                            
   RMAX   =    2.853    core radius for proj-oper                               
   RAUG   =    1.300    factor for augmentation sphere                          
   RDEP   =    2.802    radius for radial grids                                 
   RDEPT  =    2.156    core radius for aug-charge                              
                                                                                
   Atomic configuration                                                         
   14 entries                                                                   
     n  l   j            E        occ.                                          
     1  0  0.50    -38741.0879   2.0000                                         
     2  0  0.50     -6166.6801   2.0000                                         
     2  1  1.50     -5526.1593   6.0000                                         
     3  0  0.50     -1319.0200   2.0000                                         
     3  1  1.50     -1114.5963   6.0000                                         
     3  2  2.50      -821.1793  10.0000                                         
     4  0  0.50      -266.3851   2.0000                                         
     4  1  1.50      -199.9276   6.0000                                         
     4  2  2.50      -103.8239  10.0000                                         
     5  0  0.50       -38.9172   2.0000                                         
     6  0  0.50        -3.6792   2.0000                                         
     5  1  1.50       -22.3948   6.0000                                         
     5  2  2.50        -3.0911   0.9999                                         
     4  3  2.50        -4.3603   0.0001                                         
   Description                                                                  
     l       E           TYP  RCUT    TYP  RCUT                                 
     0    -38.9171645     23  2.800                                             
     0     -3.6792381     23  2.800                                             
     1    -22.3948300     23  2.500                                             
     1     27.2116520     23  2.500                                             
     2     -3.0910934     23  2.500                                             
     2      1.0119135     23  2.500                                             
     3     -4.3602911     23  2.800                                             
     3     -5.7208737     23  2.800                                             
  local pseudopotential read in
  partial core-charges read in
  partial kinetic energy density read in
  atomic valenz-charges read in
  non local Contribution for L=           0  read in
    real space projection operators read in
  non local Contribution for L=           0  read in
    real space projection operators read in
  non local Contribution for L=           1  read in
    real space projection operators read in
  non local Contribution for L=           1  read in
    real space projection operators read in
  non local Contribution for L=           2  read in
    real space projection operators read in
  non local Contribution for L=           2  read in
    real space projection operators read in
  non local Contribution for L=           3  read in
    real space projection operators read in
  non local Contribution for L=           3  read in
    real space projection operators read in
    PAW grid and wavefunctions read in
 
   number of l-projection  operators is LMAX  =           8
   number of lm-projection operators is LMMAX =          32
 
 POTCAR:    PAW_PBE Zr_sv 04Jan2005               
   VRHFIN =Zr: 4s4p5s4d                                                         
   LEXCH  = PE                                                                  
   EATOM  =  1284.2219 eV,   94.3876 Ry                                         
                                                                                
   TITEL  = PAW_PBE Zr_sv 04Jan2005                                             
   LULTRA =        F    use ultrasoft PP ?                                      
   IUNSCR =        1    unscreen: 0-lin 1-nonlin 2-no                           
   RPACOR =    2.200    partial core radius                                     
   POMASS =   91.224; ZVAL   =   12.000    mass and valenz                      
   RCORE  =    2.500    outmost cutoff radius                                   
   RWIGS  =    3.070; RWIGS  =    1.625    wigner-seitz radius (au A)           
   ENMAX  =  229.898; ENMIN  =  172.424 eV                                      
   ICORE  =        3    local potential                                         
   LCOR   =        T    correct aug charges                                     
   LPAW   =        T    paw PP                                                  
   EAUG   =  461.257                                                            
   DEXC   =    0.000                                                            
   RMAX   =    2.561    core radius for proj-oper                               
   RAUG   =    1.300    factor for augmentation sphere                          
   RDEP   =    2.597    radius for radial grids                                 
   RDEPT  =    2.007    core radius for aug-charge                              
                                                                                
   Atomic configuration                                                         
   11 entries                                                                   
     n  l   j            E        occ.                                          
     1  0  0.50    -17820.0161   2.0000                                         
     2  0  0.50     -2467.0882   2.0000                                         
     2  1  1.50     -2199.6095   6.0000                                         
     3  0  0.50      -402.4863   2.0000                                         
     3  1  1.50      -315.3675   6.0000                                         
     3  2  2.50      -172.4472  10.0000                                         
     4  0  0.50       -52.4146   2.0000                                         
     5  0  0.50        -3.8421   1.0000                                         
     4  1  1.50       -30.5054   6.0000                                         
     4  2  2.50        -2.3341   3.0000                                         
     4  3  2.50        -1.3606   0.0000                                         
   Description                                                                  
     l       E           TYP  RCUT    TYP  RCUT                                 
     0    -52.4145962     23  2.200                                             
     0     -3.8421270     23  2.500                                             
     1    -30.5053914     23  2.200                                             
     1     20.4087390     23  2.200                                             
     2     -2.3340816     23  2.500                                             
     2     -0.6120942     23  2.500                                             
     3     -4.0817478     23  2.500                                             
  local pseudopotential read in
  partial core-charges read in
  partial kinetic energy density read in
  atomic valenz-charges read in
  non local Contribution for L=           0  read in
    real space projection operators read in
  non local Contribution for L=           0  read in
    real space projection operators read in
  non local Contribution for L=           1  read in
    real space projection operators read in
  non local Contribution for L=           1  read in
    real space projection operators read in
  non local Contribution for L=           2  read in
    real space projection operators read in
  non local Contribution for L=           2  read in
    real space projection operators read in
    PAW grid and wavefunctions read in
 
   number of l-projection  operators is LMAX  =           6
   number of lm-projection operators is LMMAX =          18
 
 POTCAR:    PAW_PBE Li 17Jan2003                  
   VRHFIN =Li: s1p0                                                             
   LEXCH  = PE                                                                  
   EATOM  =     5.3001 eV,    0.3895 Ry                                         
                                                                                
   TITEL  = PAW_PBE Li 17Jan2003                                                
   LULTRA =        F    use ultrasoft PP ?                                      
   IUNSCR =        1    unscreen: 0-lin 1-nonlin 2-no                           
   RPACOR =    1.500    partial core radius                                     
   POMASS =    7.010; ZVAL   =    1.000    mass and valenz                      
   RCORE  =    2.050    outmost cutoff radius                                   
   RWIGS  =    2.600; RWIGS  =    1.376    wigner-seitz radius (au A)           
   ENMAX  =  140.000; ENMIN  =  100.000 eV                                      
   ICORE  =        2    local potential                                         
   LCOR   =        T    correct aug charges                                     
   LPAW   =        T    paw PP                                                  
   EAUG   =  331.638                                                            
   DEXC   =    0.000                                                            
   RMAX   =    2.098    core radius for proj-oper                               
   RAUG   =    1.300    factor for augmentation sphere                          
   RDEP   =    2.094    radius for radial grids                                 
   RDEPT  =    1.810    core radius for aug-charge                              
                                                                                
   Atomic configuration                                                         
    4 entries                                                                   
     n  l   j            E        occ.                                          
     1  0  0.50       -51.8549   2.0000                                         
     2  0  0.50        -2.8742   1.0000                                         
     2  1  0.50        -1.3606   0.0000                                         
     3  2  1.50        -1.3606   0.0000                                         
   Description                                                                  
     l       E           TYP  RCUT    TYP  RCUT                                 
     0     -2.8742052     23  2.050                                             
     0     27.2116520     23  2.050                                             
     1     -1.3605826     23  2.050                                             
     2     -1.3605826     23  2.050                                             
  local pseudopotential read in
  partial core-charges read in
  partial kinetic energy density read in
  atomic valenz-charges read in
  non local Contribution for L=           0  read in
    real space projection operators read in
  non local Contribution for L=           0  read in
    real space projection operators read in
  non local Contribution for L=           1  read in
    real space projection operators read in
    PAW grid and wavefunctions read in
 
   number of l-projection  operators is LMAX  =           3
   number of lm-projection operators is LMMAX =           5
 
 POTCAR:    PAW_PBE Al 04Jan2001                  
   VRHFIN =Al: s2p1                                                             
   LEXCH  = PE                                                                  
   EATOM  =    53.5387 eV,    3.9350 Ry                                         
                                                                                
   TITEL  = PAW_PBE Al 04Jan2001                                                
   LULTRA =        F    use ultrasoft PP ?                                      
   IUNSCR =        1    unscreen: 0-lin 1-nonlin 2-no                           
   RPACOR =    1.500    partial core radius                                     
   POMASS =   26.981; ZVAL   =    3.000    mass and valenz                      
   RCORE  =    1.900    outmost cutoff radius                                   
   RWIGS  =    2.650; RWIGS  =    1.402    wigner-seitz radius (au A)           
   ENMAX  =  240.300; ENMIN  =  180.225 eV                                      
   ICORE  =        2    local potential                                         
   LCOR   =        T    correct aug charges                                     
   LPAW   =        T    paw PP                                                  
   EAUG   =  291.052                                                            
   DEXC   =    0.000                                                            
   RMAX   =    1.939    core radius for proj-oper                               
   RAUG   =    1.300    factor for augmentation sphere                          
   RDEP   =    1.966    radius for radial grids                                 
   RDEPT  =    1.856    core radius for aug-charge                              
                                                                                
   Atomic configuration                                                         
    6 entries                                                                   
     n  l   j            E        occ.                                          
     1  0  0.50     -1511.1048   2.0000                                         
     2  0  0.50      -108.1629   2.0000                                         
     2  1  1.50       -69.6402   6.0000                                         
     3  0  0.50        -7.7528   2.0000                                         
     3  1  1.50        -2.7121   1.0000                                         
     3  2  2.50        -2.7212   0.0000                                         
   Description                                                                  
     l       E           TYP  RCUT    TYP  RCUT                                 
     0     -7.7528455     23  1.900                                             
     0     -3.3096929     23  1.900                                             
     1     -2.7120682     23  1.900                                             
     1     13.6058260     23  1.900                                             
     2     -2.7211652      7  1.900                                             
  local pseudopotential read in
  partial core-charges read in
  partial kinetic energy density read in
  atomic valenz-charges read in
  non local Contribution for L=           0  read in
    real space projection operators read in
  non local Contribution for L=           0  read in
    real space projection operators read in
  non local Contribution for L=           1  read in
    real space projection operators read in
  non local Contribution for L=           1  read in
    real space projection operators read in
    PAW grid and wavefunctions read in
 
   number of l-projection  operators is LMAX  =           4
   number of lm-projection operators is LMMAX =           8
 
 Optimization of the real space projectors (new method)

 maximal supplied QI-value         = 24.76
 optimisation between [QCUT,QGAM] = [ 11.39, 22.77] = [ 36.31,145.25] Ry 
 Optimized for a Real-space Cutoff    1.10 Angstroem

   l    n(q)    QCUT    max X(q) W(low)/X(q) W(high)/X(q)  e(spline) 
   0      7    11.387    20.381    0.22E-03    0.48E-03    0.18E-06
   0      7    11.387    15.268    0.22E-03    0.52E-03    0.19E-06
   1      7    11.387     5.964    0.22E-03    0.73E-03    0.24E-06
   1      7    11.387     5.382    0.19E-03    0.60E-03    0.21E-06
 Optimization of the real space projectors (new method)

 maximal supplied QI-value         = 13.42
 optimisation between [QCUT,QGAM] = [ 11.40, 22.81] = [ 36.42,145.68] Ry 
 Optimized for a Real-space Cutoff    1.66 Angstroem

   l    n(q)    QCUT    max X(q) W(low)/X(q) W(high)/X(q)  e(spline) 
   0     11    11.404    13.882    0.31E-04    0.82E-05    0.60E-07
   0     11    11.404    12.184    0.45E-04    0.14E-04    0.98E-07
   1     11    11.404     4.523    0.47E-05    0.18E-04    0.12E-06
   1     11    11.404     4.424    0.66E-05    0.26E-04    0.18E-06
   2     10    11.404    52.481    0.10E-03    0.52E-04    0.18E-06
   2     10    11.404    38.501    0.97E-04    0.49E-04    0.18E-06
   3     10    11.404    65.631    0.11E-03    0.47E-04    0.67E-06
   3     10    11.404    56.854    0.11E-03    0.44E-04    0.68E-06
 Optimization of the real space projectors (new method)

 maximal supplied QI-value         = 15.12
 optimisation between [QCUT,QGAM] = [ 11.34, 22.83] = [ 36.00,145.93] Ry 
 Optimized for a Real-space Cutoff    1.52 Angstroem

   l    n(q)    QCUT    max X(q) W(low)/X(q) W(high)/X(q)  e(spline) 
   0     10    11.338    12.107    0.25E-04    0.17E-04    0.51E-07
   0     10    11.338     9.948    0.49E-04    0.35E-04    0.12E-06
   1     10    11.338     3.563    0.20E-04    0.52E-05    0.48E-07
   1     10    11.338     4.524    0.21E-03    0.12E-03    0.44E-06
   2      9    11.338    87.261    0.14E-03    0.22E-04    0.23E-06
   2      9    11.338    70.950    0.14E-03    0.22E-04    0.23E-06
 Optimization of the real space projectors (new method)

 maximal supplied QI-value         = 18.33
 optimisation between [QCUT,QGAM] = [ 11.36, 22.73] = [ 36.17,144.67] Ry 
 Optimized for a Real-space Cutoff    1.23 Angstroem

   l    n(q)    QCUT    max X(q) W(low)/X(q) W(high)/X(q)  e(spline) 
   0      8    11.365    33.825    0.48E-04    0.18E-03    0.59E-07
   0      8    11.365     8.944    0.37E-04    0.13E-03    0.44E-07
   1      8    11.365     4.214    0.24E-03    0.13E-03    0.38E-07
 Optimization of the real space projectors (new method)

 maximal supplied QI-value         = 19.84
 optimisation between [QCUT,QGAM] = [ 11.31, 22.82] = [ 35.82,145.81] Ry 
 Optimized for a Real-space Cutoff    1.16 Angstroem

   l    n(q)    QCUT    max X(q) W(low)/X(q) W(high)/X(q)  e(spline) 
   0      8    11.310   176.870    0.22E-03    0.22E-03    0.34E-07
   0      8    11.310   105.762    0.21E-03    0.22E-03    0.33E-07
   1      7    11.310    55.370    0.19E-03    0.26E-03    0.72E-07
   1      7    11.310    20.208    0.18E-03    0.24E-03    0.66E-07
  PAW_PBE O 08Apr2002                   :
 energy of atom  1       EATOM= -432.3788
 kinetic energy error for atom=    0.0224 (will be added to EATOM!!)
  PAW_PBE La 06Sep2000                  :
 energy of atom  2       EATOM= -865.9763
 kinetic energy error for atom=    0.0011 (will be added to EATOM!!)
  PAW_PBE Zr_sv 04Jan2005               :
 energy of atom  3       EATOM=-1284.2219
 kinetic energy error for atom=    0.0049 (will be added to EATOM!!)
  PAW_PBE Li 17Jan2003                  :
 energy of atom  4       EATOM=   -5.3001
 kinetic energy error for atom=    0.0000 (will be added to EATOM!!)
  PAW_PBE Al 04Jan2001                  :
 energy of atom  5       EATOM=  -53.5387
 kinetic energy error for atom=    0.0003 (will be added to EATOM!!)
 
 
 POSCAR: LLZO_Ia3d_Al10_partial_99               
  positions in direct lattice
  No initial velocities read in
 exchange correlation table for  LEXCH =        8
   RHO(1)=    0.500       N(1)  =     2000
   RHO(2)=  100.500       N(2)  =     4000
 


--------------------------------------------------------------------------------------------------------


 ion  position               nearest neighbor table
   1  0.100  0.196  0.282- 180 1.91 128 2.11 159 2.12 113 2.51  97 2.59
   2  0.900  0.804  0.718- 189 1.91 127 2.11 144 2.14 114 2.51  98 2.59
   3  0.400  0.804  0.782- 190 1.91 126 2.11 148 2.14 137 2.25 119 2.51  99 2.59
   4  0.600  0.196  0.218- 142 1.87 169 1.91 125 2.11 141 2.12 120 2.51 100 2.59
   5  0.900  0.696  0.218- 158 1.87 182 1.91 130 2.11 115 2.51 101 2.59 145 2.61
   6  0.100  0.304  0.782- 173 1.91 129 2.11 147 2.12 156 2.14 162 2.25 116 2.51 102 2.59
   7  0.600  0.304  0.718- 157 1.87 132 2.11 117 2.51 103 2.59 152 2.61
   8  0.400  0.696  0.282- 183 1.91 131 2.11 118 2.51 104 2.59
   9  0.282  0.100  0.196- 181 1.91 128 2.11 164 2.12 160 2.25  97 2.51 105 2.59
  10  0.718  0.900  0.804- 177 1.91 127 2.11 140 2.12 137 2.14  98 2.51 106 2.59 161 2.61
  11  0.782  0.400  0.804- 132 2.11 162 2.14 103 2.51 107 2.59
  12  0.218  0.600  0.196- 145 1.88 175 1.91 131 2.11 104 2.51 108 2.59 167 2.61
  13  0.218  0.900  0.696- 187 1.91 126 2.11 150 2.25  99 2.51 109 2.59
  14  0.782  0.100  0.304- 186 1.91 125 2.11 166 2.25 100 2.51 110 2.59
  15  0.718  0.600  0.304- 185 1.91 130 2.11 101 2.51 111 2.59
  16  0.282  0.400  0.696- 152 1.88 170 1.91 129 2.11 102 2.51 112 2.59 168 2.61
  17  0.196  0.282  0.100- 167 1.87 178 1.91 128 2.11 156 2.25 105 2.51 113 2.59
  18  0.804  0.718  0.900- 176 1.91 127 2.11 154 2.12 106 2.51 114 2.59 158 2.61
  19  0.804  0.782  0.400- 188 1.91 130 2.11 166 2.14 144 2.25 111 2.51 115 2.59
  20  0.196  0.218  0.600- 184 1.91 129 2.11 163 2.12 150 2.14 112 2.51 116 2.59
  21  0.696  0.218  0.900- 161 1.87 179 1.91 132 2.11 107 2.51 117 2.59 142 2.61
  22  0.304  0.782  0.100- 172 1.91 131 2.11 155 2.12 160 2.14 148 2.25 108 2.51 118 2.59
  23  0.304  0.718  0.600- 168 1.87 174 1.91 126 2.11 109 2.51 119 2.59
  24  0.696  0.282  0.400- 171 1.91 125 2.11 110 2.51 120 2.59 157 2.61
  25  0.946  0.350  0.968- 162 1.87 173 1.91 134 2.11 113 2.51 107 2.59
  26  0.054  0.650  0.032- 182 1.91 134 2.11 158 2.12 145 2.14 114 2.51 108 2.59 155 2.61
  27  0.554  0.650  0.468- 183 1.91 133 2.11 119 2.51 111 2.59
  28  0.446  0.350  0.532- 133 2.11 157 2.12 152 2.14 120 2.51 112 2.59 163 2.61
  29  0.446  0.150  0.032- 169 1.91 135 2.11 142 2.12 117 2.51 105 2.59
  30  0.554  0.850  0.968- 137 1.87 190 1.91 135 2.11 118 2.51 106 2.59 154 2.61
  31  0.054  0.850  0.532- 189 1.91 136 2.11 115 2.51 109 2.59
  32  0.946  0.150  0.468- 180 1.91 136 2.11 116 2.51 110 2.59
  33  0.850  0.532  0.054- 176 1.91 134 2.11 158 2.14 149 2.25 107 2.51 101 2.59
  34  0.150  0.468  0.946- 156 1.87 178 1.91 134 2.11 167 2.12 146 2.25 108 2.51 102 2.59
  35  0.150  0.032  0.446- 184 1.91 136 2.11 109 2.51  97 2.59 164 2.61
  36  0.850  0.968  0.554- 144 1.87 188 1.91 136 2.11 110 2.51  98 2.59 140 2.61
  37  0.650  0.468  0.554- 171 1.91 133 2.11 157 2.14 111 2.51 103 2.59
  38  0.350  0.532  0.446- 174 1.91 133 2.11 168 2.12 139 2.25 112 2.51 104 2.59
  39  0.350  0.968  0.946- 148 1.87 172 1.91 135 2.11 143 2.25 105 2.51  99 2.59
  40  0.650  0.032  0.054- 179 1.91 135 2.11 161 2.12 142 2.14 138 2.25 106 2.51 100 2.59
  41  0.032  0.446  0.150- 175 1.91 134 2.11 145 2.12 167 2.14 101 2.51 113 2.59 159 2.61
  42  0.968  0.554  0.850- 134 2.11 151 2.25 102 2.51 114 2.59
  43  0.532  0.054  0.850- 177 1.91 135 2.11 161 2.14  99 2.51 117 2.59
  44  0.468  0.946  0.150- 160 1.88 181 1.91 135 2.11 165 2.25 100 2.51 118 2.59
  45  0.968  0.946  0.350- 166 1.88 186 1.91 136 2.11  97 2.51 115 2.59
  46  0.032  0.054  0.650- 150 1.88 187 1.91 136 2.11  98 2.51 116 2.59 147 2.61
  47  0.468  0.554  0.650- 170 1.91 133 2.11 152 2.12 168 2.14 153 2.25 103 2.51 119 2.59
  48  0.532  0.446  0.350- 185 1.91 133 2.11 104 2.51 120 2.59 141 2.61
  49  0.600  0.696  0.782- 190 1.91 127 2.11 137 2.12 154 2.14 119 2.51 103 2.59 153 2.61
  50  0.400  0.304  0.218- 169 1.91 128 2.11 141 2.25 120 2.51 104 2.59
  51  0.900  0.304  0.282- 180 1.91 125 2.11 159 2.25 113 2.51 101 2.59
  52  0.100  0.696  0.718- 189 1.91 126 2.11 114 2.51 102 2.59 151 2.61
  53  0.400  0.196  0.718- 129 2.11 163 2.14 117 2.51  99 2.59
  54  0.600  0.804  0.282- 183 1.91 130 2.11 118 2.51 100 2.59 165 2.61
  55  0.100  0.804  0.218- 182 1.91 131 2.11 155 2.14 115 2.51  97 2.59
  56  0.900  0.196  0.782- 173 1.91 132 2.11 162 2.12 147 2.25 116 2.51  98 2.59
  57  0.782  0.600  0.696- 151 1.88 127 2.11 103 2.51 111 2.59
  58  0.218  0.400  0.304- 175 1.91 128 2.11 159 2.14 104 2.51 112 2.59 139 2.61
  59  0.282  0.900  0.304- 165 1.88 181 1.91 131 2.11 160 2.12 164 2.25  97 2.51 109 2.59
  60  0.718  0.100  0.696- 177 1.91 132 2.11 140 2.25  98 2.51 110 2.59
  61  0.718  0.400  0.196- 185 1.91 125 2.11 141 2.14 101 2.51 107 2.59 149 2.61
  62  0.282  0.600  0.804- 153 1.88 170 1.91 126 2.11 102 2.51 108 2.59 146 2.61
  63  0.218  0.100  0.804- 187 1.91 129 2.11 150 2.12 147 2.14  99 2.51 105 2.59 143 2.61
  64  0.782  0.900  0.196- 186 1.91 130 2.11 166 2.12 100 2.51 106 2.59 138 2.61
  65  0.696  0.782  0.600- 188 1.91 127 2.11 144 2.12 140 2.14 111 2.51 119 2.59
  66  0.304  0.218  0.400- 184 1.91 128 2.11 164 2.14 163 2.25 112 2.51 120 2.59
  67  0.304  0.282  0.900- 146 1.87 178 1.91 129 2.11 156 2.12 105 2.51 117 2.59
  68  0.696  0.718  0.100- 149 1.87 176 1.91 130 2.11 154 2.25 106 2.51 118 2.59
  69  0.196  0.718  0.400- 139 1.87 174 1.91 131 2.11 109 2.51 115 2.59
  70  0.804  0.282  0.600- 171 1.91 132 2.11 110 2.51 116 2.59
  71  0.804  0.218  0.100- 138 1.87 179 1.91 125 2.11 107 2.51 113 2.59
  72  0.196  0.782  0.900- 143 1.87 172 1.91 126 2.11 148 2.12 155 2.25 108 2.51 114 2.59
  73  0.446  0.850  0.468- 183 1.91 122 2.11 165 2.14 119 2.51 109 2.59
  74  0.554  0.150  0.532- 122 2.11 157 2.25 120 2.51 110 2.59
  75  0.054  0.150  0.968- 147 1.87 173 1.91 121 2.11 113 2.51 105 2.59 156 2.61
  76  0.946  0.850  0.032- 182 1.91 121 2.11 158 2.25 114 2.51 106 2.59
  77  0.946  0.650  0.532- 189 1.91 123 2.11 151 2.14 115 2.51 111 2.59 144 2.61
  78  0.054  0.350  0.468- 159 1.87 180 1.91 123 2.11 116 2.51 112 2.59
  79  0.554  0.350  0.032- 141 1.87 169 1.91 124 2.11 142 2.25 117 2.51 107 2.59
  80  0.446  0.650  0.968- 190 1.91 124 2.11 153 2.14 118 2.51 108 2.59 148 2.61
  81  0.350  0.032  0.554- 163 1.87 184 1.91 122 2.11 109 2.51  99 2.59 150 2.61
  82  0.650  0.968  0.446- 188 1.91 122 2.11 110 2.51 100 2.59 166 2.61
  83  0.650  0.532  0.946- 154 1.87 176 1.91 124 2.11 149 2.12 107 2.51 103 2.59
  84  0.350  0.468  0.054- 178 1.91 124 2.11 146 2.12 167 2.25 108 2.51 104 2.59
  85  0.150  0.968  0.054- 155 1.87 172 1.91 121 2.11 143 2.12 105 2.51  97 2.59 160 2.61
  86  0.850  0.032  0.946- 179 1.91 121 2.11 138 2.12 161 2.25 106 2.51  98 2.59
  87  0.850  0.468  0.446- 171 1.91 123 2.11 111 2.51 101 2.59
  88  0.150  0.532  0.554- 174 1.91 123 2.11 139 2.12 168 2.25 112 2.51 102 2.59
  89  0.532  0.946  0.650- 140 1.88 177 1.91 122 2.11  99 2.51 119 2.59 137 2.61
  90  0.468  0.054  0.350- 164 1.88 181 1.91 122 2.11 165 2.12 100 2.51 120 2.59
  91  0.032  0.554  0.350- 175 1.91 123 2.11 139 2.14 145 2.25 101 2.51 115 2.59
  92  0.968  0.446  0.650- 123 2.11 151 2.12 102 2.51 116 2.59 162 2.61
  93  0.468  0.446  0.850- 170 1.91 124 2.11 153 2.12 146 2.14 152 2.25 103 2.51 117 2.59
  94  0.532  0.554  0.150- 185 1.91 124 2.11 149 2.14 104 2.51 118 2.59
  95  0.968  0.054  0.150- 186 1.91 121 2.11 138 2.14  97 2.51 113 2.59
  96  0.032  0.946  0.850- 187 1.91 121 2.11 143 2.14  98 2.51 114 2.59
  97  0.125  0.000  0.250-  45 2.51  95 2.51   9 2.51  59 2.51   1 2.59  85 2.59  35 2.59  55 2.59
                           160 2.99 164 2.99 181 3.24 186 3.24 155 3.35 128 3.62 131 3.62 136 3.62
  98  0.875  0.000  0.750-  60 2.51  10 2.51  96 2.51  46 2.51  56 2.59   2 2.59  86 2.59  36 2.59
                           140 2.99 177 3.24 187 3.24 161 3.26 147 3.26 144 3.35 132 3.62 136 3.62
  99  0.375  0.000  0.750-  63 2.51  13 2.51  89 2.51  43 2.51  53 2.59   3 2.59  81 2.59  39 2.59
                           150 2.99 177 3.24 187 3.24 137 3.26 143 3.26 148 3.35 163 3.35 135 3.62
 100  0.625  0.000  0.250-  44 2.51  90 2.51  14 2.51  64 2.51  40 2.59  82 2.59   4 2.59  54 2.59
                           166 2.99 165 2.99 181 3.24 186 3.24 138 3.26 142 3.35 130 3.62 135 3.62
 101  0.875  0.500  0.250-  91 2.51  61 2.51  41 2.51  15 2.51  33 2.59  87 2.59  51 2.59   5 2.59
                           145 2.99 175 3.24 185 3.24 149 3.26 159 3.26 158 3.35 130 3.62 134 3.62
 102  0.125  0.500  0.750-  16 2.51  42 2.51  62 2.51  92 2.51   6 2.59  52 2.59  88 2.59  34 2.59
                           151 2.99 170 3.24 162 3.26 168 3.26 146 3.26 156 3.35 129 3.62 134 3.62
 103  0.625  0.500  0.750-  11 2.51  47 2.51  57 2.51  93 2.51   7 2.59  37 2.59  83 2.59  49 2.59
                           152 2.99 153 2.99 170 3.24 157 3.35 154 3.35 127 3.62 132 3.62 133 3.62
 104  0.375  0.500  0.250-  94 2.51  58 2.51  48 2.51  12 2.51  38 2.59  84 2.59  50 2.59   8 2.59
                           175 3.24 185 3.24 141 3.26 167 3.26 139 3.26 128 3.62 131 3.62 133 3.62
 105  0.250  0.125  0.000-  17 2.51  67 2.51  39 2.51  85 2.51   9 2.59  63 2.59  75 2.59  29 2.59
                           143 2.99 156 2.99 172 3.24 178 3.24 160 3.26 147 3.35 128 3.62 129 3.62
 106  0.750  0.875  0.000-  68 2.51  18 2.51  86 2.51  40 2.51  64 2.59  10 2.59  76 2.59  30 2.59
                           161 2.99 138 2.99 154 2.99 176 3.24 179 3.24 158 3.26 137 3.35 130 3.62
 107  0.750  0.375  0.000-  71 2.51  21 2.51  83 2.51  33 2.51  61 2.59  11 2.59  79 2.59  25 2.59
                           149 2.99 176 3.24 179 3.24 142 3.26 141 3.35 162 3.35 125 3.62 132 3.62
 108  0.250  0.625  0.000-  22 2.51  72 2.51  34 2.51  84 2.51  12 2.59  62 2.59  80 2.59  26 2.59
                           146 2.99 167 2.99 148 2.99 155 2.99 172 3.24 178 3.24 145 3.35 153 3.35
 109  0.250  0.875  0.500-  69 2.51  23 2.51  81 2.51  35 2.51  59 2.59  13 2.59  73 2.59  31 2.59
                           174 3.24 184 3.24 150 3.26 164 3.26 165 3.35 131 3.62 126 3.62 136 3.62
 110  0.750  0.125  0.500-  24 2.51  70 2.51  36 2.51  82 2.51  14 2.59  60 2.59  74 2.59  32 2.59
                           171 3.24 188 3.24 140 3.26 166 3.26 157 3.26 132 3.62 125 3.62 136 3.62
 111  0.750  0.625  0.500-  19 2.51  65 2.51  37 2.51  87 2.51  15 2.59  57 2.59  77 2.59  27 2.59
                           144 2.99 171 3.24 188 3.24 151 3.35 127 3.62 130 3.62 123 3.62 133 3.62
 112  0.250  0.375  0.500-  66 2.51  20 2.51  88 2.51  38 2.51  58 2.59  16 2.59  78 2.59  28 2.59
                           139 2.99 168 2.99 163 2.99 174 3.24 184 3.24 152 3.35 159 3.35 129 3.62
 113  0.000  0.250  0.125-  25 2.51  75 2.51   1 2.51  51 2.51  41 2.59  95 2.59  17 2.59  71 2.59
                           159 2.99 173 3.24 180 3.24 156 3.26 167 3.35 138 3.35 121 3.62 134 3.62
 114  0.000  0.750  0.875-  76 2.51  26 2.51  52 2.51   2 2.51  42 2.59  96 2.59  72 2.59  18 2.59
                           158 2.99 182 3.24 189 3.24 151 3.26 155 3.26 143 3.35 121 3.62 134 3.62
 115  0.000  0.750  0.375-  77 2.51  31 2.51  55 2.51   5 2.51  45 2.59  91 2.59  69 2.59  19 2.59
                           182 3.24 189 3.24 145 3.26 144 3.26 166 3.35 139 3.35 123 3.62 136 3.62
 116  0.000  0.250  0.625-  32 2.51  78 2.51   6 2.51  56 2.51  46 2.59  92 2.59  20 2.59  70 2.59
                           162 2.99 147 2.99 173 3.24 180 3.24 150 3.35 136 3.62 123 3.62 129 3.62
 117  0.500  0.250  0.875-  79 2.51  29 2.51  53 2.51   7 2.51  43 2.59  93 2.59  67 2.59  21 2.59
                           142 2.99 169 3.24 152 3.26 146 3.35 161 3.35 135 3.62 124 3.62 129 3.62
 118  0.500  0.750  0.125-  30 2.51  80 2.51   8 2.51  54 2.51  44 2.59  94 2.59  22 2.59  68 2.59
                           183 3.24 190 3.24 165 3.26 154 3.26 148 3.26 160 3.35 149 3.35 135 3.62
 119  0.500  0.750  0.625-  27 2.51  73 2.51   3 2.51  49 2.51  47 2.59  89 2.59  23 2.59  65 2.59
                           137 2.99 183 3.24 190 3.24 153 3.26 140 3.35 168 3.35 122 3.62 133 3.62
 120  0.500  0.250  0.375-  74 2.51  28 2.51  50 2.51   4 2.51  48 2.59  90 2.59  66 2.59  24 2.59
                           141 2.99 157 2.99 169 3.24 163 3.26 164 3.35 133 3.62 122 3.62 125 3.62
 121  0.000  0.000  0.000-  96 2.11  95 2.11  76 2.11  75 2.11  86 2.11  85 2.11 143 2.91 138 2.91
                           147 3.11 155 3.11 113 3.62 114 3.62  97 3.62  98 3.62 105 3.62 106 3.62
 122  0.500  0.000  0.500-  89 2.11  90 2.11  73 2.11  74 2.11  82 2.11  81 2.11 165 2.91 163 3.11
                           140 3.11 164 3.11 119 3.62 120 3.62  99 3.62 100 3.62 109 3.62 110 3.62
 123  0.000  0.500  0.500-  92 2.11  91 2.11  77 2.11  78 2.11  87 2.11  88 2.11 151 2.91 139 2.91
                           159 3.11 116 3.62 115 3.62 102 3.62 101 3.62 112 3.62 111 3.62
 124  0.500  0.500  0.000-  93 2.11  94 2.11  80 2.11  79 2.11  83 2.11  84 2.11 153 2.91 146 2.91
                           149 2.91 141 3.11 154 3.11 118 3.62 117 3.62 190 3.62 103 3.62 104 3.62
 125  0.750  0.250  0.250-  14 2.11  61 2.11  71 2.11  24 2.11   4 2.11  51 2.11 141 2.91 138 3.11
                           142 3.11 110 3.62 107 3.62 101 3.62 100 3.62 120 3.62 113 3.62
 126  0.250  0.750  0.750-  13 2.11  62 2.11  23 2.11  72 2.11  52 2.11   3 2.11 148 2.91 143 3.11
                           168 3.11 153 3.11 108 3.62 109 3.62  99 3.62 102 3.62 114 3.62 119 3.62
 127  0.750  0.750  0.750-  10 2.11  57 2.11  18 2.11  65 2.11   2 2.11  49 2.11 140 2.91 144 2.91
                           154 2.91 137 2.91 151 3.11 111 3.62 106 3.62 103 3.62  98 3.62 119 3.62
 128  0.250  0.250  0.250-   9 2.11  58 2.11  17 2.11  66 2.11   1 2.11  50 2.11 164 2.91 159 2.91
                           167 3.11 112 3.62 105 3.62 104 3.62  97 3.62 120 3.62 113 3.62
 129  0.250  0.250  0.750-  63 2.11  16 2.11  20 2.11  67 2.11   6 2.11  53 2.11 150 2.91 156 2.91
                           163 2.91 147 2.91 146 3.11 152 3.11 105 3.62 112 3.62  99 3.62 102 3.62
 130  0.750  0.750  0.250-  15 2.11  64 2.11  68 2.11  19 2.11   5 2.11  54 2.11 166 2.91 149 3.11
                           158 3.11 111 3.62 106 3.62 101 3.62 100 3.62 118 3.62 115 3.62
 131  0.250  0.750  0.250-  12 2.11  59 2.11  22 2.11  69 2.11  55 2.11   8 2.11 160 2.91 155 2.91
                           139 3.11 145 3.11 165 3.11 109 3.62 108 3.62 104 3.62  97 3.62 118 3.62
 132  0.750  0.250  0.750-  60 2.11  11 2.11  21 2.11  70 2.11   7 2.11  56 2.11 162 2.91 161 3.11
                           157 3.11 110 3.62 107 3.62 103 3.62  98 3.62 117 3.62 116 3.62
 133  0.500  0.500  0.500-  47 2.11  48 2.11  27 2.11  28 2.11  37 2.11  38 2.11 152 2.91 157 2.91
                           168 2.91 120 3.62 119 3.62 104 3.62 103 3.62 112 3.62 111 3.62
 134  0.000  0.500  0.000-  42 2.11  41 2.11  26 2.11  25 2.11  33 2.11  34 2.11 145 2.91 158 2.91
                           167 2.91 162 3.11 156 3.11 114 3.62 113 3.62 102 3.62 101 3.62 108 3.62
 135  0.500  0.000  0.000-  43 2.11  44 2.11  30 2.11  29 2.11  40 2.11  39 2.11 142 2.91 161 2.91
                           137 3.11 148 3.11 160 3.11 118 3.62 117 3.62 190 3.62  99 3.62 100 3.62
 136  0.000  0.000  0.500-  46 2.11  45 2.11  31 2.11  32 2.11  36 2.11  35 2.11 144 3.11 166 3.11
                           150 3.11 116 3.62 115 3.62  98 3.62  97 3.62 110 3.62 109 3.62
 137  0.562  0.849  0.824- 190 1.66  30 1.87  49 2.12  10 2.14   3 2.25 177 2.33  89 2.61 127 2.91
                           154 2.92 140 2.92 119 2.99 135 3.11 148 3.15  99 3.26 106 3.35
 138  0.812  0.074  0.099- 179 1.66  71 1.87  86 2.12  95 2.14  40 2.25 186 2.33  64 2.61 121 2.91
                           106 2.99 161 3.04 125 3.11 142 3.15 100 3.26 113 3.35
 139  0.188  0.574  0.401- 174 1.66  69 1.87  88 2.12  91 2.14  38 2.25 175 2.33  58 2.61 123 2.91
                           112 2.99 168 3.04 131 3.11 145 3.15 104 3.26 115 3.35
 140  0.676  0.938  0.651- 177 1.66  89 1.88  10 2.12  65 2.14  60 2.25 188 2.33  36 2.61 127 2.91
                           137 2.92 144 2.92  98 2.99 122 3.11 110 3.26 119 3.35
 141  0.562  0.349  0.176- 169 1.66  79 1.87   4 2.12  61 2.14  50 2.25 185 2.33 142 2.52  48 2.61
                           125 2.91 120 2.99 124 3.11 104 3.26 107 3.35
 142  0.599  0.188  0.074- 169 1.66   4 1.87  29 2.12  40 2.14  79 2.25 179 2.33 141 2.52  21 2.61
                           135 2.91 161 2.92 117 2.99 125 3.11 138 3.15 107 3.26 100 3.35
 143  0.188  0.926  0.901- 172 1.66  72 1.87  85 2.12  96 2.14  39 2.25 187 2.33 155 2.52 148 2.52
                            63 2.61 121 2.91 105 2.99 126 3.11  99 3.26 114 3.35
 144  0.849  0.824  0.562- 188 1.66  36 1.87  65 2.12   2 2.14  19 2.25 189 2.33  77 2.61 127 2.91
                           140 2.92 111 2.99 136 3.11 166 3.15 115 3.26  98 3.35
 145  0.074  0.599  0.188- 175 1.66  12 1.88  41 2.12  26 2.14  91 2.25 182 2.33   5 2.61 134 2.91
                           167 2.92 158 2.92 101 2.99 131 3.11 139 3.15 115 3.26 108 3.35
 146  0.312  0.426  0.901- 178 1.66  67 1.87  84 2.12  93 2.14  34 2.25 170 2.33 156 2.52  62 2.61
                           124 2.91 153 2.92 108 2.99 167 3.04 129 3.11 152 3.15 102 3.26 117 3.35
 147  0.062  0.151  0.824- 173 1.66  75 1.87   6 2.12  63 2.14  56 2.25 187 2.33  46 2.61 129 2.91
                           156 2.92 150 2.92 116 2.99 162 3.04 121 3.11  98 3.26 105 3.35
 148  0.349  0.824  0.938- 172 1.66  39 1.87  72 2.12   3 2.14  22 2.25 190 2.33 143 2.52  80 2.61
                           126 2.91 108 2.99 155 3.04 135 3.11 160 3.15 137 3.15 118 3.26  99 3.35
 149  0.688  0.574  0.099- 176 1.66  68 1.87  83 2.12  94 2.14  33 2.25 185 2.33 154 2.52  61 2.61
                           124 2.91 107 2.99 130 3.11 158 3.15 101 3.26 118 3.35
 150  0.176  0.062  0.651- 187 1.66  46 1.88  63 2.12  20 2.14  13 2.25 184 2.33  81 2.61 129 2.91
                           147 2.92 163 2.92  99 2.99 136 3.11 109 3.26 116 3.35
 151  0.926  0.599  0.688-  57 1.88  92 2.12  77 2.14  42 2.25 189 2.33  52 2.61 123 2.91 102 2.99
                           127 3.11 114 3.26 111 3.35
 152  0.426  0.401  0.688- 170 1.66  16 1.88  47 2.12  28 2.14  93 2.25   7 2.61 133 2.91 168 2.92
                           157 2.92 103 2.99 153 3.04 129 3.11 146 3.15 117 3.26 112 3.35
 153  0.426  0.599  0.812- 170 1.66  62 1.88  93 2.12  80 2.14  47 2.25 190 2.33  49 2.61 124 2.91
                           146 2.92 103 2.99 152 3.04 126 3.11 168 3.15 119 3.26 108 3.35
 154  0.651  0.676  0.938- 176 1.66  83 1.87  18 2.12  49 2.14  68 2.25 190 2.33 149 2.52  30 2.61
                           127 2.91 137 2.92 106 2.99 124 3.11 118 3.26 103 3.35
 155  0.151  0.824  0.062- 172 1.66  85 1.87  22 2.12  55 2.14  72 2.25 182 2.33 143 2.52  26 2.61
                           131 2.91 160 2.92 108 2.99 148 3.04 121 3.11 114 3.26  97 3.35
 156  0.151  0.324  0.938- 178 1.66  34 1.87  67 2.12   6 2.14  17 2.25 173 2.33 167 2.52 146 2.52
                            75 2.61 129 2.91 147 2.92 105 2.99 134 3.11 162 3.15 113 3.26 102 3.35
 157  0.599  0.312  0.574-   7 1.87  28 2.12  37 2.14  74 2.25 171 2.33  24 2.61 133 2.91 152 2.92
                           120 2.99 132 3.11 110 3.26 103 3.35
 158  0.901  0.688  0.074- 182 1.66   5 1.87  26 2.12  33 2.14  76 2.25 176 2.33  18 2.61 134 2.91
                           145 2.92 114 2.99 130 3.11 149 3.15 106 3.26 101 3.35
 159  0.062  0.349  0.324- 180 1.66  78 1.87   1 2.12  58 2.14  51 2.25 175 2.33  41 2.61 128 2.91
                           113 2.99 123 3.11 101 3.26 112 3.35
 160  0.324  0.938  0.151- 181 1.66  44 1.88  59 2.12  22 2.14   9 2.25 172 2.33 165 2.52  85 2.61
                           131 2.91 155 2.92  97 2.99 164 3.04 135 3.11 148 3.15 105 3.26 118 3.35
 161  0.688  0.074  0.901- 179 1.66  21 1.87  40 2.12  43 2.14  86 2.25 177 2.33  10 2.61 135 2.91
                           142 2.92 106 2.99 138 3.04 132 3.11  98 3.26 117 3.35
 162  0.938  0.349  0.824- 173 1.66  25 1.87  56 2.12  11 2.14   6 2.25  92 2.61 132 2.91 116 2.99
                           147 3.04 134 3.11 156 3.15 102 3.26 107 3.35
 163  0.349  0.176  0.562- 184 1.66  81 1.87  20 2.12  53 2.14  66 2.25  28 2.61 129 2.91 150 2.92
                           112 2.99 122 3.11 164 3.15 120 3.26  99 3.35
 164  0.324  0.062  0.349- 181 1.66  90 1.88   9 2.12  66 2.14  59 2.25 184 2.33 165 2.52  35 2.61
                           128 2.91  97 2.99 160 3.04 122 3.11 163 3.15 109 3.26 120 3.35
 165  0.426  0.901  0.312- 181 1.66  59 1.88  90 2.12  73 2.14  44 2.25 183 2.33 164 2.52 160 2.52
                            54 2.61 122 2.91 100 2.99 131 3.11 118 3.26 109 3.35
 166  0.824  0.938  0.349- 186 1.66  45 1.88  64 2.12  19 2.14  14 2.25 188 2.33  82 2.61 130 2.91
                           100 2.99 136 3.11 144 3.15 110 3.26 115 3.35
 167  0.188  0.426  0.099- 178 1.66  17 1.87  34 2.12  41 2.14  84 2.25 175 2.33 156 2.52  12 2.61
                           134 2.91 145 2.92 108 2.99 146 3.04 128 3.11 104 3.26 113 3.35
 168  0.312  0.574  0.599- 174 1.66  23 1.87  38 2.12  47 2.14  88 2.25 170 2.33  16 2.61 133 2.91
                           152 2.92 112 2.99 139 3.04 126 3.11 153 3.15 102 3.26 119 3.35
 169  0.500  0.250  0.125- 141 1.66 142 1.66  79 1.91  29 1.91  50 1.91   4 1.91 117 3.24 120 3.24

 170  0.375  0.500  0.750- 152 1.66 153 1.66  16 1.91  47 1.91  62 1.91  93 1.91 146 2.33 168 2.33
                           102 3.24 103 3.24
 171  0.750  0.375  0.500-  24 1.91  70 1.91  37 1.91  87 1.91 157 2.33 111 3.24 110 3.24
 172  0.250  0.875  0.000- 143 1.66 148 1.66 155 1.66  22 1.91  72 1.91  39 1.91  85 1.91 160 2.33
                           105 3.24 108 3.24
 173  0.000  0.250  0.875- 162 1.66 147 1.66  25 1.91  75 1.91   6 1.91  56 1.91 156 2.33 116 3.24
                           113 3.24
 174  0.250  0.625  0.500- 139 1.66 168 1.66  69 1.91  23 1.91  88 1.91  38 1.91 109 3.24 112 3.24

 175  0.125  0.500  0.250- 145 1.66  91 1.91  41 1.91  58 1.91  12 1.91 167 2.33 159 2.33 139 2.33
                           101 3.24 104 3.24
 176  0.750  0.625  0.000- 149 1.66 154 1.66  68 1.91  18 1.91  83 1.91  33 1.91 158 2.33 107 3.24
                           106 3.24
 177  0.625  0.000  0.750- 140 1.66  60 1.91  89 1.91  10 1.91  43 1.91 137 2.33 161 2.33  99 3.24
                            98 3.24
 178  0.250  0.375  0.000- 146 1.66 167 1.66 156 1.66  17 1.91  67 1.91  34 1.91  84 1.91 108 3.24
                           105 3.24
 179  0.750  0.125  0.000- 161 1.66 138 1.66  71 1.91  21 1.91  86 1.91  40 1.91 142 2.33 107 3.24
                           106 3.24
 180  0.000  0.250  0.375- 159 1.66  32 1.91  78 1.91   1 1.91  51 1.91 116 3.24 113 3.24
 181  0.375  0.000  0.250- 160 1.66 164 1.66 165 1.66  44 1.91  90 1.91   9 1.91  59 1.91 100 3.24
                            97 3.24
 182  0.000  0.750  0.125- 158 1.66  76 1.91  26 1.91  55 1.91   5 1.91 145 2.33 155 2.33 115 3.24
                           114 3.24
 183  0.500  0.750  0.375-  27 1.91  73 1.91   8 1.91  54 1.91 165 2.33 119 3.24 118 3.24
 184  0.250  0.125  0.500- 163 1.66  66 1.91  20 1.91  81 1.91  35 1.91 150 2.33 164 2.33 112 3.24
                           109 3.24
 185  0.625  0.500  0.250-  94 1.91  61 1.91  48 1.91  15 1.91 149 2.33 141 2.33 101 3.24 104 3.24

 186  0.875  0.000  0.250- 166 1.66  45 1.91  95 1.91  14 1.91  64 1.91 138 2.33  97 3.24 100 3.24

 187  0.125  0.000  0.750- 150 1.66  63 1.91  96 1.91  13 1.91  46 1.91 147 2.33 143 2.33  99 3.24
                            98 3.24
 188  0.750  0.875  0.500- 144 1.66  19 1.91  65 1.91  36 1.91  82 1.91 140 2.33 166 2.33 111 3.24
                           110 3.24
 189  0.000  0.750  0.625-  77 1.91  31 1.91  52 1.91   2 1.91 151 2.33 144 2.33 114 3.24 115 3.24

 190  0.500  0.750  0.875- 137 1.66  30 1.91  80 1.91   3 1.91  49 1.91 153 2.33 148 2.33 154 2.33
                           118 3.24 119 3.24 124 3.62 135 3.62 127 3.62 126 3.62
 

IMPORTANT INFORMATION: All symmetrisations will be switched off!
NOSYMM: (Re-)initialisation of all symmetry stuff for point group C_1.

 
 
 KPOINTS: K-Points                                

Automatic generation of k-mesh.
Space group operators:
 irot       det(A)        alpha          n_x          n_y          n_z        tau_x        tau_y        tau_z
    1     1.000000     0.000000     1.000000     0.000000     0.000000     0.000000     0.000000     0.000000
 
 Subroutine IBZKPT returns following result:
 ===========================================
 
 Found      1 irreducible k-points:
 
 Following reciprocal coordinates:
            Coordinates               Weight
  0.000000  0.000000  0.000000      1.000000
 
 Following cartesian coordinates:
            Coordinates               Weight
  0.000000  0.000000  0.000000      1.000000
 


--------------------------------------------------------------------------------------------------------




 Dimension of arrays:
   k-points           NKPTS =      1   k-points in BZ     NKDIM =      1   number of bands    NBANDS=    656
   number of dos      NEDOS =    301   number of ions     NIONS =    190
   non local maximal  LDIM  =      8   non local SUM 2l+1 LMDIM =     32
   total plane-waves  NPLWV = 884736
   max r-space proj   IRMAX =   7820   max aug-charges    IRDMAX=  21410
   dimension x,y,z NGX =    96 NGY =   96 NGZ =   96
   dimension x,y,z NGXF=   192 NGYF=  192 NGZF=  192
   support grid    NGXF=   192 NGYF=  192 NGZF=  192
   ions per type =              96  24  16  53   1
   NGX,Y,Z   is equivalent  to a cutoff of  12.31, 12.31, 12.31 a.u.
   NGXF,Y,Z  is equivalent  to a cutoff of  24.62, 24.62, 24.62 a.u.

 SYSTEM =  unknown system                          
 POSCAR =  LLZO_Ia3d_Al10_partial_99               

 Startparameter for this run:
   NWRITE =      2    write-flag & timer
   PREC   = accura    normal or accurate (medium, high low for compatibility)
   ISTART =      0    job   : 0-new  1-cont  2-samecut
   ICHARG =      2    charge: 1-file 2-atom 10-const
   ISPIN  =      1    spin polarized calculation?
   LNONCOLLINEAR =      F non collinear calculations
   LSORBIT =      F    spin-orbit coupling
   INIWAV =      1    electr: 0-lowe 1-rand  2-diag
   LASPH  =      F    aspherical Exc in radial PAW
   METAGGA=      F    non-selfconsistent MetaGGA calc.

 Electronic Relaxation 1
   ENCUT  =  500.0 eV  36.75 Ry    6.06 a.u.  23.64 23.64 23.64*2*pi/ulx,y,z
   ENINI  =  500.0     initial cutoff
   ENAUG  =  605.4 eV  augmentation charge cutoff
   NELM   =     60;   NELMIN=  2; NELMDL=  0     # of ELM steps 
   EDIFF  = 0.1E-05   stopping-criterion for ELM
   LREAL  =      T    real-space projection
   NLSPLINE    = F    spline interpolate recip. space projectors
   LCOMPAT=      F    compatible to vasp.4.4
   GGA_COMPAT  = T    GGA compatible to vasp.4.4-vasp.4.6
   LMAXPAW     = -100 max onsite density
   LMAXMIX     =    2 max onsite mixed and CHGCAR
   VOSKOWN=      0    Vosko Wilk Nusair interpolation
   ROPT   =   -0.00025  -0.00025  -0.00025  -0.00025
   ROPT   =   -0.00025
 Ionic relaxation
   EDIFFG = -.1E-01   stopping-criterion for IOM
   NSW    =     20    number of steps for IOM
   NBLOCK =      1;   KBLOCK =     20    inner block; outer block 
   IBRION =      1    ionic relax: 0-MD 1-quasi-New 2-CG
   NFREE  =      0    steps in history (QN), initial steepest desc. (CG)
   ISIF   =      2    stress and relaxation
   IWAVPR =     11    prediction:  0-non 1-charg 2-wave 3-comb
   ISYM   =      0    0-nonsym 1-usesym 2-fastsym
   LCORR  =      T    Harris-Foulkes like correction to forces

   POTIM  = 0.5000    time-step for ionic-motion
   TEIN   =    0.0    initial temperature
   TEBEG  =    0.0;   TEEND  =   0.0 temperature during run
   SMASS  =  -3.00    Nose mass-parameter (am)
   estimated Nose-frequenzy (Omega)   =  0.10E-29 period in steps =****** mass=  -0.384E-26a.u.
   SCALEE = 1.0000    scale energy and forces
   NPACO  =    256;   APACO  = 16.0  distance and # of slots for P.C.
   PSTRESS=    0.0 pullay stress

  Mass of Ions in am
   POMASS =  16.00138.90 91.22  7.01 26.98
  Ionic Valenz
   ZVAL   =   6.00 11.00 12.00  1.00  3.00
  Atomic Wigner-Seitz radii
   RWIGS  =  -1.00 -1.00 -1.00 -1.00 -1.00
  virtual crystal weights 
   VCA    =   1.00  1.00  1.00  1.00  1.00
   NELECT =    1088.0000    total number of electrons
   NUPDOWN=      -1.0000    fix difference up-down

 DOS related values:
   EMIN   =  10.00;   EMAX   =-10.00  energy-range for DOS
   EFERMI =   0.00
   ISMEAR =     0;   SIGMA  =   0.20  broadening in eV -4-tet -1-fermi 0-gaus

 Electronic relaxation 2 (details)
   IALGO  =     38    algorithm
   LDIAG  =      T    sub-space diagonalisation (order eigenvalues)
   LSUBROT=      F    optimize rotation matrix (better conditioning)
   TURBO    =      0    0=normal 1=particle mesh
   IRESTART =      0    0=no restart 2=restart with 2 vectors
   NREBOOT  =      0    no. of reboots
   NMIN     =      0    reboot dimension
   EREF     =   0.00    reference energy to select bands
   IMIX   =      4    mixing-type and parameters
     AMIX     =   0.40;   BMIX     =  1.00
     AMIX_MAG =   1.60;   BMIX_MAG =  1.00
     AMIN     =   0.10
     WC   =   100.;   INIMIX=   1;  MIXPRE=   1;  MAXMIX= -45

 Intra band minimization:
   WEIMIN = 0.0010     energy-eigenvalue tresh-hold
   EBREAK =  0.38E-09  absolut break condition
   DEPER  =   0.30     relativ break condition  

   TIME   =   0.40     timestep for ELM

  volume/ion in A,a.u.               =      11.47        77.40
  Fermi-wavevector in a.u.,A,eV,Ry     =   1.298703  2.454192 22.947972  1.686628
  Thomas-Fermi vector in A             =   2.430014
 
 Write flags
   LWAVE        =      F    write WAVECAR
   LDOWNSAMPLE  =      F    k-point downsampling of WAVECAR
   LCHARG       =      F    write CHGCAR
   LVTOT        =      F    write LOCPOT, total local potential
   LVHAR        =      F    write LOCPOT, Hartree potential only
   LELF         =      F    write electronic localiz. function (ELF)
   LORBIT       =      0    0 simple, 1 ext, 2 COOP (PROOUT), +10 PAW based schemes


 Dipole corrections
   LMONO  =      F    monopole corrections only (constant potential shift)
   LDIPOL =      F    correct potential (dipole corrections)
   IDIPOL =      0    1-x, 2-y, 3-z, 4-all directions 
   EPSILON=  1.0000000 bulk dielectric constant

 Exchange correlation treatment:
   GGA     =    --    GGA type
   LEXCH   =     8    internal setting for exchange type
   VOSKOWN=      0    Vosko Wilk Nusair interpolation
   LHFCALC =     F    Hartree Fock is set to
   LHFONE  =     F    Hartree Fock one center treatment
   AEXX    =    0.0000 exact exchange contribution

 Linear response parameters
   LEPSILON=     F    determine dielectric tensor
   LRPA    =     F    only Hartree local field effects (RPA)
   LNABLA  =     F    use nabla operator in PAW spheres
   LVEL    =     F    velocity operator in full k-point grid
   LINTERFAST=   F  fast interpolation
   KINTER  =     0    interpolate to denser k-point grid
   CSHIFT  =0.1000    complex shift for real part using Kramers Kronig
   OMEGAMAX=  -1.0    maximum frequency
   DEG_THRESHOLD= 0.2000000E-02 threshold for treating states as degnerate
   RTIME   =   -0.100 relaxation time in fs
  (WPLASMAI=    0.000 imaginary part of plasma frequency in eV, 0.658/RTIME)
   DFIELD  = 0.0000000 0.0000000 0.0000000 field for delta impulse in time
 
 Orbital magnetization related:
   ORBITALMAG=     F  switch on orbital magnetization
   LCHIMAG   =     F  perturbation theory with respect to B field
   DQ        =  0.001000  dq finite difference perturbation B field
   LLRAUG    =     F  two centre corrections for induced B field



--------------------------------------------------------------------------------------------------------


 quasi-Newton-method for relaxation of ions
 charge density and potential will be updated during run
 non-spin polarized calculation
 Variant of blocked Davidson
 Davidson routine will perform the subspace rotation
 perform sub-space diagonalisation
    after iterative eigenvector-optimisation
 modified Broyden-mixing scheme, WC =      100.0
 initial mixing is a Kerker type mixing with AMIX =  0.4000 and BMIX =      1.0000
 Hartree-type preconditioning will be used
 using additional bands          112
 real space projection scheme for non local part
 use partial core corrections
 calculate Harris-corrections to forces 
   (improved forces if not selfconsistent)
 use gradient corrections 
 use of overlap-Matrix (Vanderbilt PP)
 Gauss-broadening in eV      SIGMA  =   0.20


--------------------------------------------------------------------------------------------------------


  energy-cutoff  :      500.00
  volume of cell :     2179.34
      direct lattice vectors                 reciprocal lattice vectors
    12.965200424  0.000000000  0.000000000     0.077129544  0.000000000  0.000000000
     0.000000000 12.965000153  0.000000000     0.000000000  0.077130736  0.000000000
     0.000000000  0.000000000 12.965000153     0.000000000  0.000000000  0.077130736

  length of vectors
    12.965200424 12.965000153 12.965000153     0.077129544  0.077130736  0.077130736


 
 k-points in units of 2pi/SCALE and weight: K-Points                                
   0.00000000  0.00000000  0.00000000       1.000
 
 k-points in reciprocal lattice and weights: K-Points                                
   0.00000000  0.00000000  0.00000000       1.000
 
 position of ions in fractional coordinates (direct lattice) 
   0.10000000  0.19560000  0.28160000
   0.89999998  0.80439997  0.71840000
   0.40000001  0.80439997  0.78160000
   0.60000002  0.19560000  0.21840000
   0.89999998  0.69560003  0.21840000
   0.10000000  0.30440000  0.78160000
   0.60000002  0.30440000  0.71840000
   0.40000001  0.69560003  0.28160000
   0.28160000  0.10000000  0.19560000
   0.71840000  0.89999998  0.80439997
   0.78160000  0.40000001  0.80439997
   0.21840000  0.60000002  0.19560000
   0.21840000  0.89999998  0.69560003
   0.78160000  0.10000000  0.30440000
   0.71840000  0.60000002  0.30440000
   0.28160000  0.40000001  0.69560003
   0.19560000  0.28160000  0.10000000
   0.80439997  0.71840000  0.89999998
   0.80439997  0.78160000  0.40000001
   0.19560000  0.21840000  0.60000002
   0.69560003  0.21840000  0.89999998
   0.30440000  0.78160000  0.10000000
   0.30440000  0.71840000  0.60000002
   0.69560003  0.28160000  0.40000001
   0.94560003  0.34999999  0.96840000
   0.05440000  0.64999998  0.03160000
   0.55439997  0.64999998  0.46840000
   0.44560000  0.34999999  0.53160000
   0.44560000  0.15000001  0.03160000
   0.55439997  0.85000002  0.96840000
   0.05440000  0.85000002  0.53160000
   0.94560003  0.15000001  0.46840000
   0.85000002  0.53160000  0.05440000
   0.15000001  0.46840000  0.94560003
   0.15000001  0.03160000  0.44560000
   0.85000002  0.96840000  0.55439997
   0.64999998  0.46840000  0.55439997
   0.34999999  0.53160000  0.44560000
   0.34999999  0.96840000  0.94560003
   0.64999998  0.03160000  0.05440000
   0.03160000  0.44560000  0.15000001
   0.96840000  0.55439997  0.85000002
   0.53160000  0.05440000  0.85000002
   0.46840000  0.94560003  0.15000001
   0.96840000  0.94560003  0.34999999
   0.03160000  0.05440000  0.64999998
   0.46840000  0.55439997  0.64999998
   0.53160000  0.44560000  0.34999999
   0.60000002  0.69560003  0.78160000
   0.40000001  0.30440000  0.21840000
   0.89999998  0.30440000  0.28160000
   0.10000000  0.69560003  0.71840000
   0.40000001  0.19560000  0.71840000
   0.60000002  0.80439997  0.28160000
   0.10000000  0.80439997  0.21840000
   0.89999998  0.19560000  0.78160000
   0.78160000  0.60000002  0.69560003
   0.21840000  0.40000001  0.30440000
   0.28160000  0.89999998  0.30440000
   0.71840000  0.10000000  0.69560003
   0.71840000  0.40000001  0.19560000
   0.28160000  0.60000002  0.80439997
   0.21840000  0.10000000  0.80439997
   0.78160000  0.89999998  0.19560000
   0.69560003  0.78160000  0.60000002
   0.30440000  0.21840000  0.40000001
   0.30440000  0.28160000  0.89999998
   0.69560003  0.71840000  0.10000000
   0.19560000  0.71840000  0.40000001
   0.80439997  0.28160000  0.60000002
   0.80439997  0.21840000  0.10000000
   0.19560000  0.78160000  0.89999998
   0.44560000  0.85000002  0.46840000
   0.55439997  0.15000001  0.53160000
   0.05440000  0.15000001  0.96840000
   0.94560003  0.85000002  0.03160000
   0.94560003  0.64999998  0.53160000
   0.05440000  0.34999999  0.46840000
   0.55439997  0.34999999  0.03160000
   0.44560000  0.64999998  0.96840000
   0.34999999  0.03160000  0.55439997
   0.64999998  0.96840000  0.44560000
   0.64999998  0.53160000  0.94560003
   0.34999999  0.46840000  0.05440000
   0.15000001  0.96840000  0.05440000
   0.85000002  0.03160000  0.94560003
   0.85000002  0.46840000  0.44560000
   0.15000001  0.53160000  0.55439997
   0.53160000  0.94560003  0.64999998
   0.46840000  0.05440000  0.34999999
   0.03160000  0.55439997  0.34999999
   0.96840000  0.44560000  0.64999998
   0.46840000  0.44560000  0.85000002
   0.53160000  0.55439997  0.15000001
   0.96840000  0.05440000  0.15000001
   0.03160000  0.94560003  0.85000002
   0.12500000  0.00000000  0.25000000
   0.87500000  0.00000000  0.75000000
   0.37500000  0.00000000  0.75000000
   0.62500000  0.00000000  0.25000000
   0.87500000  0.50000000  0.25000000
   0.12500000  0.50000000  0.75000000
   0.62500000  0.50000000  0.75000000
   0.37500000  0.50000000  0.25000000
   0.25000000  0.12500000  0.00000000
   0.75000000  0.87500000  0.00000000
   0.75000000  0.37500000  0.00000000
   0.25000000  0.62500000  0.00000000
   0.25000000  0.87500000  0.50000000
   0.75000000  0.12500000  0.50000000
   0.75000000  0.62500000  0.50000000
   0.25000000  0.37500000  0.50000000
   0.00000000  0.25000000  0.12500000
   0.00000000  0.75000000  0.87500000
   0.00000000  0.75000000  0.37500000
   0.00000000  0.25000000  0.62500000
   0.50000000  0.25000000  0.87500000
   0.50000000  0.75000000  0.12500000
   0.50000000  0.75000000  0.62500000
   0.50000000  0.25000000  0.37500000
   0.00000000  0.00000000  0.00000000
   0.50000000  0.00000000  0.50000000
   0.00000000  0.50000000  0.50000000
   0.50000000  0.50000000  0.00000000
   0.75000000  0.25000000  0.25000000
   0.25000000  0.75000000  0.75000000
   0.75000000  0.75000000  0.75000000
   0.25000000  0.25000000  0.25000000
   0.25000000  0.25000000  0.75000000
   0.75000000  0.75000000  0.25000000
   0.25000000  0.75000000  0.25000000
   0.75000000  0.25000000  0.75000000
   0.50000000  0.50000000  0.50000000
   0.00000000  0.50000000  0.00000000
   0.50000000  0.00000000  0.00000000
   0.00000000  0.00000000  0.50000000
   0.56229997  0.84909999  0.82400000
   0.81229997  0.07400000  0.09910000
   0.18770000  0.57400000  0.40090001
   0.67600000  0.93770003  0.65090001
   0.56229997  0.34909999  0.17600000
   0.59909999  0.18770000  0.07400000
   0.18770000  0.92600000  0.90090001
   0.84909999  0.82400000  0.56229997
   0.07400000  0.59909999  0.18770000
   0.31230000  0.42600000  0.90090001
   0.06230000  0.15090001  0.82400000
   0.34909999  0.82400000  0.93770003
   0.68770003  0.57400000  0.09910000
   0.17600000  0.06230000  0.65090001
   0.92600000  0.59909999  0.68770003
   0.42600000  0.40090001  0.68770003
   0.42600000  0.59909999  0.81229997
   0.65090001  0.67600000  0.93770003
   0.15090001  0.82400000  0.06230000
   0.15090001  0.32400000  0.93770003
   0.59909999  0.31230000  0.57400000
   0.90090001  0.68770003  0.07400000
   0.06230000  0.34909999  0.32400000
   0.32400000  0.93770003  0.15090001
   0.68770003  0.07400000  0.90090001
   0.93770003  0.34909999  0.82400000
   0.34909999  0.17600000  0.56229997
   0.32400000  0.06230000  0.34909999
   0.42600000  0.90090001  0.31230000
   0.82400000  0.93770003  0.34909999
   0.18770000  0.42600000  0.09910000
   0.31230000  0.57400000  0.59909999
   0.50000000  0.25000000  0.12500000
   0.37500000  0.50000000  0.75000000
   0.75000000  0.37500000  0.50000000
   0.25000000  0.87500000  0.00000000
   0.00000000  0.25000000  0.87500000
   0.25000000  0.62500000  0.50000000
   0.12500000  0.50000000  0.25000000
   0.75000000  0.62500000  0.00000000
   0.62500000  0.00000000  0.75000000
   0.25000000  0.37500000  0.00000000
   0.75000000  0.12500000  0.00000000
   0.00000000  0.25000000  0.37500000
   0.37500000  0.00000000  0.25000000
   0.00000000  0.75000000  0.12500000
   0.50000000  0.75000000  0.37500000
   0.25000000  0.12500000  0.50000000
   0.62500000  0.50000000  0.25000000
   0.87500000  0.00000000  0.25000000
   0.12500000  0.00000000  0.75000000
   0.75000000  0.87500000  0.50000000
   0.00000000  0.75000000  0.62500000
   0.50000000  0.75000000  0.87500000
 
 position of ions in cartesian coordinates  (Angst):
   1.29652006  2.53595407  3.65094402
  11.66868007 10.42904569  9.31405614
   5.18608025 10.42904569 10.13344409
   7.77912057  2.53595407  2.83155606
  11.66868007  9.01845453  2.83155606
   1.29652006  3.94654601 10.13344409
   7.77912057  3.94654601  9.31405614
   5.18608025  9.01845453  3.65094402
   3.65100041  1.29650003  2.53595407
   9.31420001 11.66849983 10.42904569
  10.13360063  5.18600014 10.42904569
   2.83159980  7.77900040  2.53595407
   2.83159980 11.66849983  9.01845453
  10.13360063  1.29650003  3.94654601
   9.31420001  7.77900040  3.94654601
   3.65100041  5.18600014  9.01845453
   2.53599324  3.65094402  1.29650003
  10.42920679  9.31405614 11.66849983
  10.42920679 10.13344409  5.18600014
   2.53599324  2.83155606  7.77900040
   9.01859384  2.83155606 11.66849983
   3.94660697 10.13344409  1.29650003
   3.94660697  9.31405614  7.77900040
   9.01859384  3.65094402  5.18600014
  12.25989395  4.53774998 12.55530617
   0.70530686  8.42724979  0.40969398
   7.18790669  8.42724979  6.07280610
   5.77729335  4.53774998  6.89219406
   5.77729335  1.94475010  0.40969398
   7.18790669 11.02025044 12.55530617
   0.70530686 11.02025044  6.89219406
  12.25989395  1.94475010  6.07280610
  11.02042067  6.89219406  0.70529597
   1.94478014  6.07280610 12.25970457
   1.94478014  0.40969398  5.77720411
  11.02042067 12.55530617  7.18779566
   8.42737996  6.07280610  7.18779566
   4.53782007  6.89219406  5.77720411
   4.53782007 12.55530617 12.25970457
   8.42737996  0.40969398  0.70529597
   0.40970031  5.77720411  1.94475010
  12.55550012  7.18779566 11.02025044
   6.89230052  0.70529597 11.02025044
   6.07289990 12.25970457  1.94475010
  12.55550012 12.25970457  4.53774998
   0.40970031  0.70529597  8.42724979
   6.07289990  7.18779566  8.42724979
   6.89230052  5.77720411  4.53774998
   7.77912057  9.01845453 10.13344409
   5.18608025  3.94654601  2.83155606
  11.66868007  3.94654601  3.65094402
   1.29652006  9.01845453  9.31405614
   5.18608025  2.53595407  9.31405614
   7.77912057 10.42904569  3.65094402
   1.29652006 10.42904569  2.83155606
  11.66868007  2.53595407 10.13344409
  10.13360063  7.77900040  9.01845453
   2.83159980  5.18600014  3.94654601
   3.65100041 11.66849983  3.94654601
   9.31420001  1.29650003  9.01845453
   9.31420001  5.18600014  2.53595407
   3.65100041  7.77900040 10.42904569
   2.83159980  1.29650003 10.42904569
  10.13360063 11.66849983  2.53595407
   9.01859384 10.13344409  7.77900040
   3.94660697  2.83155606  5.18600014
   3.94660697  3.65094402 11.66849983
   9.01859384  9.31405614  1.29650003
   2.53599324  9.31405614  5.18600014
  10.42920679  3.65094402  7.77900040
  10.42920679  2.83155606  1.29650003
   2.53599324 10.13344409 11.66849983
   5.77729335 11.02025044  6.07280610
   7.18790669  1.94475010  6.89219406
   0.70530686  1.94475010 12.55530617
  12.25989395 11.02025044  0.40969398
  12.25989395  8.42724979  6.89219406
   0.70530686  4.53774998  6.07280610
   7.18790669  4.53774998  0.40969398
   5.77729335  8.42724979 12.55530617
   4.53782007  0.40969398  7.18779566
   8.42737996 12.55530617  5.77720411
   8.42737996  6.89219406 12.25970457
   4.53782007  6.07280610  0.70529597
   1.94478014 12.55530617  0.70529597
  11.02042067  0.40969398 12.25970457
  11.02042067  6.07280610  5.77720411
   1.94478014  6.89219406  7.18779566
   6.89230052 12.25970457  8.42724979
   6.07289990  0.70529597  4.53774998
   0.40970031  7.18779566  4.53774998
  12.55550012  5.77720411  8.42724979
   6.07289990  5.77720411 11.02025044
   6.89230052  7.18779566  1.94475010
  12.55550012  0.70529597  1.94475010
   0.40970031 12.25970457 11.02025044
   1.62065005  0.00000000  3.24125004
  11.34455037  0.00000000  9.72375011
   4.86195016  0.00000000  9.72375011
   8.10325027  0.00000000  3.24125004
  11.34455037  6.48250008  3.24125004
   1.62065005  6.48250008  9.72375011
   8.10325027  6.48250008  9.72375011
   4.86195016  6.48250008  3.24125004
   3.24130011  1.62062502  0.00000000
   9.72390032 11.34437513  0.00000000
   9.72390032  4.86187506  0.00000000
   3.24130011  8.10312510  0.00000000
   3.24130011 11.34437513  6.48250008
   9.72390032  1.62062502  6.48250008
   9.72390032  8.10312510  6.48250008
   3.24130011  4.86187506  6.48250008
   0.00000000  3.24125004  1.62062502
   0.00000000  9.72375011 11.34437513
   0.00000000  9.72375011  4.86187506
   0.00000000  3.24125004  8.10312510
   6.48260021  3.24125004 11.34437513
   6.48260021  9.72375011  1.62062502
   6.48260021  9.72375011  8.10312510
   6.48260021  3.24125004  4.86187506
   0.00000000  0.00000000  0.00000000
   6.48260021  0.00000000  6.48250008
   0.00000000  6.48250008  6.48250008
   6.48260021  6.48250008  0.00000000
   9.72390032  3.24125004  3.24125004
   3.24130011  9.72375011  9.72375011
   9.72390032  9.72375011  9.72375011
   3.24130011  3.24125004  3.24125004
   3.24130011  3.24125004  9.72375011
   9.72390032  9.72375011  3.24125004
   3.24130011  9.72375011  3.24125004
   9.72390032  3.24125004  9.72375011
   6.48260021  6.48250008  6.48250008
   0.00000000  6.48250008  0.00000000
   6.48260021  0.00000000  0.00000000
   0.00000000  0.00000000  6.48250008
   7.29033177 11.00858155 10.68316014
  10.53163188  0.95941002  1.28483153
   2.43356816  7.44191010  5.19766864
   8.76447547 12.15728107  8.43891868
   7.29033177  4.52608148  2.28184001
   7.76745150  2.43353057  0.95941002
   2.43356816 12.00559013 11.68016872
  11.00875160 10.68316014  7.29021916
   0.95942484  7.76733151  2.43353057
   4.04903205  5.52309005 11.68016872
   0.80773195  1.95641860 10.68316014
   4.52615139 10.68316014 12.15728107
   8.91616876  7.44191010  1.28483153
   2.28187526  0.80771947  8.43891868
  12.00577558  7.76733151  8.91603103
   5.52317537  5.19766864  8.91603103
   5.52317537  7.76733151 10.53146920
   8.43904903  8.76434009 12.15728107
   1.95644882 10.68316014  0.80771947
   1.95644882  4.20066006 12.15728107
   7.76745150  4.04896951  7.44191010
  11.68034914  8.91603103  0.95941002
   0.80773195  4.52608148  4.20066006
   4.20072495 12.15728107  1.95641860
   8.91616876  0.95941002 11.68016872
  12.15746887  4.52608148 10.68316014
   4.52615139  2.28184001  7.29021916
   4.20072495  0.80771947  4.52608148
   5.52317537 11.68016872  4.04896951
  10.68332516 12.15728107  4.52608148
   2.43356816  5.52309005  1.28483153
   4.04903205  7.44191010  7.76733151
   6.48260021  3.24125004  1.62062502
   4.86195016  6.48250008  9.72375011
   9.72390032  4.86187506  6.48250008
   3.24130011 11.34437513  0.00000000
   0.00000000  3.24125004 11.34437513
   3.24130011  8.10312510  6.48250008
   1.62065005  6.48250008  3.24125004
   9.72390032  8.10312510  0.00000000
   8.10325027  0.00000000  9.72375011
   3.24130011  4.86187506  0.00000000
   9.72390032  1.62062502  0.00000000
   0.00000000  3.24125004  4.86187506
   4.86195016  0.00000000  3.24125004
   0.00000000  9.72375011  1.62062502
   6.48260021  9.72375011  4.86187506
   3.24130011  1.62062502  6.48250008
   8.10325027  6.48250008  3.24125004
  11.34455037  0.00000000  3.24125004
   1.62065005  0.00000000  9.72375011
   9.72390032 11.34437513  6.48250008
   0.00000000  9.72375011  8.10312510
   6.48260021  9.72375011 11.34437513
 


--------------------------------------------------------------------------------------------------------


 use parallel FFT for orbitals z direction half grid
 k-point  1 :   0.0000 0.0000 0.0000  plane waves:   27734

 maximum and minimum number of plane-waves per node :      1394     1380

 maximum number of plane-waves:     27734
 maximum index in each direction: 
   IXMAX=   23   IYMAX=   23   IZMAX=   23
   IXMIN=  -23   IYMIN=  -23   IZMIN=    0


 real space projection operators:
  total allocation   :      77500.49 KBytes
  max/ min on nodes  :       4367.98       2986.28


 parallel 3D FFT for wavefunctions:
    minimum data exchange during FFTs selected (reduces bandwidth)
 parallel 3D FFT for charge:
    minimum data exchange during FFTs selected (reduces bandwidth)


 total amount of memory used by VASP MPI-rank0    47949. kBytes
=======================================================================

   base      :      30000. kBytes
   nonlr-proj:       4757. kBytes
   fftplans  :       3250. kBytes
   grid      :       7798. kBytes
   one-center:        245. kBytes
   wavefun   :       1899. kBytes
 
     INWAV:  cpu time    0.0000: real time    0.0000
 Broyden mixing: mesh for mixing (old mesh)
   NGX = 47   NGY = 47   NGZ = 47
  (NGX  =192   NGY  =192   NGZ  =192)
  gives a total of 103823 points

 initial charge density was supplied:
 charge density of overlapping atoms calculated
 number of electron    1088.0000000 magnetization 
 keeping initial charge density in first step


--------------------------------------------------------------------------------------------------------


 Maximum index for non-local projection operator          465
 Maximum index for augmentation-charges          901 (set IRDMAX)


--------------------------------------------------------------------------------------------------------


 First call to EWALD:  gamma=   0.137
 Maximum number of real-space cells 3x 3x 3
 Maximum number of reciprocal cells 3x 3x 3

    FEWALD:  cpu time    0.0071: real time    0.0072


--------------------------------------- Iteration      1(   1)  ---------------------------------------


    POTLOK:  cpu time    0.0625: real time    0.0646
    SETDIJ:  cpu time    0.0174: real time    0.0176
     EDDAV:  cpu time    1.7700: real time    1.7861
       DOS:  cpu time    0.0007: real time    0.0007
    --------------------------------------------
      LOOP:  cpu time    1.8506: real time    1.8690

 eigenvalue-minimisations  :  1584
 total energy-change (2. order) : 0.2523392E+05  (-0.4212666E+05)
 number of electron    1088.0000000 magnetization 
 augmentation part     1088.0000000 magnetization 

 Free energy of the ion-electron system (eV)
  ---------------------------------------------------
  alpha Z        PSCENC =      3517.56145079
  Ewald energy   TEWEN  =    -65625.75692972
  -Hartree energ DENC   =    -19498.29604540
  -exchange      EXHF   =         0.00000000
  -V(xc)+E(xc)   XCENC  =      3980.72590973
  PAW double counting   =     65259.91490423   -64786.48724823
  entropy T*S    EENTRO =        -0.20410085
  eigenvalues    EBANDS =     19214.92280509
  atomic energy  EATOM  =     83171.53834872
  Solvation  Ediel_sol  =         0.00000000
  ---------------------------------------------------
  free energy    TOTEN  =     25233.91909436 eV

  energy without entropy =    25234.12319521  energy(sigma->0) =    25234.02114479


--------------------------------------------------------------------------------------------------------




--------------------------------------- Iteration      1(   2)  ---------------------------------------


     EDDAV:  cpu time    1.7457: real time    1.7610
       DOS:  cpu time    0.0006: real time    0.0006
    --------------------------------------------
      LOOP:  cpu time    1.7463: real time    1.7616

 eigenvalue-minimisations  :  1432
 total energy-change (2. order) :-0.1575375E+05  (-0.1454496E+05)
 number of electron    1088.0000000 magnetization 
 augmentation part     1088.0000000 magnetization 

 Free energy of the ion-electron system (eV)
  ---------------------------------------------------
  alpha Z        PSCENC =      3517.56145079
  Ewald energy   TEWEN  =    -65625.75692972
  -Hartree energ DENC   =    -19498.29604540
  -exchange      EXHF   =         0.00000000
  -V(xc)+E(xc)   XCENC  =      3980.72590973
  PAW double counting   =     65259.91490423   -64786.48724823
  entropy T*S    EENTRO =        -0.45735208
  eigenvalues    EBANDS =      3461.43052498
  atomic energy  EATOM  =     83171.53834872
  Solvation  Ediel_sol  =         0.00000000
  ---------------------------------------------------
  free energy    TOTEN  =      9480.17356302 eV

  energy without entropy =     9480.63091510  energy(sigma->0) =     9480.40223906


--------------------------------------------------------------------------------------------------------




--------------------------------------- Iteration      1(   3)  ---------------------------------------


     EDDAV:  cpu time    1.6912: real time    1.7052
       DOS:  cpu time    0.0006: real time    0.0006
    --------------------------------------------
      LOOP:  cpu time    1.6918: real time    1.7058

 eigenvalue-minimisations  :  1520
 total energy-change (2. order) :-0.6784958E+04  (-0.6186553E+04)
 number of electron    1088.0000000 magnetization 
 augmentation part     1088.0000000 magnetization 

 Free energy of the ion-electron system (eV)
  ---------------------------------------------------
  alpha Z        PSCENC =      3517.56145079
  Ewald energy   TEWEN  =    -65625.75692972
  -Hartree energ DENC   =    -19498.29604540
  -exchange      EXHF   =         0.00000000
  -V(xc)+E(xc)   XCENC  =      3980.72590973
  PAW double counting   =     65259.91490423   -64786.48724823
  entropy T*S    EENTRO =        -1.84093759
  eigenvalues    EBANDS =     -3322.14401089
  atomic energy  EATOM  =     83171.53834872
  Solvation  Ediel_sol  =         0.00000000
  ---------------------------------------------------
  free energy    TOTEN  =      2695.21544164 eV

  energy without entropy =     2697.05637923  energy(sigma->0) =     2696.13591044


--------------------------------------------------------------------------------------------------------




[...]
   0.262E+01 0.162E+01 0.804E+00   -.255E+01 -.161E+01 -.777E+00   -.140E+00 0.189E-01 -.467E-01   0.111E-04 0.854E-05 0.679E-05
   0.115E+01 -.382E+00 -.268E+01   -.911E+00 0.676E+00 0.297E+01   -.260E+00 -.239E+00 -.284E+00   -.379E-05 -.171E-04 -.817E-05
   0.699E+00 -.934E+00 -.292E+01   -.442E+00 0.998E+00 0.300E+01   -.306E+00 -.332E-01 0.763E-03   -.356E-05 -.343E-04 -.185E-04
   0.440E+00 0.885E+01 0.249E+01   -.496E-01 -.795E+01 -.224E+01   -.578E+00 -.128E+01 -.533E+00   0.147E-04 -.173E-04 -.131E-04
   0.518E+01 0.187E+01 0.223E+01   -.466E+01 -.151E+01 -.188E+01   -.766E+00 -.505E+00 -.462E+00   0.186E-04 -.157E-06 -.229E-04
   -.186E+01 0.113E+00 0.268E-01   0.187E+01 -.160E+00 -.268E+00   -.274E-01 -.253E-02 0.252E+00   -.536E-05 -.195E-04 0.235E-05
   -.253E+01 0.979E+00 0.210E+00   0.293E+01 -.116E+01 -.572E+00   -.402E+00 -.642E-01 0.452E+00   0.643E-05 -.743E-04 -.275E-04
 -----------------------------------------------------------------------------------------------
   0.548E+01 -.286E+01 0.302E+02   -.627E-12 0.388E-12 -.720E-12   -.550E+01 0.284E+01 -.302E+02   0.256E-02 0.552E-02 -.865E-02
 
 
 POSITION                                       TOTAL-FORCE (eV/Angst)
 -----------------------------------------------------------------------------------
      1.25983      2.64977      3.63888        -0.036677     -0.002519      0.008435
     11.68916     10.36143      9.31598        -0.010845      0.026709      0.000802
      5.30016     10.35249     10.30982        -0.006316      0.006192     -0.053265
      7.72157      2.68333      2.73714         0.033281     -0.018717      0.014501
     11.70409      9.01661      2.82804        -0.036534      0.062806     -0.003851
      1.24951      3.86548     10.22660         0.033306      0.040228     -0.013991
      7.71648      3.96626      9.38075        -0.016270     -0.081923     -0.014345
      5.19439      9.03743      3.57148        -0.009877     -0.025028      0.021101
      3.57526      1.27838      2.51339         0.023407     -0.020072      0.066229
      9.37224     11.68498     10.42354        -0.049752      0.023649      0.015932
     10.05000      5.08940     10.58491        -0.033943      0.023019      0.001438
      2.76622      7.79201      2.53491        -0.013482      0.046533     -0.010872
      2.95524     11.63351      9.07748        -0.046425      0.019986      0.028522
     10.10914      1.29043      3.77770        -0.002569     -0.001385      0.009861
      9.39674      7.81458      3.90516         0.027273      0.012871      0.033905
      3.63865      5.14690      8.98055        -0.027282     -0.029715     -0.042257
      2.49450      3.67020      1.26023         0.023495     -0.037053      0.008095
     10.41526      9.32396     11.73552         0.040444     -0.019184     -0.013637
     10.45883     10.14730      5.23274        -0.045832     -0.018735      0.047251
      2.52057      2.83339      7.81246        -0.024041     -0.043243     -0.006530
      8.88892      2.71905     11.69149         0.052709     -0.010407      0.032478
      3.92671     10.19658      1.29779         0.062681      0.017789      0.048807
      4.05131      9.31709      7.86430         0.014631      0.016489     -0.031704
      8.93549      3.54098      5.19959         0.006116     -0.016298      0.014874
     12.26864      4.57772     12.57404        -0.032630     -0.016919     -0.023984
      0.74585      8.48165      0.36274        -0.016818      0.027147     -0.005318
      7.27167      8.35826      6.18936         0.023078      0.007550      0.015412
      5.77917      4.45132      6.90086         0.018288     -0.030591     -0.032098
      5.73129      1.87959      0.36703        -0.030102     -0.060150      0.054711
      7.17702     10.98184     12.41300         0.053299      0.133151      0.089228
      0.71356     11.02917      6.95224         0.039928      0.045343      0.109653
     12.16074      1.88620      6.22738         0.008540      0.017507     -0.005177
     11.03204      6.91878      0.71876        -0.025797      0.012393     -0.049179
      1.97595      6.08795     12.28780        -0.053224      0.012507     -0.032712
      1.98425      0.32163      5.74556        -0.007964      0.007695     -0.011010
     11.03128     12.47872      7.15949         0.021915      0.026824      0.019378
      8.36161      5.95566      7.22160        -0.001955     -0.046050     -0.001681
      4.48324      6.88726      5.89699         0.011956     -0.009879      0.035683
      4.45406     12.54207     12.23605         0.025806     -0.005117      0.008132
      8.39627      0.36871      0.63544         0.015512     -0.050493      0.051865
      0.48248      5.84756      1.93131        -0.013803     -0.086055     -0.026672
     12.47866      7.17995     11.01504        -0.127983      0.034723      0.017413
      6.88642      0.63351     10.98084        -0.040780      0.037922      0.045565
      6.06106     12.22110      1.92706         0.018183      0.022288      0.038546
     12.56358     12.21752      4.57087        -0.037717     -0.043664      0.035351
      0.47018      0.74242      8.46102        -0.005277     -0.056732      0.019692
      6.03972      7.16705      8.49170         0.012783     -0.005260     -0.013637
      6.74384      5.68494      4.53090        -0.003362     -0.009256     -0.014631
      7.76283      9.02064     10.31419         0.037981      0.001486     -0.052421
      5.09046      4.06572      2.74322        -0.028195     -0.037100     -0.069979
     11.68385      4.01362      3.56816        -0.003133     -0.000543     -0.015045
      1.36571      8.93161      9.48551         0.000896      0.011984      0.021134
      5.16039      2.55790      9.37977        -0.002251     -0.097006     -0.012840
      7.78231     10.50887      3.63368         0.012337      0.014655      0.037021
      1.26672     10.37797      2.82288        -0.051444      0.013927      0.050784
     11.61918      2.45099     10.11964        -0.007201      0.004834      0.050517
      9.94485      7.80800      8.99189         0.002352      0.010397      0.059744
      2.77298      5.19972      4.00332        -0.008236      0.013786      0.011146
      3.65333     11.68715      3.91869        -0.002374      0.005651      0.051728
      9.34370      1.21989      8.99618        -0.050075      0.004623      0.049940
      9.28211      5.23593      2.50862         0.016755      0.013709      0.001775
      3.72633      7.70385     10.44843        -0.008749      0.013978     -0.057695
      2.82510      1.24990     10.35414         0.019492     -0.012629      0.036431
     10.20826     11.69060      2.52801         0.087109     -0.033835     -0.025212
      9.03747     10.20797      7.84934        -0.009019      0.020218      0.002091
      4.01289      2.76335      5.11805        -0.010748      0.009854      0.024152
      3.84974      3.68490     11.73594         0.032604     -0.023800     -0.008264
      8.98547      9.33404      1.30432         0.041437     -0.018324      0.009469
      2.49847      9.33918      5.19272        -0.009120     -0.007181      0.026584
     10.35199      3.60013      7.81591        -0.001198     -0.019538     -0.005283
     10.33620      2.81820      1.26567        -0.002444     -0.033687     -0.010478
      2.66229     10.24559     11.70487         0.032443      0.002660     -0.038459
      5.77519     11.02058      6.06871         0.033232     -0.008888     -0.012077
      7.13053      1.93358      6.92357         0.008410     -0.031606      0.089560
      0.76033      1.94416     12.49207        -0.029188     -0.028079     -0.013090
     12.31842     11.00029      0.36352         0.003651      0.013228      0.069204
     12.18558      8.42988      6.98871         0.005012     -0.029987      0.026583
      0.69599      4.55334      6.11668        -0.007554     -0.038549      0.025258
      7.15462      4.48510      0.42051        -0.015253     -0.018229      0.034870
      5.87913      8.50159     12.42238         0.108885      0.148483     -0.061545
      4.54876      0.45871      7.18406         0.011611     -0.028858     -0.022449
      8.47021     12.65194      5.72982         0.025724     -0.015713      0.016417
      8.47787      6.87700     12.38207         0.012970     -0.047706     -0.022797
      4.50700      6.19743      0.63665        -0.008310     -0.012316      0.026662
      1.88745     12.53210      0.73987        -0.048262      0.017964      0.091717
     10.99716      0.33278     12.25930        -0.004889     -0.011322     -0.009533
     11.04363      6.17591      5.73993        -0.001286     -0.025884      0.001522
      2.00334      6.90618      7.14433        -0.020818     -0.004749     -0.027769
      6.94074     12.24883      8.46184        -0.020271      0.032674     -0.027283
      6.05433      0.59035      4.50007         0.032739      0.029086     -0.017652
      0.46694      7.21428      4.57769        -0.030527     -0.021000      0.007994
     12.62971      5.79370      8.51041        -0.021744     -0.014051      0.017086
      5.98345      5.81153     11.05807         0.052955     -0.008597      0.008406
      6.92571      7.12573      1.94961         0.019167      0.009557      0.058718
     12.52631      0.77866      1.89149        -0.028385     -0.031093      0.031427
      0.45542     12.29900     10.99117        -0.012847     -0.003982     -0.041513
      1.54709      0.05409      3.30703        -0.002181     -0.006206     -0.030950
     11.33761      0.03610      9.71889         0.005048      0.005668      0.012584
      4.83407      0.07762      9.66657         0.041078      0.024415      0.033789
      8.17155     -0.03527      3.27637         0.002981      0.000003      0.014172
     11.33417      6.45648      3.33278         0.016716      0.022010      0.005498
      1.62857      6.49236      9.68006         0.048839     -0.008800      0.058630
      8.22187      6.35611      9.63496        -0.081055     -0.018393      0.032377
      4.86677      6.51699      3.30457        -0.041371      0.009920     -0.046004
      3.19603      1.60824      0.03992         0.016660      0.000300     -0.013033
      9.82110     11.35824      0.06778        -0.017294      0.009704     -0.022964
      9.76345      4.82121      0.01609        -0.027367      0.051331     -0.014933
      3.18337      8.14101      0.05682         0.022535      0.020899      0.002466
      3.22899     11.33461      6.52192         0.011070     -0.000871     -0.000970
      9.77102      1.65085      6.47950        -0.012977      0.001271      0.017692
      9.69993      7.97722      6.47831         0.012485     -0.042834      0.032119
      3.20650      4.83142      6.49034         0.021633      0.023182      0.031780
     -0.03785      3.23054      1.64093         0.023800      0.016898     -0.050676
     -0.03435      9.71829     11.31546         0.011279     -0.021371      0.016042
      0.02083      9.69386      4.99424         0.011421     -0.015701      0.018427
     -0.09654      3.30196      8.03498         0.015665     -0.002249      0.052070
      6.49378      3.22051     11.33747        -0.033535      0.020616      0.057731
      6.54210      9.67085      1.77390        -0.071995     -0.017237     -0.031546
      6.50919      9.69333      7.94793         0.009317     -0.035972      0.058027
      6.48714      3.25130      4.81779        -0.003390      0.010317     -0.010754
     -0.01987      0.03463     -0.01976         0.094168     -0.015654     -0.002889
      6.53856     -0.00326      6.48326        -0.009605      0.002403      0.006326
     -0.03867      6.48788      6.54240         0.014091     -0.004196      0.019057
      6.54119      6.40178      0.04470        -0.087163      0.059326     -0.071118
      9.73502      3.30567      3.33112        -0.020864      0.030232     -0.020626
      3.22548      9.64582      9.71589        -0.019141     -0.066515      0.092980
      9.78442      9.72473      9.73901        -0.037159     -0.033990      0.009464
      3.22230      3.24731      3.24448         0.004101      0.027814     -0.066409
      3.18159      3.25303      9.75044         0.047219      0.041022      0.093836
      9.72889      9.72763      3.30200         0.029497     -0.064752      0.028363
      3.23510      9.71200      3.29890        -0.034576     -0.020237     -0.066026
      9.71971      3.20444      9.70383        -0.064923      0.041806      0.075074
      6.49335      6.43044      6.46066        -0.015774     -0.012905      0.022877
     -0.00960      6.49557     -0.00406         0.052982     -0.000094      0.006962
      6.43138      0.00731      0.01429        -0.077164      0.072159     -0.011998
      0.02122      0.01299      6.51819         0.043844     -0.018106      0.010511
      7.55760     11.91114     10.35440         0.002284      0.217862     -0.087316
     10.55503      1.00764      1.67139         0.023394     -0.005612     -0.029953
      2.25432      7.37858      5.11607        -0.017891     -0.022622     -0.016746
      8.89836     12.11901      8.32889        -0.034858      0.038905     -0.019526
      7.47170      4.76795      2.30200        -0.015907      0.082553     -0.006801
      8.27855      2.27590      0.89158         0.230067     -0.038299     -0.017609
      2.34519     12.16875     11.18762         0.010944     -0.007747     -0.243979
     11.23798     10.61401      7.40544        -0.113707     -0.002478      0.016312
      0.78050      8.39292      2.27549        -0.082880      0.278998     -0.039904
      3.98962      5.61029     11.68121        -0.007600     -0.029534      0.157137
      0.96517      1.53140     10.52964         0.015999     -0.257578     -0.010027
      4.51259     10.70952     11.99707         0.021104      0.009094      0.017991
      8.92063      7.39451      1.49537         0.050309     -0.026053     -0.033035
      2.32769      1.01871      8.29941        -0.010956     -0.055021      0.108772
     11.72838      7.41574      9.07982        -0.003462      0.021045     -0.043400
      5.72045      4.33225      8.73619         0.085316     -0.108156     -0.044621
      5.59905      7.71753     10.61597        -0.025720      0.028387      0.027992
      8.66269      8.72786     12.40869         0.244680     -0.148376      0.050054
      1.34439     10.51941      0.94563        -0.343020      0.029205      0.033028
      1.80446      4.18712     12.09650         0.140126      0.005111      0.048123
      7.68714      3.86134      7.48973         0.052934      0.038666     -0.017207
     11.37532      8.76331      0.96768        -0.096148      0.056107     -0.051755
      0.93154      4.58580      4.28353         0.017900      0.022595      0.012130
      4.21216     11.99351      2.08577        -0.001533      0.092190      0.049501
      8.75493      0.80845     11.41631        -0.014630      0.067925     -0.096396
     11.85396      5.41516     10.42320        -0.052599      0.017117     -0.081389
      5.25948      2.36148      7.47066        -0.023067     -0.049831     -0.028915
      4.19900      0.80254      4.86507         0.000742      0.011002     -0.073408
      5.53923     11.55084      4.21125        -0.008107      0.060198     -0.015562
     10.73579     12.00721      5.10415        -0.019877     -0.053160      0.244435
      2.27640      5.53134      1.27871         0.090629     -0.024470     -0.110427
      4.26741      7.37998      7.90247        -0.010593     -0.000720      0.079527
      6.19833      3.13600      1.61168         0.108172      0.000573     -0.028320
      4.84740      6.24877      9.64097         0.045654     -0.098393      0.021463
      9.82207      4.86132      6.42893         0.016297     -0.024522     -0.003794
      3.17442     11.46048      0.18300        -0.083251     -0.052131      0.011332
     -0.26505      3.20744     11.41047         0.115525      0.051492     -0.060553
      3.27747      8.36667      6.50668         0.009738     -0.020342     -0.003686
      1.61225      6.48110      3.24496        -0.024587      0.052767     -0.083710
     10.43943      7.44666     -1.05578         0.277154     -0.045944     -0.366212
      7.51694      1.11044      9.07030        -0.065384      0.337909     -0.300274
      4.17806      4.34622      0.63084         0.245586     -0.055414      0.236222
     10.36636      1.99814     -0.42607         0.260680      0.129192     -0.180853
     -0.28800      2.91303      4.83842        -0.027412     -0.003589     -0.031265
      5.37113      0.86792      2.74158         0.086878      0.191688     -0.140006
     -0.57561     10.66263      2.20826        -0.282917      0.264212      0.127227
      6.58468      9.49641      4.87311        -0.047730     -0.019992      0.023959
      2.80420      1.89243      6.23739        -0.073600      0.033909     -0.019430
      8.11982      6.54295      3.60817        -0.018822      0.054558      0.003335
     11.49666      0.05343      3.27959        -0.048513      0.031452      0.088238
      1.17821     -0.80492      9.22980        -0.188206     -0.380821     -0.276259
      9.04709     10.97135      6.16189        -0.250132     -0.152826     -0.115545
      0.26531      9.58884      8.12002        -0.016828     -0.049217      0.010870
      6.58049      9.74290     11.35400        -0.004681     -0.242454      0.089410
 -----------------------------------------------------------------------------------
    total drift:                               -0.016544     -0.009656     -0.004055


--------------------------------------------------------------------------------------------------------



  FREE ENERGIE OF THE ION-ELECTRON SYSTEM (eV)
  ---------------------------------------------------
  free  energy   TOTEN  =     -1368.23941004 eV

  energy  without entropy=    -1368.23941004  energy(sigma->0) =    -1368.23941004
 
 d Force = 0.4392459E+00[ 0.401E+00, 0.478E+00]  d Energy = 0.4405815E+00-0.134E-02
 d Force = 0.8323720E+01[ 0.762E+01, 0.902E+01]  d Ewald  = 0.8332992E+01-0.927E-02


--------------------------------------------------------------------------------------------------------


    POTLOK:  cpu time    0.0743: real time    0.0775


--------------------------------------------------------------------------------------------------------


 Quasi-Newton relaxation of ions (Broydens 2nd method)
  g(Force)  = 0.132E+00   g(Stress)= 0.000E+00

 retain information from N=  3 steps
 eigenvalues of (default step * inverse Hessian matrix)
  average eigenvalue of G=   3.8425
 eigenvalue spectrum of G is  1.2831  5.1222  5.1222


--------------------------------------------------------------------------------------------------------


     LOOP+:  cpu time   34.7441: real time   35.0441
    4ORBIT:  cpu time    0.0000: real time    0.0000

 total amount of memory used by VASP MPI-rank0    47949. kBytes
=======================================================================

   base      :      30000. kBytes
   nonlr-proj:       4757. kBytes
   fftplans  :       3250. kBytes
   grid      :       7798. kBytes
   one-center:        245. kBytes
   wavefun   :       1899. kBytes
 
  
  
 General timing and accounting informations for this job:
 ========================================================
  
                  Total CPU time used (sec):      758.679
                            User time (sec):      756.450
                          System time (sec):        2.230
                         Elapsed time (sec):      766.132
  
                   Maximum memory used (kb):      342844.
                   Average memory used (kb):           0.
  
                          Minor page faults:       201614
                          Major page faults:            0
                 Voluntary context switches:        38973
