<?xml version="1.0" encoding="ISO-8859-1"?>
<modeling>
 <generator>
  <i name="program" type="string">vasp </i>
  <i name="version" type="string">5.4.4.18Apr17-6-g9f103f2a35  </i>
  <i name="subversion" type="string">(build May 01 2020 14:22:42) gamma-only         parallel </i>
  <i name="platform" type="string">LinuxIFC </i>
  <i name="date" type="string">2022 02 19 </i>
  <i name="time" type="string">06:10:56 </i>
 </generator>
 <incar>
  <i type="string" name="PREC">accurate</i>
  <i type="int" name="IBRION">     1</i>
  <i name="EDIFF">      0.00000100</i>
  <i name="EDIFFG">     -0.01000000</i>
  <i type="int" name="NSW">    20</i>
  <i type="int" name="ISIF">     2</i>
  <i type="int" name="ISYM">     0</i>
  <i name="ENCUT">    500.00000000</i>
  <i type="string" name="LREAL"> Auto</i>
  <i type="int" name="ISMEAR">     0</i>
  <i name="SIGMA">      0.20000000</i>
  <i type="logical" name="LWAVE"> F  </i>
  <i type="logical" name="LCHARG"> F  </i>
  <v type="int" name="KPOINT_BSE">    -1     0     0     0</v>
 </incar>
 <structure name="primitive_cell" >
  <crystal>
   <varray name="basis" >
    <v>      12.96520042       0.00000000       0.00000000 </v>
    <v>       0.00000000      12.96500015       0.00000000 </v>
    <v>       0.00000000       0.00000000      12.96500015 </v>
   </varray>
   <i name="volume">   2179.33647298 </i>
   <varray name="rec_basis" >
    <v>       0.07712954       0.00000000       0.00000000 </v>
    <v>       0.00000000       0.07713074       0.00000000 </v>
    <v>       0.00000000       0.00000000       0.07713074 </v>
   </varray>
  </crystal>
  <varray name="positions" >
   <v>       0.10000000       0.19560000       0.28160000 </v>
   <v>       0.00000000       0.25000000       0.37500000 </v>
   <v>       0.25000000       0.25000000       0.25000000 </v>
   <v>       0.06230000       0.34909999       0.32400000 </v>
   <v>       0.00000000       0.25000000       0.12500000 </v>
   <v>       0.12500000       0.00000000       0.25000000 </v>
   <v>       0.19560000       0.28160000       0.10000000 </v>
   <v>       0.28160000       0.10000000       0.19560000 </v>
   <v>      -0.10000002       0.30440000       0.28160000 </v>
   <v>      -0.03160000       0.05440000       0.15000001 </v>
   <v>       0.15000001       0.03160000       0.44560000 </v>
   <v>       0.21840000       0.40000001       0.30440000 </v>
   <v>       0.30440000       0.21840000       0.40000001 </v>
   <v>       0.05440000       0.34999999       0.46840000 </v>
   <v>      -0.05439997       0.15000001       0.46840000 </v>
   <v>       0.32400000       0.06230000       0.34909999 </v>
   <v>       0.25000000       0.12500000      -0.50000000 </v>
   <v>       0.03160000       0.44560000       0.15000001 </v>
   <v>      -0.03160000      -0.05439997       0.34999999 </v>
   <v>      -0.12500000       0.00000000       0.25000000 </v>
   <v>       0.18770000       0.42600000       0.09910000 </v>
   <v>       0.12500000      -0.50000000       0.25000000 </v>
   <v>       0.00000000       0.00000000      -0.50000000 </v>
   <v>       0.05440000       0.15000001      -0.03160000 </v>
   <v>       0.25000000       0.37500000      -0.50000000 </v>
   <v>       0.15000001      -0.03160000       0.05440000 </v>
   <v>       0.40000001       0.30440000       0.21840000 </v>
   <v>       0.25000000       0.12500000       0.00000000 </v>
   <v>       0.19560000       0.21840000      -0.39999998 </v>
   <v>      -0.21840000       0.10000000       0.30440000 </v>
   <v>       0.37500000       0.00000000       0.25000000 </v>
   <v>       0.28160000      -0.10000002       0.30440000 </v>
   <v>      -0.19560003       0.21840000       0.10000000 </v>
   <v>      -0.25000000       0.25000000       0.25000000 </v>
   <v>       0.00000000       0.00000000       0.00000000 </v>
   <v>      -0.18770003       0.07400000       0.09910000 </v>
   <v>       0.00000000       0.25000000      -0.37500000 </v>
   <v>       0.32400000      -0.06229997       0.15090001 </v>
   <v>       0.25000000       0.37500000       0.00000000 </v>
   <v>       0.15090001       0.32400000      -0.06229997 </v>
   <v>       0.03160000      -0.44560003       0.34999999 </v>
   <v>       0.34909999       0.17600000      -0.43770003 </v>
   <v>      -0.12500000      -0.50000000       0.25000000 </v>
   <v>      -0.05439997       0.34999999      -0.03160000 </v>
   <v>      -0.17600000      -0.06229997       0.34909999 </v>
   <v>       0.00000000      -0.50000000      -0.50000000 </v>
   <v>       0.10000000      -0.19560003       0.21840000 </v>
   <v>       0.17600000       0.06230000      -0.34909999 </v>
   <v>       0.03160000       0.05440000      -0.35000002 </v>
   <v>       0.46840000       0.05440000       0.34999999 </v>
   <v>       0.34999999       0.03160000      -0.44560003 </v>
   <v>      -0.14999998       0.46840000       0.44560000 </v>
   <v>       0.18770000      -0.42600000       0.40090001 </v>
   <v>       0.37500000      -0.50000000       0.25000000 </v>
   <v>      -0.50000000       0.25000000       0.37500000 </v>
   <v>       0.07400000      -0.40090001       0.18770000 </v>
   <v>       0.25000000      -0.12500000      -0.50000000 </v>
   <v>      -0.25000000       0.12500000      -0.50000000 </v>
   <v>       0.00000000       0.25000000      -0.12500000 </v>
   <v>       0.00000000      -0.50000000       0.00000000 </v>
   <v>       0.05440000      -0.14999998      -0.46840000 </v>
   <v>       0.44560000       0.15000001       0.03160000 </v>
   <v>       0.21840000      -0.39999998       0.19560000 </v>
   <v>      -0.30439997       0.28160000       0.40000001 </v>
   <v>      -0.50000000       0.25000000       0.12500000 </v>
   <v>      -0.14999998      -0.03160000      -0.44560003 </v>
   <v>       0.34999999       0.46840000       0.05440000 </v>
   <v>       0.15090001      -0.17600000       0.06230000 </v>
   <v>       0.15000001       0.46840000      -0.05439997 </v>
   <v>       0.15000001      -0.46840000      -0.44560003 </v>
   <v>       0.42600000      -0.09909999       0.31230000 </v>
   <v>       0.30440000       0.28160000      -0.10000002 </v>
   <v>      -0.28160000       0.40000001       0.19560000 </v>
   <v>      -0.19560003       0.28160000      -0.39999998 </v>
   <v>      -0.21840000      -0.10000002       0.19560000 </v>
   <v>      -0.14999998       0.03160000      -0.05439997 </v>
   <v>       0.34999999      -0.46840000       0.44560000 </v>
   <v>      -0.25000000       0.37500000      -0.50000000 </v>
   <v>       0.25000000      -0.12500000       0.00000000 </v>
   <v>      -0.05439997      -0.14999998       0.03160000 </v>
   <v>       0.44560000       0.34999999      -0.46840000 </v>
   <v>      -0.25000000       0.12500000       0.00000000 </v>
   <v>       0.06230000       0.15090001      -0.17600000 </v>
   <v>      -0.03160000       0.44560000      -0.35000002 </v>
   <v>       0.46840000      -0.05439997       0.15000001 </v>
   <v>       0.00000000      -0.25000000       0.37500000 </v>
   <v>       0.25000000      -0.25000000       0.25000000 </v>
   <v>       0.18770000      -0.07400000      -0.09909999 </v>
   <v>       0.34999999      -0.03160000      -0.05439997 </v>
   <v>      -0.14999998      -0.46840000       0.05440000 </v>
   <v>       0.00000000      -0.25000000       0.12500000 </v>
   <v>      -0.25000000       0.37500000       0.00000000 </v>
   <v>       0.31230000       0.42600000      -0.09909999 </v>
   <v>       0.25000000       0.25000000      -0.25000000 </v>
   <v>      -0.50000000       0.00000000      -0.50000000 </v>
   <v>       0.28160000       0.40000001      -0.30439997 </v>
   <v>       0.30440000      -0.21840000       0.10000000 </v>
   <v>      -0.43770003       0.34909999       0.17600000 </v>
   <v>       0.19560000      -0.28160000       0.40000001 </v>
   <v>       0.21840000       0.10000000      -0.19560003 </v>
   <v>       0.03160000      -0.05439997      -0.14999998 </v>
   <v>      -0.46840000       0.44560000       0.34999999 </v>
   <v>      -0.39999998       0.19560000       0.21840000 </v>
   <v>       0.25000000      -0.37500000      -0.50000000 </v>
   <v>       0.12500000       0.00000000      -0.25000000 </v>
   <v>      -0.06229997       0.34909999      -0.17600000 </v>
   <v>       0.10000000       0.30440000      -0.21840000 </v>
   <v>      -0.37500000       0.00000000       0.25000000 </v>
   <v>       0.05440000      -0.35000002       0.03160000 </v>
   <v>      -0.44560003       0.15000001      -0.46840000 </v>
   <v>       0.21840000      -0.10000002      -0.30439997 </v>
   <v>      -0.19560003      -0.21840000       0.40000001 </v>
   <v>      -0.25000000      -0.12500000      -0.50000000 </v>
   <v>       0.44560000      -0.14999998       0.46840000 </v>
   <v>      -0.50000000       0.00000000       0.00000000 </v>
   <v>      -0.15090001      -0.17600000      -0.43770003 </v>
   <v>       0.40000001       0.19560000      -0.28160000 </v>
   <v>      -0.35000002       0.03160000       0.05440000 </v>
   <v>      -0.35000002      -0.03160000       0.44560000 </v>
   <v>       0.25000000      -0.37500000       0.00000000 </v>
   <v>       0.31230000      -0.42600000      -0.40090001 </v>
   <v>      -0.10000002       0.19560000      -0.21840000 </v>
   <v>      -0.40090001       0.18770000       0.07400000 </v>
   <v>      -0.05439997      -0.35000002      -0.46840000 </v>
   <v>      -0.44560003       0.34999999       0.03160000 </v>
   <v>      -0.10000002      -0.30439997       0.21840000 </v>
   <v>      -0.50000000      -0.50000000      -0.50000000 </v>
   <v>      -0.25000000      -0.12500000       0.00000000 </v>
   <v>      -0.12500000       0.00000000      -0.25000000 </v>
   <v>      -0.28160000      -0.39999998       0.30440000 </v>
   <v>      -0.30439997       0.21840000      -0.10000002 </v>
   <v>       0.12500000      -0.50000000      -0.25000000 </v>
   <v>       0.42600000       0.40090001      -0.31229997 </v>
   <v>       0.34909999      -0.17600000      -0.06229997 </v>
   <v>      -0.37500000      -0.50000000       0.25000000 </v>
   <v>      -0.25000000      -0.25000000       0.25000000 </v>
   <v>      -0.09909999      -0.31229997       0.07400000 </v>
   <v>       0.19560000      -0.21840000      -0.10000002 </v>
   <v>      -0.28160000       0.10000000      -0.30439997 </v>
   <v>       0.00000000      -0.25000000      -0.37500000 </v>
   <v>      -0.50000000       0.25000000      -0.12500000 </v>
   <v>      -0.31229997       0.07400000      -0.09909999 </v>
   <v>      -0.50000000      -0.50000000       0.00000000 </v>
   <v>      -0.03160000      -0.44560003      -0.14999998 </v>
   <v>      -0.46840000      -0.44560003       0.15000001 </v>
   <v>       0.37500000       0.00000000      -0.25000000 </v>
   <v>       0.40000001      -0.30439997       0.28160000 </v>
   <v>      -0.25000000       0.25000000      -0.25000000 </v>
   <v>      -0.31229997      -0.42600000       0.09910000 </v>
   <v>      -0.40090001       0.31230000      -0.42600000 </v>
   <v>      -0.35000002       0.46840000      -0.44560003 </v>
   <v>      -0.25000000      -0.37500000      -0.50000000 </v>
   <v>      -0.07400000      -0.40090001      -0.31229997 </v>
   <v>      -0.50000000      -0.25000000       0.37500000 </v>
   <v>       0.30440000      -0.28160000      -0.39999998 </v>
   <v>      -0.21840000       0.40000001      -0.19560003 </v>
   <v>       0.00000000      -0.25000000      -0.12500000 </v>
   <v>      -0.32400000      -0.06229997      -0.34909999 </v>
   <v>      -0.50000000      -0.25000000       0.12500000 </v>
   <v>      -0.10000002      -0.19560003      -0.28160000 </v>
   <v>       0.46840000       0.44560000      -0.14999998 </v>
   <v>      -0.46840000      -0.05439997      -0.35000002 </v>
   <v>      -0.25000000      -0.37500000       0.00000000 </v>
   <v>       0.37500000      -0.50000000      -0.25000000 </v>
   <v>      -0.46840000       0.05440000      -0.14999998 </v>
   <v>       0.46840000      -0.44560003      -0.35000002 </v>
   <v>      -0.39999998      -0.19560003       0.28160000 </v>
   <v>       0.44560000      -0.35000002      -0.03160000 </v>
   <v>      -0.44560003      -0.14999998      -0.03160000 </v>
   <v>       0.28160000      -0.39999998      -0.19560003 </v>
   <v>      -0.30439997      -0.28160000       0.10000000 </v>
   <v>      -0.35000002      -0.46840000      -0.05439997 </v>
   <v>      -0.21840000      -0.39999998      -0.30439997 </v>
   <v>      -0.30439997      -0.21840000      -0.39999998 </v>
   <v>       0.25000000      -0.25000000      -0.25000000 </v>
   <v>       0.10000000      -0.30439997      -0.28160000 </v>
   <v>      -0.44560003      -0.35000002       0.46840000 </v>
   <v>      -0.39999998       0.30440000      -0.28160000 </v>
   <v>      -0.19560003      -0.28160000      -0.10000002 </v>
   <v>      -0.28160000      -0.10000002      -0.19560003 </v>
   <v>      -0.50000000      -0.25000000      -0.37500000 </v>
   <v>      -0.37500000       0.00000000      -0.25000000 </v>
   <v>       0.42600000      -0.40090001      -0.18770003 </v>
   <v>       0.40000001      -0.19560003      -0.21840000 </v>
   <v>      -0.50000000      -0.25000000      -0.12500000 </v>
   <v>      -0.37500000      -0.50000000      -0.25000000 </v>
   <v>      -0.25000000      -0.25000000      -0.25000000 </v>
   <v>      -0.43770003      -0.15090001      -0.17600000 </v>
   <v>      -0.34909999      -0.32400000      -0.06229997 </v>
   <v>      -0.39999998      -0.30439997      -0.21840000 </v>
  </varray>
 </structure>
 <varray name="primitive_index" >
  <v type="int" >        1 </v>
  <v type="int" >      180 </v>
  <v type="int" >      128 </v>
  <v type="int" >      159 </v>
  <v type="int" >      113 </v>
  <v type="int" >       97 </v>
  <v type="int" >       17 </v>
  <v type="int" >        9 </v>
  <v type="int" >       51 </v>
  <v type="int" >       95 </v>
  <v type="int" >       35 </v>
  <v type="int" >       58 </v>
  <v type="int" >       66 </v>
  <v type="int" >       78 </v>
  <v type="int" >       32 </v>
  <v type="int" >      164 </v>
  <v type="int" >      184 </v>
  <v type="int" >       41 </v>
  <v type="int" >       45 </v>
  <v type="int" >      186 </v>
  <v type="int" >      167 </v>
  <v type="int" >      175 </v>
  <v type="int" >      136 </v>
  <v type="int" >       75 </v>
  <v type="int" >      112 </v>
  <v type="int" >       85 </v>
  <v type="int" >       50 </v>
  <v type="int" >      105 </v>
  <v type="int" >       20 </v>
  <v type="int" >       14 </v>
  <v type="int" >      181 </v>
  <v type="int" >       59 </v>
  <v type="int" >       71 </v>
  <v type="int" >      125 </v>
  <v type="int" >      121 </v>
  <v type="int" >      138 </v>
  <v type="int" >      116 </v>
  <v type="int" >      160 </v>
  <v type="int" >      178 </v>
  <v type="int" >      156 </v>
  <v type="int" >       91 </v>
  <v type="int" >      163 </v>
  <v type="int" >      101 </v>
  <v type="int" >       25 </v>
  <v type="int" >      166 </v>
  <v type="int" >      123 </v>
  <v type="int" >       55 </v>
  <v type="int" >      150 </v>
  <v type="int" >       46 </v>
  <v type="int" >       90 </v>
  <v type="int" >       81 </v>
  <v type="int" >       87 </v>
  <v type="int" >      139 </v>
  <v type="int" >      104 </v>
  <v type="int" >      120 </v>
  <v type="int" >      145 </v>
  <v type="int" >      109 </v>
  <v type="int" >      110 </v>
  <v type="int" >      173 </v>
  <v type="int" >      134 </v>
  <v type="int" >       31 </v>
  <v type="int" >       29 </v>
  <v type="int" >       12 </v>
  <v type="int" >       24 </v>
  <v type="int" >      169 </v>
  <v type="int" >       36 </v>
  <v type="int" >       84 </v>
  <v type="int" >      155 </v>
  <v type="int" >       34 </v>
  <v type="int" >       88 </v>
  <v type="int" >      165 </v>
  <v type="int" >       67 </v>
  <v type="int" >       61 </v>
  <v type="int" >       70 </v>
  <v type="int" >       64 </v>
  <v type="int" >       86 </v>
  <v type="int" >       38 </v>
  <v type="int" >      171 </v>
  <v type="int" >      172 </v>
  <v type="int" >       76 </v>
  <v type="int" >       28 </v>
  <v type="int" >      179 </v>
  <v type="int" >      147 </v>
  <v type="int" >       92 </v>
  <v type="int" >       44 </v>
  <v type="int" >      115 </v>
  <v type="int" >      131 </v>
  <v type="int" >      143 </v>
  <v type="int" >       39 </v>
  <v type="int" >       33 </v>
  <v type="int" >      182 </v>
  <v type="int" >      107 </v>
  <v type="int" >      146 </v>
  <v type="int" >      129 </v>
  <v type="int" >      122 </v>
  <v type="int" >       16 </v>
  <v type="int" >       22 </v>
  <v type="int" >      141 </v>
  <v type="int" >       69 </v>
  <v type="int" >       63 </v>
  <v type="int" >       96 </v>
  <v type="int" >       48 </v>
  <v type="int" >        4 </v>
  <v type="int" >      174 </v>
  <v type="int" >      187 </v>
  <v type="int" >      162 </v>
  <v type="int" >        6 </v>
  <v type="int" >      100 </v>
  <v type="int" >       26 </v>
  <v type="int" >       74 </v>
  <v type="int" >       13 </v>
  <v type="int" >       19 </v>
  <v type="int" >      188 </v>
  <v type="int" >       73 </v>
  <v type="int" >      135 </v>
  <v type="int" >      144 </v>
  <v type="int" >       53 </v>
  <v type="int" >       40 </v>
  <v type="int" >       82 </v>
  <v type="int" >      108 </v>
  <v type="int" >      168 </v>
  <v type="int" >       56 </v>
  <v type="int" >      142 </v>
  <v type="int" >       77 </v>
  <v type="int" >       79 </v>
  <v type="int" >        5 </v>
  <v type="int" >      133 </v>
  <v type="int" >      106 </v>
  <v type="int" >       98 </v>
  <v type="int" >       15 </v>
  <v type="int" >       21 </v>
  <v type="int" >      102 </v>
  <v type="int" >      152 </v>
  <v type="int" >      148 </v>
  <v type="int" >      185 </v>
  <v type="int" >      130 </v>
  <v type="int" >      158 </v>
  <v type="int" >       72 </v>
  <v type="int" >       60 </v>
  <v type="int" >      189 </v>
  <v type="int" >      117 </v>
  <v type="int" >      161 </v>
  <v type="int" >      124 </v>
  <v type="int" >       42 </v>
  <v type="int" >       94 </v>
  <v type="int" >       99 </v>
  <v type="int" >        8 </v>
  <v type="int" >      132 </v>
  <v type="int" >      149 </v>
  <v type="int" >      157 </v>
  <v type="int" >       37 </v>
  <v type="int" >      111 </v>
  <v type="int" >      151 </v>
  <v type="int" >      183 </v>
  <v type="int" >       23 </v>
  <v type="int" >       11 </v>
  <v type="int" >      114 </v>
  <v type="int" >      140 </v>
  <v type="int" >      118 </v>
  <v type="int" >        2 </v>
  <v type="int" >       93 </v>
  <v type="int" >       89 </v>
  <v type="int" >      176 </v>
  <v type="int" >      170 </v>
  <v type="int" >       43 </v>
  <v type="int" >       47 </v>
  <v type="int" >       54 </v>
  <v type="int" >       80 </v>
  <v type="int" >       30 </v>
  <v type="int" >       62 </v>
  <v type="int" >       68 </v>
  <v type="int" >       83 </v>
  <v type="int" >       57 </v>
  <v type="int" >       65 </v>
  <v type="int" >      126 </v>
  <v type="int" >       52 </v>
  <v type="int" >       27 </v>
  <v type="int" >        7 </v>
  <v type="int" >       18 </v>
  <v type="int" >       10 </v>
  <v type="int" >      119 </v>
  <v type="int" >      177 </v>
  <v type="int" >      153 </v>
  <v type="int" >        3 </v>
  <v type="int" >      190 </v>
  <v type="int" >      103 </v>
  <v type="int" >      127 </v>
  <v type="int" >      137 </v>
  <v type="int" >      154 </v>
  <v type="int" >       49 </v>
 </varray>
 <kpoints>
  <generation param="Gamma">
   <v type="int" name="divisions">       1        1        1 </v>
   <v name="usershift">      0.00000000       0.00000000       0.00000000 </v>
   <v name="genvec1">      1.00000000       0.00000000       0.00000000 </v>
   <v name="genvec2">      0.00000000       1.00000000       0.00000000 </v>
   <v name="genvec3">      0.00000000       0.00000000       1.00000000 </v>
   <v name="shift">      0.00000000       0.00000000       0.00000000 </v>
  </generation>
  <varray name="kpointlist" >
   <v>       0.00000000       0.00000000       0.00000000 </v>
  </varray>
  <varray name="weights" >
   <v>       1.00000000 </v>
  </varray>
 </kpoints>
 <parameters>
  <separator name="general" >
   <i type="string" name="SYSTEM">unknown system</i>
   <i type="logical" name="LCOMPAT"> F  </i>
  </separator>
  <separator name="electronic" >
   <i type="string" name="PREC">accura</i>
   <i name="ENMAX">    500.00000000</i>
   <i name="ENAUG">    605.39200000</i>
   <i name="EDIFF">      0.00000100</i>
   <i type="int" name="IALGO">    38</i>
   <i type="int" name="IWAVPR">    11</i>
   <i type="int" name="NBANDS">   656</i>
   <i name="NELECT">   1088.00000000</i>
   <i type="int" name="TURBO">     0</i>
   <i type="int" name="IRESTART">     0</i>
   <i type="int" name="NREBOOT">     0</i>
   <i type="int" name="NMIN">     0</i>
   <i name="EREF">      0.00000000</i>
   <separator name="electronic smearing" >
    <i type="int" name="ISMEAR">     0</i>
    <i name="SIGMA">      0.20000000</i>
    <i name="KSPACING">      0.50000000</i>
    <i type="logical" name="KGAMMA"> T  </i>
   </separator>
   <separator name="electronic projectors" >
    <i type="logical" name="LREAL"> T  </i>
    <v name="ROPT">     -0.00025000     -0.00025000     -0.00025000     -0.00025000     -0.00025000</v>
    <i type="int" name="LMAXPAW">  -100</i>
    <i type="int" name="LMAXMIX">     2</i>
    <i type="logical" name="NLSPLINE"> F  </i>
   </separator>
   <separator name="electronic startup" >
    <i type="int" name="ISTART">     0</i>
    <i type="int" name="ICHARG">     2</i>
    <i type="int" name="INIWAV">     1</i>
   </separator>
   <separator name="electronic spin" >
    <i type="int" name="ISPIN">     1</i>
    <i type="logical" name="LNONCOLLINEAR"> F  </i>
    <v name="MAGMOM">      1.00000000      1.00000000      1.00000000      1.00000000      1.00000000      1.00000000      1.00000000      1.00000000      1.00000000      1.00000000      1.00000000      1.00000000      1.00000000      1.00000000      1.00000000      1.00000000      1.00000000      1.00000000      1.00000000      1.00000000
      1.00000000      1.00000000      1.00000000      1.00000000      1.00000000      1.00000000      1.00000000      1.00000000      1.00000000      1.00000000      1.00000000      1.00000000      1.00000000      1.00000000      1.00000000      1.00000000      1.00000000      1.00000000      1.00000000      1.00000000
      1.00000000      1.00000000      1.00000000      1.00000000      1.00000000      1.00000000      1.00000000      1.00000000      1.00000000      1.00000000      1.00000000      1.00000000      1.00000000      1.00000000      1.00000000      1.00000000      1.00000000      1.00000000      1.00000000      1.00000000
      1.00000000      1.00000000      1.00000000      1.00000000      1.00000000      1.00000000      1.00000000      1.00000000      1.00000000      1.00000000      1.00000000      1.00000000      1.00000000      1.00000000      1.00000000      1.00000000      1.00000000      1.00000000      1.00000000      1.00000000
      1.00000000      1.00000000      1.00000000      1.00000000      1.00000000      1.00000000      1.00000000      1.00000000      1.00000000      1.00000000      1.00000000      1.00000000      1.00000000      1.00000000      1.00000000      1.00000000      1.00000000      1.00000000      1.00000000      1.00000000
      1.00000000      1.00000000      1.00000000      1.00000000      1.00000000      1.00000000      1.00000000      1.00000000      1.00000000      1.00000000      1.00000000      1.00000000      1.00000000      1.00000000      1.00000000      1.00000000      1.00000000      1.00000000      1.00000000      1.00000000
      1.00000000      1.00000000      1.00000000      1.00000000      1.00000000      1.00000000      1.00000000      1.00000000      1.00000000      1.00000000      1.00000000      1.00000000      1.00000000      1.00000000      1.00000000      1.00000000      1.00000000      1.00000000      1.00000000      1.00000000
      1.00000000      1.00000000      1.00000000      1.00000000      1.00000000      1.00000000      1.00000000      1.00000000      1.00000000      1.00000000      1.00000000      1.00000000      1.00000000      1.00000000      1.00000000      1.00000000      1.00000000      1.00000000      1.00000000      1.00000000
      1.00000000      1.00000000      1.00000000      1.00000000      1.00000000      1.00000000      1.00000000      1.00000000      1.00000000      1.00000000      1.00000000      1.00000000      1.00000000      1.00000000      1.00000000      1.00000000      1.00000000      1.00000000      1.00000000      1.00000000
      1.00000000      1.00000000      1.00000000      1.00000000      1.00000000      1.00000000      1.00000000      1.00000000      1.00000000      1.00000000</v>
    <i name="NUPDOWN">     -1.00000000</i>
    <i type="logical" name="LSORBIT"> F  </i>
    <v name="SAXIS">      0.00000000      0.00000000      1.00000000</v>
    <i type="logical" name="LSPIRAL"> F  </i>
    <v name="QSPIRAL">      0.00000000      0.00000000      0.00000000</v>
    <i type="logical" name="LZEROZ"> F  </i>
   </separator>
   <separator name="electronic exchange-correlation" >
    <i type="logical" name="LASPH"> F  </i>
    <i type="logical" name="LMETAGGA"> F  </i>
   </separator>
   <separator name="electronic convergence" >
    <i type="int" name="NELM">    60</i>
    <i type="int" name="NELMDL">     0</i>
    <i type="int" name="NELMIN">     2</i>
    <i name="ENINI">    500.00000000</i>
    <separator name="electronic convergence detail" >
     <i type="logical" name="LDIAG"> T  </i>
     <i type="logical" name="LSUBROT"> F  </i>
     <i name="WEIMIN">      0.00100000</i>
     <i name="EBREAK">      0.00000000</i>
     <i name="DEPER">      0.30000000</i>
     <i type="int" name="NRMM">     4</i>
     <i name="TIME">      0.40000000</i>
    </separator>
   </separator>
   <separator name="electronic mixer" >
    <i name="AMIX">      0.40000000</i>
    <i name="BMIX">      1.00000000</i>
    <i name="AMIN">      0.10000000</i>
    <i name="AMIX_MAG">      1.60000000</i>
    <i name="BMIX_MAG">      1.00000000</i>
    <separator name="electronic mixer details" >
     <i type="int" name="IMIX">     4</i>
     <i type="logical" name="MIXFIRST"> F  </i>
     <i type="int" name="MAXMIX">   -45</i>
     <i name="WC">    100.00000000</i>
     <i type="int" name="INIMIX">     1</i>
     <i type="int" name="MIXPRE">     1</i>
     <i type="int" name="MREMOVE">     5</i>
    </separator>
   </separator>
   <separator name="electronic dipolcorrection" >
    <i type="logical" name="LDIPOL"> F  </i>
    <i type="logical" name="LMONO"> F  </i>
    <i type="int" name="IDIPOL">     0</i>
    <i name="EPSILON">      1.00000000</i>
    <v name="DIPOL">   -100.00000000   -100.00000000   -100.00000000</v>
    <i name="EFIELD">      0.00000000</i>
   </separator>
  </separator>
  <separator name="grids" >
   <i type="int" name="NGX">    96</i>
   <i type="int" name="NGY">    96</i>
   <i type="int" name="NGZ">    96</i>
   <i type="int" name="NGXF">   192</i>
   <i type="int" name="NGYF">   192</i>
   <i type="int" name="NGZF">   192</i>
   <i type="logical" name="ADDGRID"> F  </i>
  </separator>
  <separator name="ionic" >
   <i type="int" name="NSW">    20</i>
   <i type="int" name="IBRION">     1</i>
   <i type="int" name="MDALGO">     0</i>
   <i type="int" name="ISIF">     2</i>
   <i name="PSTRESS">      0.00000000</i>
   <i name="EDIFFG">     -0.01000000</i>
   <i type="int" name="NFREE">     0</i>
   <i name="POTIM">      0.50000000</i>
   <i name="SMASS">     -3.00000000</i>
   <i name="SCALEE">      1.00000000</i>
  </separator>
  <separator name="ionic md" >
   <i name="TEBEG">      0.00010000</i>
   <i name="TEEND">      0.00010000</i>
   <i type="int" name="NBLOCK">     1</i>
   <i type="int" name="KBLOCK">    20</i>
   <i type="int" name="NPACO">   256</i>
   <i name="APACO">     16.00000000</i>
  </separator>
  <separator name="symmetry" >
   <i type="int" name="ISYM">     0</i>
   <i name="SYMPREC">      0.00001000</i>
  </separator>
  <separator name="dos" >
   <i type="int" name="LORBIT">     0</i>
   <v name="RWIGS">     -1.00000000     -1.00000000     -1.00000000     -1.00000000     -1.00000000</v>
   <i type="int" name="NEDOS">   301</i>
   <i name="EMIN">     10.00000000</i>
   <i name="EMAX">    -10.00000000</i>
   <i name="EFERMI">      0.00000000</i>
  </separator>
  <separator name="writing" >
   <i type="int" name="NWRITE">     2</i>
   <i type="logical" name="LWAVE"> F  </i>
   <i type="logical" name="LDOWNSAMPLE"> F  </i>
   <i type="logical" name="LCHARG"> F  </i>
   <i type="logical" name="LPARD"> F  </i>
   <i type="logical" name="LVTOT"> F  </i>
   <i type="logical" name="LVHAR"> F  </i>
   <i type="logical" name="LELF"> F  </i>
   <i type="logical" name="LOPTICS"> F  </i>
   <v name="STM">      0.00000000      0.00000000      0.00000000      0.00000000      0.00000000      0.00000000      0.00000000</v>
  </separator>
  <separator name="performance" >
   <i type="int" name="NPAR">     8</i>
   <i type="int" name="NSIM">     4</i>
   <i type="int" name="NBLK">    -1</i>
   <i type="logical" name="LPLANE"> T  </i>
   <i type="logical" name="LSCALAPACK"> T  </i>
   <i type="logical" name="LSCAAWARE"> T  </i>
   <i type="logical" name="LSCALU"> F  </i>
   <i type="logical" name="LASYNC"> F  </i>
   <i type="logical" name="LORBITALREAL"> F  </i>
  </separator>
  <separator name="miscellaneous" >
   <i type="int" name="IDIOT">     3</i>
   <i type="int" name="ISPECIAL">     0</i>
   <i type="logical" name="LMUSIC"> F  </i>
   <v name="POMASS">     16.00000000    138.90000000     91.22400000      7.01000000     26.98100000</v>
   <v name="DARWINR">      0.00000000      0.00000000      0.00000000      0.00000000      0.00000000</v>
   <v name="DARWINV">      1.00000000      1.00000000      1.00000000      1.00000000      1.00000000</v>
   <i type="logical" name="LCORR"> T  </i>
  </separator>
  <i type="logical" name="GGA_COMPAT"> T  </i>
  <i type="logical" name="LBERRY"> F  </i>
  <i type="int" name="ICORELEVEL">     0</i>
  <i type="logical" name="LDAU"> F  </i>
  <i type="int" name="I_CONSTRAINED_M">     0</i>
  <separator name="electronic exchange-correlation" >
   <i type="string" name="GGA">--</i>
   <i type="int" name="VOSKOWN">     0</i>
   <i type="logical" name="LHFCALC"> F  </i>
   <i type="string" name="PRECFOCK"></i>
   <i type="logical" name="LSYMGRAD"> F  </i>
   <i type="logical" name="LHFONE"> F  </i>
   <i type="logical" name="LRHFCALC"> F  </i>
   <i type="logical" name="LTHOMAS"> F  </i>
   <i type="logical" name="LMODELHF"> F  </i>
   <i name="ENCUT4O">     -1.00000000</i>
   <i type="int" name="EXXOEP">     0</i>
   <i type="int" name="FOURORBIT">     0</i>
   <i name="AEXX">      0.00000000</i>
   <i name="HFALPHA">      0.00000000</i>
   <i name="MCALPHA">      0.00000000</i>
   <i name="ALDAX">      1.00000000</i>
   <i name="AGGAX">      1.00000000</i>
   <i name="ALDAC">      1.00000000</i>
   <i name="AGGAC">      1.00000000</i>
   <i type="int" name="NKREDX">     1</i>
   <i type="int" name="NKREDY">     1</i>
   <i type="int" name="NKREDZ">     1</i>
   <i type="logical" name="SHIFTRED"> F  </i>
   <i type="logical" name="ODDONLY"> F  </i>
   <i type="logical" name="EVENONLY"> F  </i>
   <i type="int" name="LMAXFOCK">     0</i>
   <i type="int" name="NMAXFOCKAE">     0</i>
   <i type="logical" name="LFOCKAEDFT"> F  </i>
   <i name="HFSCREEN">      0.00000000</i>
   <i name="HFSCREENC">      0.00000000</i>
   <i type="int" name="NBANDSGWLOW">     0</i>
  </separator>
  <separator name="vdW DFT" >
   <i type="logical" name="LUSE_VDW"> F  </i>
   <i name="Zab_VDW">     -0.84910000</i>
   <i name="PARAM1">      0.12340000</i>
   <i name="PARAM2">      1.00000000</i>
   <i name="PARAM3">      0.00000000</i>
  </separator>
  <separator name="model GW" >
   <i type="int" name="MODEL_GW">     0</i>
   <i name="MODEL_EPS0">      6.88211518</i>
   <i name="MODEL_ALPHA">      1.00000000</i>
  </separator>
  <separator name="linear response parameters" >
   <i type="logical" name="LEPSILON"> F  </i>
   <i type="logical" name="LRPA"> F  </i>
   <i type="logical" name="LNABLA"> F  </i>
   <i type="logical" name="LVEL"> F  </i>
   <i type="int" name="KINTER">     0</i>
   <i name="CSHIFT">      0.10000000</i>
   <i name="OMEGAMAX">     -1.00000000</i>
   <i name="DEG_THRESHOLD">      0.00200000</i>
   <i name="RTIME">     -0.10000000</i>
   <i name="WPLASMAI">      0.00000000</i>
   <v name="DFIELD">      0.00000000      0.00000000      0.00000000</v>
   <v name="WPLASMA">      0.00000000      0.00000000      0.00000000      0.00000000      0.00000000      0.00000000      0.00000000      0.00000000      0.00000000</v>
  </separator>
  <separator name="orbital magnetization" >
   <i type="logical" name="NUCIND"> F  </i>
   <v name="MAGPOS">      0.00000000      0.00000000      0.00000000</v>
   <i type="logical" name="LNICSALL"> T  </i>
   <i type="logical" name="ORBITALMAG"> F  </i>
   <i type="logical" name="LMAGBLOCH"> F  </i>
   <i type="logical" name="LCHIMAG"> F  </i>
   <i type="logical" name="LGAUGE"> T  </i>
   <i type="int" name="MAGATOM">     0</i>
   <v name="MAGDIPOL">      0.00000000      0.00000000      0.00000000</v>
   <v name="AVECCONST">      0.00000000      0.00000000      0.00000000</v>
  </separator>
  <separator name="response functions" >
   <i type="logical" name="LADDER"> F  </i>
   <i type="logical" name="LRPAFORCE"> F  </i>
   <i type="logical" name="LFXC"> F  </i>
   <i type="logical" name="LHARTREE"> T  </i>
   <i type="int" name="IBSE">     0</i>
   <v type="int" name="KPOINT">    -1     0     0     0</v>
   <i type="logical" name="LTCTE"> F  </i>
   <i type="logical" name="LTETE"> F  </i>
   <i type="logical" name="LTRIPLET"> F  </i>
   <i type="logical" name="LFXCEPS"> F  </i>
   <i type="logical" name="LFXHEG"> F  </i>
   <i type="int" name="NATURALO">     2</i>
   <i type="logical" name="L2ORDER"> F  </i>
   <i type="logical" name="LMP2LT"> F  </i>
   <i type="logical" name="LUSEW"> F  </i>
   <i name="ENCUTGW">     -2.00000000</i>
   <i name="ENCUTGWSOFT">     -2.00000000</i>
   <i name="ENCUTLF">     -1.00000000</i>
   <i type="int" name="LMAXMP2">    -1</i>
   <i name="SCISSOR">      0.00000000</i>
   <i type="int" name="NOMEGA">     0</i>
   <i type="int" name="NOMEGAR">     0</i>
   <i type="int" name="NBANDSGW">    -1</i>
   <i type="int" name="NBANDSO">    -1</i>
   <i type="int" name="NBANDSV">    -1</i>
   <i type="int" name="NELM">     1</i>
   <i type="int" name="NELMHF">     1</i>
   <i type="int" name="DIM">     3</i>
   <i type="int" name="ANTIRES">     0</i>
   <i name="OMEGAMAX">    -30.00000000</i>
   <i name="OMEGAMIN">    -30.00000000</i>
   <i name="OMEGATL">   -200.00000000</i>
   <i type="int" name="OMEGAGRID">   140</i>
   <i name="CSHIFT">     -0.10000000</i>
   <i type="logical" name="SELFENERGY"> F  </i>
   <i type="logical" name="LSPECTRAL"> F  </i>
   <i type="logical" name="LSPECTRALGW"> F  </i>
   <i type="logical" name="LSINGLES"> F  </i>
   <i type="logical" name="LFERMIGW"> F  </i>
   <i type="logical" name="ODDONLYGW"> F  </i>
   <i type="logical" name="EVENONLYGW"> F  </i>
   <i type="int" name="NKREDLFX">     1</i>
   <i type="int" name="NKREDLFY">     1</i>
   <i type="int" name="NKREDLFZ">     1</i>
   <i type="int" name="MAXMEM">  2800</i>
   <i type="int" name="TELESCOPE">     0</i>
   <i type="int" name="TAUPAR">     1</i>
   <i type="int" name="OMEGAPAR">    -1</i>
   <i name="LAMBDA">      1.00000000</i>
  </separator>
  <separator name="External order field" >
   <i name="OFIELD_KAPPA">      0.00000000</i>
   <v name="OFIELD_K">      0.00000000      0.00000000      0.00000000</v>
   <i name="OFIELD_Q6_NEAR">      0.00000000</i>
   <i name="OFIELD_Q6_FAR">      0.00000000</i>
   <i name="OFIELD_A">      0.00000000</i>
  </separator>
 </parameters>
 <atominfo>
  <atoms>     190 </atoms>
  <types>       5 </types>
  <array name="atoms" >
   <dimension dim="1">ion</dimension>
   <field type="string">element</field>
   <field type="int">atomtype</field>
   <set>
    <rc><c>O </c><c>   1</c></rc>
    <rc><c>O </c><c>   1</c></rc>
    <rc><c>O </c><c>   1</c></rc>
    <rc><c>O </c><c>   1</c></rc>
    <rc><c>O </c><c>   1</c></rc>
    <rc><c>O </c><c>   1</c></rc>
    <rc><c>O </c><c>   1</c></rc>
    <rc><c>O </c><c>   1</c></rc>
    <rc><c>O </c><c>   1</c></rc>
    <rc><c>O </c><c>   1</c></rc>
    <rc><c>O </c><c>   1</c></rc>
    <rc><c>O </c><c>   1</c></rc>
    <rc><c>O </c><c>   1</c></rc>
    <rc><c>O </c><c>   1</c></rc>
    <rc><c>O </c><c>   1</c></rc>
    <rc><c>O </c><c>   1</c></rc>
    <rc><c>O </c><c>   1</c></rc>
    <rc><c>O </c><c>   1</c></rc>
    <rc><c>O </c><c>   1</c></rc>
    <rc><c>O </c><c>   1</c></rc>
    <rc><c>O </c><c>   1</c></rc>
    <rc><c>O </c><c>   1</c></rc>
    <rc><c>O </c><c>   1</c></rc>
    <rc><c>O </c><c>   1</c></rc>
    <rc><c>O </c><c>   1</c></rc>
    <rc><c>O </c><c>   1</c></rc>
    <rc><c>O </c><c>   1</c></rc>
    <rc><c>O </c><c>   1</c></rc>
    <rc><c>O </c><c>   1</c></rc>
    <rc><c>O </c><c>   1</c></rc>
    <rc><c>O </c><c>   1</c></rc>
    <rc><c>O </c><c>   1</c></rc>
    <rc><c>O </c><c>   1</c></rc>
    <rc><c>O </c><c>   1</c></rc>
    <rc><c>O </c><c>   1</c></rc>
    <rc><c>O </c><c>   1</c></rc>
    <rc><c>O </c><c>   1</c></rc>
    <rc><c>O </c><c>   1</c></rc>
    <rc><c>O </c><c>   1</c></rc>
    <rc><c>O </c><c>   1</c></rc>
    <rc><c>O </c><c>   1</c></rc>
    <rc><c>O </c><c>   1</c></rc>
    <rc><c>O </c><c>   1</c></rc>
    <rc><c>O </c><c>   1</c></rc>
    <rc><c>O </c><c>   1</c></rc>
    <rc><c>O </c><c>   1</c></rc>
    <rc><c>O </c><c>   1</c></rc>
    <rc><c>O </c><c>   1</c></rc>
    <rc><c>O </c><c>   1</c></rc>
    <rc><c>O </c><c>   1</c></rc>
    <rc><c>O </c><c>   1</c></rc>
    <rc><c>O </c><c>   1</c></rc>
    <rc><c>O </c><c>   1</c></rc>
    <rc><c>O </c><c>   1</c></rc>
    <rc><c>O </c><c>   1</c></rc>
    <rc><c>O </c><c>   1</c></rc>
    <rc><c>O </c><c>   1</c></rc>
    <rc><c>O </c><c>   1</c></rc>
    <rc><c>O </c><c>   1</c></rc>
    <rc><c>O </c><c>   1</c></rc>
    <rc><c>O </c><c>   1</c></rc>
    <rc><c>O </c><c>   1</c></rc>
    <rc><c>O </c><c>   1</c></rc>
    <rc><c>O </c><c>   1</c></rc>
    <rc><c>O </c><c>   1</c></rc>
    <rc><c>O </c><c>   1</c></rc>
    <rc><c>O </c><c>   1</c></rc>
    <rc><c>O </c><c>   1</c></rc>
    <rc><c>O </c><c>   1</c></rc>
    <rc><c>O </c><c>   1</c></rc>
    <rc><c>O </c><c>   1</c></rc>
    <rc><c>O </c><c>   1</c></rc>
    <rc><c>O </c><c>   1</c></rc>
    <rc><c>O </c><c>   1</c></rc>
    <rc><c>O </c><c>   1</c></rc>
    <rc><c>O </c><c>   1</c></rc>
    <rc><c>O </c><c>   1</c></rc>
    <rc><c>O </c><c>   1</c></rc>
    <rc><c>O </c><c>   1</c></rc>
    <rc><c>O </c><c>   1</c></rc>
    <rc><c>O </c><c>   1</c></rc>
    <rc><c>O </c><c>   1</c></rc>
    <rc><c>O </c><c>   1</c></rc>
    <rc><c>O </c><c>   1</c></rc>
    <rc><c>O </c><c>   1</c></rc>
    <rc><c>O </c><c>   1</c></rc>
    <rc><c>O </c><c>   1</c></rc>
    <rc><c>O </c><c>   1</c></rc>
    <rc><c>O </c><c>   1</c></rc>
    <rc><c>O </c><c>   1</c></rc>
    <rc><c>O </c><c>   1</c></rc>
    <rc><c>O </c><c>   1</c></rc>
    <rc><c>O </c><c>   1</c></rc>
    <rc><c>O </c><c>   1</c></rc>
    <rc><c>O </c><c>   1</c></rc>
    <rc><c>O </c><c>   1</c></rc>
    <rc><c>La</c><c>   2</c></rc>
    <rc><c>La</c><c>   2</c></rc>
    <rc><c>La</c><c>   2</c></rc>
    <rc><c>La</c><c>   2</c></rc>
    <rc><c>La</c><c>   2</c></rc>
    <rc><c>La</c><c>   2</c></rc>
    <rc><c>La</c><c>   2</c></rc>
    <rc><c>La</c><c>   2</c></rc>
    <rc><c>La</c><c>   2</c></rc>
    <rc><c>La</c><c>   2</c></rc>
    <rc><c>La</c><c>   2</c></rc>
    <rc><c>La</c><c>   2</c></rc>
    <rc><c>La</c><c>   2</c></rc>
    <rc><c>La</c><c>   2</c></rc>
    <rc><c>La</c><c>   2</c></rc>
    <rc><c>La</c><c>   2</c></rc>
    <rc><c>La</c><c>   2</c></rc>
    <rc><c>La</c><c>   2</c></rc>
    <rc><c>La</c><c>   2</c></rc>
    <rc><c>La</c><c>   2</c></rc>
    <rc><c>La</c><c>   2</c></rc>
    <rc><c>La</c><c>   2</c></rc>
    <rc><c>La</c><c>   2</c></rc>
    <rc><c>La</c><c>   2</c></rc>
    <rc><c>Zr</c><c>   3</c></rc>
    <rc><c>Zr</c><c>   3</c></rc>
    <rc><c>Zr</c><c>   3</c></rc>
    <rc><c>Zr</c><c>   3</c></rc>
    <rc><c>Zr</c><c>   3</c></rc>
    <rc><c>Zr</c><c>   3</c></rc>
    <rc><c>Zr</c><c>   3</c></rc>
    <rc><c>Zr</c><c>   3</c></rc>
    <rc><c>Zr</c><c>   3</c></rc>
    <rc><c>Zr</c><c>   3</c></rc>
    <rc><c>Zr</c><c>   3</c></rc>
    <rc><c>Zr</c><c>   3</c></rc>
    <rc><c>Zr</c><c>   3</c></rc>
    <rc><c>Zr</c><c>   3</c></rc>
    <rc><c>Zr</c><c>   3</c></rc>
    <rc><c>Zr</c><c>   3</c></rc>
    <rc><c>Li</c><c>   4</c></rc>
    <rc><c>Li</c><c>   4</c></rc>
    <rc><c>Li</c><c>   4</c></rc>
    <rc><c>Li</c><c>   4</c></rc>
    <rc><c>Li</c><c>   4</c></rc>
    <rc><c>Li</c><c>   4</c></rc>
    <rc><c>Li</c><c>   4</c></rc>
    <rc><c>Li</c><c>   4</c></rc>
    <rc><c>Li</c><c>   4</c></rc>
    <rc><c>Li</c><c>   4</c></rc>
    <rc><c>Li</c><c>   4</c></rc>
    <rc><c>Li</c><c>   4</c></rc>
    <rc><c>Li</c><c>   4</c></rc>
    <rc><c>Li</c><c>   4</c></rc>
    <rc><c>Li</c><c>   4</c></rc>
    <rc><c>Li</c><c>   4</c></rc>
    <rc><c>Li</c><c>   4</c></rc>
    <rc><c>Li</c><c>   4</c></rc>
    <rc><c>Li</c><c>   4</c></rc>
    <rc><c>Li</c><c>   4</c></rc>
    <rc><c>Li</c><c>   4</c></rc>
    <rc><c>Li</c><c>   4</c></rc>
    <rc><c>Li</c><c>   4</c></rc>
    <rc><c>Li</c><c>   4</c></rc>
    <rc><c>Li</c><c>   4</c></rc>
    <rc><c>Li</c><c>   4</c></rc>
    <rc><c>Li</c><c>   4</c></rc>
    <rc><c>Li</c><c>   4</c></rc>
    <rc><c>Li</c><c>   4</c></rc>
    <rc><c>Li</c><c>   4</c></rc>
    <rc><c>Li</c><c>   4</c></rc>
    <rc><c>Li</c><c>   4</c></rc>
    <rc><c>Li</c><c>   4</c></rc>
    <rc><c>Li</c><c>   4</c></rc>
    <rc><c>Li</c><c>   4</c></rc>
    <rc><c>Li</c><c>   4</c></rc>
    <rc><c>Li</c><c>   4</c></rc>
    <rc><c>Li</c><c>   4</c></rc>
    <rc><c>Li</c><c>   4</c></rc>
    <rc><c>Li</c><c>   4</c></rc>
    <rc><c>Li</c><c>   4</c></rc>
    <rc><c>Li</c><c>   4</c></rc>
    <rc><c>Li</c><c>   4</c></rc>
    <rc><c>Li</c><c>   4</c></rc>
    <rc><c>Li</c><c>   4</c></rc>
    <rc><c>Li</c><c>   4</c></rc>
    <rc><c>Li</c><c>   4</c></rc>
    <rc><c>Li</c><c>   4</c></rc>
    <rc><c>Li</c><c>   4</c></rc>
    <rc><c>Li</c><c>   4</c></rc>
    <rc><c>Li</c><c>   4</c></rc>
    <rc><c>Li</c><c>   4</c></rc>
    <rc><c>Li</c><c>   4</c></rc>
    <rc><c>Al</c><c>   5</c></rc>
   </set>
  </array>
  <array name="atomtypes" >
   <dimension dim="1">type</dimension>
   <field type="int">atomspertype</field>
   <field type="string">element</field>
   <field>mass</field>
   <field>valence</field>
   <field type="string">pseudopotential</field>
   <set>
    <rc><c>  96</c><c>O </c><c>     16.00000000</c><c>      6.00000000</c><c>  PAW_PBE O 08Apr2002                   </c></rc>
    <rc><c>  24</c><c>La</c><c>    138.90000000</c><c>     11.00000000</c><c>  PAW_PBE La 06Sep2000                  </c></rc>
    <rc><c>  16</c><c>Zr</c><c>     91.22400000</c><c>     12.00000000</c><c>  PAW_PBE Zr_sv 04Jan2005               </c></rc>
    <rc><c>  53</c><c>Li</c><c>      7.01000000</c><c>      1.00000000</c><c>  PAW_PBE Li 17Jan2003                  </c></rc>
    <rc><c>   1</c><c>Al</c><c>     26.98100000</c><c>      3.00000000</c><c>  PAW_PBE Al 04Jan2001                  </c></rc>
   </set>
  </array>
 </atominfo>
 <structure name="initialpos" >
  <crystal>
   <varray name="basis" >
    <v>      12.96520042       0.00000000       0.00000000 </v>
    <v>       0.00000000      12.96500015       0.00000000 </v>
    <v>       0.00000000       0.00000000      12.96500015 </v>
   </varray>
   <i name="volume">   2179.33647298 </i>
   <varray name="rec_basis" >
    <v>       0.07712954       0.00000000       0.00000000 </v>
    <v>       0.00000000       0.07713074       0.00000000 </v>
    <v>       0.00000000       0.00000000       0.07713074 </v>
   </varray>
  </crystal>
  <varray name="positions" >
   <v>       0.10000000       0.19560000       0.28160000 </v>
   <v>       0.89999998       0.80439997       0.71840000 </v>
   <v>       0.40000001       0.80439997       0.78160000 </v>
   <v>       0.60000002       0.19560000       0.21840000 </v>
   <v>       0.89999998       0.69560003       0.21840000 </v>
   <v>       0.10000000       0.30440000       0.78160000 </v>
   <v>       0.60000002       0.30440000       0.71840000 </v>
   <v>       0.40000001       0.69560003       0.28160000 </v>
   <v>       0.28160000       0.10000000       0.19560000 </v>
   <v>       0.71840000       0.89999998       0.80439997 </v>
   <v>       0.78160000       0.40000001       0.80439997 </v>
   <v>       0.21840000       0.60000002       0.19560000 </v>
   <v>       0.21840000       0.89999998       0.69560003 </v>
   <v>       0.78160000       0.10000000       0.30440000 </v>
   <v>       0.71840000       0.60000002       0.30440000 </v>
   <v>       0.28160000       0.40000001       0.69560003 </v>
   <v>       0.19560000       0.28160000       0.10000000 </v>
   <v>       0.80439997       0.71840000       0.89999998 </v>
   <v>       0.80439997       0.78160000       0.40000001 </v>
   <v>       0.19560000       0.21840000       0.60000002 </v>
   <v>       0.69560003       0.21840000       0.89999998 </v>
   <v>       0.30440000       0.78160000       0.10000000 </v>
   <v>       0.30440000       0.71840000       0.60000002 </v>
   <v>       0.69560003       0.28160000       0.40000001 </v>
   <v>       0.94560003       0.34999999       0.96840000 </v>
   <v>       0.05440000       0.64999998       0.03160000 </v>
   <v>       0.55439997       0.64999998       0.46840000 </v>
   <v>       0.44560000       0.34999999       0.53160000 </v>
   <v>       0.44560000       0.15000001       0.03160000 </v>
   <v>       0.55439997       0.85000002       0.96840000 </v>
   <v>       0.05440000       0.85000002       0.53160000 </v>
   <v>       0.94560003       0.15000001       0.46840000 </v>
   <v>       0.85000002       0.53160000       0.05440000 </v>
   <v>       0.15000001       0.46840000       0.94560003 </v>
   <v>       0.15000001       0.03160000       0.44560000 </v>
   <v>       0.85000002       0.96840000       0.55439997 </v>
   <v>       0.64999998       0.46840000       0.55439997 </v>
   <v>       0.34999999       0.53160000       0.44560000 </v>
   <v>       0.34999999       0.96840000       0.94560003 </v>
   <v>       0.64999998       0.03160000       0.05440000 </v>
   <v>       0.03160000       0.44560000       0.15000001 </v>
   <v>       0.96840000       0.55439997       0.85000002 </v>
   <v>       0.53160000       0.05440000       0.85000002 </v>
   <v>       0.46840000       0.94560003       0.15000001 </v>
   <v>       0.96840000       0.94560003       0.34999999 </v>
   <v>       0.03160000       0.05440000       0.64999998 </v>
   <v>       0.46840000       0.55439997       0.64999998 </v>
   <v>       0.53160000       0.44560000       0.34999999 </v>
   <v>       0.60000002       0.69560003       0.78160000 </v>
   <v>       0.40000001       0.30440000       0.21840000 </v>
   <v>       0.89999998       0.30440000       0.28160000 </v>
   <v>       0.10000000       0.69560003       0.71840000 </v>
   <v>       0.40000001       0.19560000       0.71840000 </v>
   <v>       0.60000002       0.80439997       0.28160000 </v>
   <v>       0.10000000       0.80439997       0.21840000 </v>
   <v>       0.89999998       0.19560000       0.78160000 </v>
   <v>       0.78160000       0.60000002       0.69560003 </v>
   <v>       0.21840000       0.40000001       0.30440000 </v>
   <v>       0.28160000       0.89999998       0.30440000 </v>
   <v>       0.71840000       0.10000000       0.69560003 </v>
   <v>       0.71840000       0.40000001       0.19560000 </v>
   <v>       0.28160000       0.60000002       0.80439997 </v>
   <v>       0.21840000       0.10000000       0.80439997 </v>
   <v>       0.78160000       0.89999998       0.19560000 </v>
   <v>       0.69560003       0.78160000       0.60000002 </v>
   <v>       0.30440000       0.21840000       0.40000001 </v>
   <v>       0.30440000       0.28160000       0.89999998 </v>
   <v>       0.69560003       0.71840000       0.10000000 </v>
   <v>       0.19560000       0.71840000       0.40000001 </v>
   <v>       0.80439997       0.28160000       0.60000002 </v>
   <v>       0.80439997       0.21840000       0.10000000 </v>
   <v>       0.19560000       0.78160000       0.89999998 </v>
   <v>       0.44560000       0.85000002       0.46840000 </v>
   <v>       0.55439997       0.15000001       0.53160000 </v>
   <v>       0.05440000       0.15000001       0.96840000 </v>
   <v>       0.94560003       0.85000002       0.03160000 </v>
   <v>       0.94560003       0.64999998       0.53160000 </v>
   <v>       0.05440000       0.34999999       0.46840000 </v>
   <v>       0.55439997       0.34999999       0.03160000 </v>
   <v>       0.44560000       0.64999998       0.96840000 </v>
   <v>       0.34999999       0.03160000       0.55439997 </v>
   <v>       0.64999998       0.96840000       0.44560000 </v>
   <v>       0.64999998       0.53160000       0.94560003 </v>
   <v>       0.34999999       0.46840000       0.05440000 </v>
   <v>       0.15000001       0.96840000       0.05440000 </v>
   <v>       0.85000002       0.03160000       0.94560003 </v>
   <v>       0.85000002       0.46840000       0.44560000 </v>
   <v>       0.15000001       0.53160000       0.55439997 </v>
   <v>       0.53160000       0.94560003       0.64999998 </v>
   <v>       0.46840000       0.05440000       0.34999999 </v>
   <v>       0.03160000       0.55439997       0.34999999 </v>
   <v>       0.96840000       0.44560000       0.64999998 </v>
   <v>       0.46840000       0.44560000       0.85000002 </v>
   <v>       0.53160000       0.55439997       0.15000001 </v>
   <v>       0.96840000       0.05440000       0.15000001 </v>
   <v>       0.03160000       0.94560003       0.85000002 </v>
   <v>       0.12500000       0.00000000       0.25000000 </v>
   <v>       0.87500000       0.00000000       0.75000000 </v>
   <v>       0.37500000       0.00000000       0.75000000 </v>
   <v>       0.62500000       0.00000000       0.25000000 </v>
   <v>       0.87500000       0.50000000       0.25000000 </v>
   <v>       0.12500000       0.50000000       0.75000000 </v>
   <v>       0.62500000       0.50000000       0.75000000 </v>
   <v>       0.37500000       0.50000000       0.25000000 </v>
   <v>       0.25000000       0.12500000       0.00000000 </v>
   <v>       0.75000000       0.87500000       0.00000000 </v>
   <v>       0.75000000       0.37500000       0.00000000 </v>
   <v>       0.25000000       0.62500000       0.00000000 </v>
   <v>       0.25000000       0.87500000       0.50000000 </v>
   <v>       0.75000000       0.12500000       0.50000000 </v>
   <v>       0.75000000       0.62500000       0.50000000 </v>
   <v>       0.25000000       0.37500000       0.50000000 </v>
   <v>       0.00000000       0.25000000       0.12500000 </v>
   <v>       0.00000000       0.75000000       0.87500000 </v>
   <v>       0.00000000       0.75000000       0.37500000 </v>
   <v>       0.00000000       0.25000000       0.62500000 </v>
   <v>       0.50000000       0.25000000       0.87500000 </v>
   <v>       0.50000000       0.75000000       0.12500000 </v>
   <v>       0.50000000       0.75000000       0.62500000 </v>
   <v>       0.50000000       0.25000000       0.37500000 </v>
   <v>       0.00000000       0.00000000       0.00000000 </v>
   <v>       0.50000000       0.00000000       0.50000000 </v>
   <v>       0.00000000       0.50000000       0.50000000 </v>
   <v>       0.50000000       0.50000000       0.00000000 </v>
   <v>       0.75000000       0.25000000       0.25000000 </v>
   <v>       0.25000000       0.75000000       0.75000000 </v>
   <v>       0.75000000       0.75000000       0.75000000 </v>
   <v>       0.25000000       0.25000000       0.25000000 </v>
   <v>       0.25000000       0.25000000       0.75000000 </v>
   <v>       0.75000000       0.75000000       0.25000000 </v>
   <v>       0.25000000       0.75000000       0.25000000 </v>
   <v>       0.75000000       0.25000000       0.75000000 </v>
   <v>       0.50000000       0.50000000       0.50000000 </v>
   <v>       0.00000000       0.50000000       0.00000000 </v>
   <v>       0.50000000       0.00000000       0.00000000 </v>
   <v>       0.00000000       0.00000000       0.50000000 </v>
   <v>       0.56229997       0.84909999       0.82400000 </v>
   <v>       0.81229997       0.07400000       0.09910000 </v>
   <v>       0.18770000       0.57400000       0.40090001 </v>
   <v>       0.67600000       0.93770003       0.65090001 </v>
   <v>       0.56229997       0.34909999       0.17600000 </v>
   <v>       0.59909999       0.18770000       0.07400000 </v>
   <v>       0.18770000       0.92600000       0.90090001 </v>
   <v>       0.84909999       0.82400000       0.56229997 </v>
   <v>       0.07400000       0.59909999       0.18770000 </v>
   <v>       0.31230000       0.42600000       0.90090001 </v>
   <v>       0.06230000       0.15090001       0.82400000 </v>
   <v>       0.34909999       0.82400000       0.93770003 </v>
   <v>       0.68770003       0.57400000       0.09910000 </v>
   <v>       0.17600000       0.06230000       0.65090001 </v>
   <v>       0.92600000       0.59909999       0.68770003 </v>
   <v>       0.42600000       0.40090001       0.68770003 </v>
   <v>       0.42600000       0.59909999       0.81229997 </v>
   <v>       0.65090001       0.67600000       0.93770003 </v>
   <v>       0.15090001       0.82400000       0.06230000 </v>
   <v>       0.15090001       0.32400000       0.93770003 </v>
   <v>       0.59909999       0.31230000       0.57400000 </v>
   <v>       0.90090001       0.68770003       0.07400000 </v>
   <v>       0.06230000       0.34909999       0.32400000 </v>
   <v>       0.32400000       0.93770003       0.15090001 </v>
   <v>       0.68770003       0.07400000       0.90090001 </v>
   <v>       0.93770003       0.34909999       0.82400000 </v>
   <v>       0.34909999       0.17600000       0.56229997 </v>
   <v>       0.32400000       0.06230000       0.34909999 </v>
   <v>       0.42600000       0.90090001       0.31230000 </v>
   <v>       0.82400000       0.93770003       0.34909999 </v>
   <v>       0.18770000       0.42600000       0.09910000 </v>
   <v>       0.31230000       0.57400000       0.59909999 </v>
   <v>       0.50000000       0.25000000       0.12500000 </v>
   <v>       0.37500000       0.50000000       0.75000000 </v>
   <v>       0.75000000       0.37500000       0.50000000 </v>
   <v>       0.25000000       0.87500000       0.00000000 </v>
   <v>       0.00000000       0.25000000       0.87500000 </v>
   <v>       0.25000000       0.62500000       0.50000000 </v>
   <v>       0.12500000       0.50000000       0.25000000 </v>
   <v>       0.75000000       0.62500000       0.00000000 </v>
   <v>       0.62500000       0.00000000       0.75000000 </v>
   <v>       0.25000000       0.37500000       0.00000000 </v>
   <v>       0.75000000       0.12500000       0.00000000 </v>
   <v>       0.00000000       0.25000000       0.37500000 </v>
   <v>       0.37500000       0.00000000       0.25000000 </v>
   <v>       0.00000000       0.75000000       0.12500000 </v>
   <v>       0.50000000       0.75000000       0.37500000 </v>
   <v>       0.25000000       0.12500000       0.50000000 </v>
   <v>       0.62500000       0.50000000       0.25000000 </v>
   <v>       0.87500000       0.00000000       0.25000000 </v>
   <v>       0.12500000       0.00000000       0.75000000 </v>
   <v>       0.75000000       0.87500000       0.50000000 </v>
   <v>       0.00000000       0.75000000       0.62500000 </v>
   <v>       0.50000000       0.75000000       0.87500000 </v>
  </varray>
 </structure>
 <calculation>
  <scstep>
   <time name="dav">    1.77    1.79</time>
   <time name="total">    1.85    1.87</time>
   <energy>
    <i name="alphaZ">   3517.56145079 </i>
    <i name="ewald"> -65625.75692972 </i>
    <i name="hartreedc"> -19498.29604540 </i>
    <i name="XCdc">   3980.72590973 </i>
    <i name="pawpsdc">  65259.91490423 </i>
    <i name="pawaedc"> -64786.48724823 </i>
    <i name="eentropy">     -0.20410085 </i>
    <i name="bandstr">  19214.92280509 </i>
    <i name="atom">  83171.53834872 </i>
    <i name="e_fr_energy">  25233.91909436 </i>
    <i name="e_wo_entrp">  25234.12319521 </i>
    <i name="e_0_energy">  25234.02114479 </i>
   </energy>
  </scstep>
  <scstep>
   <time name="dav">    1.75    1.76</time>
   <time name="total">    1.75    1.76</time>
   <energy>
    <i name="e_fr_energy">   9480.17356302 </i>
    <i name="e_wo_entrp">   9480.63091510 </i>
    <i name="e_0_energy">   9480.40223906 </i>
   </energy>
  </scstep>
  <scstep>
   <time name="dav">    1.69    1.71</time>
   <time name="total">    1.69    1.71</time>
   <energy>
    <i name="e_fr_energy">   2695.21544164 </i>
    <i name="e_wo_entrp">   2697.05637923 </i>
    <i name="e_0_energy">   2696.13591044 </i>
   </energy>
  </scstep>
  <scstep>
   <time name="dav">    2.14    2.16</time>
   <time name="total">    2.14    2.16</time>
   <energy>
    <i name="e_fr_energy">   -372.98137916 </i>
    <i name="e_wo_entrp">   -371.62726057 </i>
    <i name="e_0_energy">   -372.30431986 </i>
   </energy>
  </scstep>
  <scstep>
   <time name="dav">    2.60    2.62</time>
   <time name="total">    2.66    2.68</time>
   <energy>
    <i name="e_fr_energy">  -1417.24680879 </i>
    <i name="e_wo_entrp">  -1417.24680879 </i>
    <i name="e_0_energy">  -1417.24680879 </i>
   </energy>
  </scstep>
  <scstep>
   <time name="dav">    2.38    2.40</time>
   <time name="total">    2.51    2.53</time>
   <energy>
    <i name="e_fr_energy">  -1301.47437768 </i>
    <i name="e_wo_entrp">  -1301.47437768 </i>
    <i name="e_0_energy">  -1301.47437768 </i>
   </energy>
  </scstep>
  <scstep>
   <time name="dav">    2.45    2.48</time>
   <time name="total">    2.58    2.60</time>
   <energy>
    <i name="e_fr_energy">  -1324.61580537 </i>
    <i name="e_wo_entrp">  -1324.61493565 </i>
    <i name="e_0_energy">  -1324.61537051 </i>
   </energy>
  </scstep>
  <scstep>
   <time name="dav">    2.48    2.50</time>
   <time name="total">    2.61    2.63</time>
   <energy>
    <i name="e_fr_energy">  -1333.30678948 </i>
    <i name="e_wo_entrp">  -1333.30678948 </i>
    <i name="e_0_energy">  -1333.30678948 </i>
   </energy>
  </scstep>
  <scstep>
   <time name="dav">    2.39    2.41</time>
   <time name="total">    2.52    2.54</time>
   <energy>
    <i name="e_fr_energy">  -1326.43383403 </i>
    <i name="e_wo_entrp">  -1326.43372737 </i>
    <i name="e_0_energy">  -1326.43378070 </i>
   </energy>
  </scstep>
  <scstep>
   <time name="dav">    2.47    2.49</time>
   <time name="total">    2.60    2.62</time>
   <energy>
    <i name="e_fr_energy">  -1327.34208812 </i>
    <i name="e_wo_entrp">  -1327.33056995 </i>
    <i name="e_0_energy">  -1327.33632903 </i>
   </energy>
  </scstep>
  <scstep>
   <time name="dav">    2.61    2.63</time>
   <time name="total">    2.74    2.76</time>
   <energy>
    <i name="e_fr_energy">  -1327.69284353 </i>
    <i name="e_wo_entrp">  -1327.62736873 </i>
    <i name="e_0_energy">  -1327.66010613 </i>
   </energy>
  </scstep>
  <scstep>
   <time name="dav">    2.40    2.42</time>
   <time name="total">    2.53    2.55</time>
   <energy>
    <i name="e_fr_energy">  -1327.55157056 </i>
    <i name="e_wo_entrp">  -1327.54960819 </i>
    <i name="e_0_energy">  -1327.55058937 </i>
   </energy>
  </scstep>
  <scstep>
   <time name="dav">    2.54    2.56</time>
   <time name="total">    2.66    2.68</time>
   <energy>
    <i name="e_fr_energy">  -1327.61349138 </i>
    <i name="e_wo_entrp">  -1327.61185449 </i>
    <i name="e_0_energy">  -1327.61267293 </i>
   </energy>
  </scstep>
  <scstep>
   <time name="dav">    2.52    2.55</time>
   <time name="total">    2.65    2.67</time>
   <energy>
    <i name="e_fr_energy">  -1327.59418215 </i>
    <i name="e_wo_entrp">  -1327.59126956 </i>
    <i name="e_0_energy">  -1327.59272586 </i>
   </energy>
  </scstep>
  <scstep>
   <time name="dav">    2.51    2.53</time>
   <time name="total">    2.69    2.71</time>
   <energy>
    <i name="e_fr_energy">  -1327.59522233 </i>
    <i name="e_wo_entrp">  -1327.58975672 </i>
    <i name="e_0_energy">  -1327.59248953 </i>
   </energy>
  </scstep>
  <scstep>
   <time name="dav">    2.57    2.59</time>
   <time name="total">    2.69    2.72</time>
   <energy>
    <i name="e_fr_energy">  -1327.59542899 </i>
    <i name="e_wo_entrp">  -1327.58804793 </i>
    <i name="e_0_energy">  -1327.59173846 </i>
   </energy>
  </scstep>
  <scstep>
   <time name="dav">    2.22    2.24</time>
   <time name="total">    2.34    2.36</time>
   <energy>
    <i name="e_fr_energy">  -1327.59460620 </i>
    <i name="e_wo_entrp">  -1327.58730567 </i>
    <i name="e_0_energy">  -1327.59095594 </i>
   </energy>
  </scstep>
  <scstep>
   <time name="dav">    2.27    2.29</time>
   <time name="total">    2.39    2.42</time>
   <energy>
    <i name="e_fr_energy">  -1327.59483338 </i>
    <i name="e_wo_entrp">  -1327.58677845 </i>
    <i name="e_0_energy">  -1327.59080591 </i>
   </energy>
  </scstep>
  <scstep>
   <time name="dav">    2.47    2.49</time>
   <time name="total">    2.60    2.62</time>
   <energy>
    <i name="e_fr_energy">  -1327.59480413 </i>
    <i name="e_wo_entrp">  -1327.58671654 </i>
    <i name="e_0_energy">  -1327.59076034 </i>
   </energy>
  </scstep>
  <scstep>
   <time name="dav">    2.49    2.51</time>
   <time name="total">    2.61    2.64</time>
   <energy>
    <i name="e_fr_energy">  -1327.59481296 </i>
    <i name="e_wo_entrp">  -1327.58656472 </i>
    <i name="e_0_energy">  -1327.59068884 </i>
   </energy>
  </scstep>
  <scstep>
   <time name="dav">    2.44    2.47</time>
   <time name="total">    2.57    2.59</time>
   <energy>
    <i name="e_fr_energy">  -1327.59481031 </i>
    <i name="e_wo_entrp">  -1327.58642489 </i>
    <i name="e_0_energy">  -1327.59061760 </i>
   </energy>
  </scstep>
  <scstep>
   <time name="dav">    2.48    2.50</time>
   <time name="total">    2.61    2.63</time>
   <energy>
    <i name="e_fr_energy">  -1327.59482645 </i>
    <i name="e_wo_entrp">  -1327.58644642 </i>
    <i name="e_0_energy">  -1327.59063643 </i>
   </energy>
  </scstep>
  <scstep>
   <time name="dav">    2.26    2.28</time>
   <time name="total">    2.38    2.41</time>
   <energy>
    <i name="e_fr_energy">  -1327.59482573 </i>
    <i name="e_wo_entrp">  -1327.58646311 </i>
    <i name="e_0_energy">  -1327.59064442 </i>
   </energy>
  </scstep>
  <scstep>
   <time name="dav">    1.26    1.28</time>
   <time name="total">    1.39    1.41</time>
   <energy>
    <i name="e_fr_energy">  -1327.59482745 </i>
    <i name="e_wo_entrp">  -1327.58643650 </i>
    <i name="e_0_energy">  -1327.59063198 </i>
   </energy>
  </scstep>
  <scstep>
   <time name="dav">    1.63    1.64</time>
   <time name="total">    1.76    1.77</time>
   <energy>
    <i name="e_fr_energy">  -1327.59482795 </i>
    <i name="e_wo_entrp">  -1327.58640863 </i>
    <i name="e_0_energy">  -1327.59061829 </i>
   </energy>
  </scstep>
  <scstep>
   <time name="dav">    1.15    1.16</time>
   <time name="total">    1.23    1.24</time>
   <energy>
    <i name="alphaZ">   3517.56145079 </i>
    <i name="ewald"> -65625.75692972 </i>
    <i name="hartreedc"> -20655.35449243 </i>
    <i name="XCdc">   4080.64676057 </i>
    <i name="pawpsdc"> 102984.68858747 </i>
    <i name="pawaedc">-102587.71140889 </i>
    <i name="eentropy">     -0.00841859 </i>
    <i name="bandstr">  -6213.19872637 </i>
    <i name="atom">  83171.53834872 </i>
    <i name="e_fr_energy">  -1327.59482845 </i>
    <i name="e_wo_entrp">  -1327.58640986 </i>
    <i name="e_0_energy">  -1327.59061916 </i>
   </energy>
  </scstep>
  <structure>
   <crystal>
    <varray name="basis" >
     <v>      12.96520042       0.00000000       0.00000000 </v>
     <v>       0.00000000      12.96500015       0.00000000 </v>
     <v>       0.00000000       0.00000000      12.96500015 </v>
    </varray>
    <i name="volume">   2179.33647298 </i>
    <varray name="rec_basis" >
     <v>       0.07712954       0.00000000       0.00000000 </v>
     <v>       0.00000000       0.07713074       0.00000000 </v>
     <v>       0.00000000       0.00000000       0.07713074 </v>
    </varray>
   </crystal>
   <varray name="positions" >
    <v>       0.10000000       0.19560000       0.28160000 </v>
    <v>       0.89999998       0.80439997       0.71840000 </v>
    <v>       0.40000001       0.80439997       0.78160000 </v>
    <v>       0.60000002       0.19560000       0.21840000 </v>
    <v>       0.89999998       0.69560003       0.21840000 </v>
    <v>       0.10000000       0.30440000       0.78160000 </v>
    <v>       0.60000002       0.30440000       0.71840000 </v>
    <v>       0.40000001       0.69560003       0.28160000 </v>
    <v>       0.28160000       0.10000000       0.19560000 </v>
    <v>       0.71840000       0.89999998       0.80439997 </v>
    <v>       0.78160000       0.40000001       0.80439997 </v>
    <v>       0.21840000       0.60000002       0.19560000 </v>
    <v>       0.21840000       0.89999998       0.69560003 </v>
    <v>       0.78160000       0.10000000       0.30440000 </v>
    <v>       0.71840000       0.60000002       0.30440000 </v>
    <v>       0.28160000       0.40000001       0.69560003 </v>
    <v>       0.19560000       0.28160000       0.10000000 </v>
    <v>       0.80439997       0.71840000       0.89999998 </v>
    <v>       0.80439997       0.78160000       0.40000001 </v>
    <v>       0.19560000       0.21840000       0.60000002 </v>
    <v>       0.69560003       0.21840000       0.89999998 </v>
    <v>       0.30440000       0.78160000       0.10000000 </v>
    <v>       0.30440000       0.71840000       0.60000002 </v>
    <v>       0.69560003       0.28160000       0.40000001 </v>
    <v>       0.94560003       0.34999999       0.96840000 </v>
    <v>       0.05440000       0.64999998       0.03160000 </v>
    <v>       0.55439997       0.64999998       0.46840000 </v>
    <v>       0.44560000       0.34999999       0.53160000 </v>
    <v>       0.44560000       0.15000001       0.03160000 </v>
    <v>       0.55439997       0.85000002       0.96840000 </v>
    <v>       0.05440000       0.85000002       0.53160000 </v>
    <v>       0.94560003       0.15000001       0.46840000 </v>
    <v>       0.85000002       0.53160000       0.05440000 </v>
    <v>       0.15000001       0.46840000       0.94560003 </v>
    <v>       0.15000001       0.03160000       0.44560000 </v>
    <v>       0.85000002       0.96840000       0.55439997 </v>
    <v>       0.64999998       0.46840000       0.55439997 </v>
    <v>       0.34999999       0.53160000       0.44560000 </v>
    <v>       0.34999999       0.96840000       0.94560003 </v>
    <v>       0.64999998       0.03160000       0.05440000 </v>
    <v>       0.03160000       0.44560000       0.15000001 </v>
    <v>       0.96840000       0.55439997       0.85000002 </v>
    <v>       0.53160000       0.05440000       0.85000002 </v>
    <v>       0.46840000       0.94560003       0.15000001 </v>
    <v>       0.96840000       0.94560003       0.34999999 </v>
    <v>       0.03160000       0.05440000       0.64999998 </v>
    <v>       0.46840000       0.55439997       0.64999998 </v>
    <v>       0.53160000       0.44560000       0.34999999 </v>
    <v>       0.60000002       0.69560003       0.78160000 </v>
    <v>       0.40000001       0.30440000       0.21840000 </v>
    <v>       0.89999998       0.30440000       0.28160000 </v>
    <v>       0.10000000       0.69560003       0.71840000 </v>
    <v>       0.40000001       0.19560000       0.71840000 </v>
    <v>       0.60000002       0.80439997       0.28160000 </v>
    <v>       0.10000000       0.80439997       0.21840000 </v>
    <v>       0.89999998       0.19560000       0.78160000 </v>
    <v>       0.78160000       0.60000002       0.69560003 </v>
    <v>       0.21840000       0.40000001       0.30440000 </v>
    <v>       0.28160000       0.89999998       0.30440000 </v>
    <v>       0.71840000       0.10000000       0.69560003 </v>
    <v>       0.71840000       0.40000001       0.19560000 </v>
    <v>       0.28160000       0.60000002       0.80439997 </v>
    <v>       0.21840000       0.10000000       0.80439997 </v>
    <v>       0.78160000       0.89999998       0.19560000 </v>
    <v>       0.69560003       0.78160000       0.60000002 </v>
    <v>       0.30440000       0.21840000       0.40000001 </v>
    <v>       0.30440000       0.28160000       0.89999998 </v>
    <v>       0.69560003       0.71840000       0.10000000 </v>
    <v>       0.19560000       0.71840000       0.40000001 </v>
    <v>       0.80439997       0.28160000       0.60000002 </v>
    <v>       0.80439997       0.21840000       0.10000000 </v>
    <v>       0.19560000       0.78160000       0.89999998 </v>
    <v>       0.44560000       0.85000002       0.46840000 </v>
    <v>       0.55439997       0.15000001       0.53160000 </v>
    <v>       0.05440000       0.15000001       0.96840000 </v>
    <v>       0.94560003       0.85000002       0.03160000 </v>
    <v>       0.94560003       0.64999998       0.53160000 </v>
    <v>       0.05440000       0.34999999       0.46840000 </v>
    <v>       0.55439997       0.34999999       0.03160000 </v>
    <v>       0.44560000       0.64999998       0.96840000 </v>
    <v>       0.34999999       0.03160000       0.55439997 </v>
    <v>       0.64999998       0.96840000       0.44560000 </v>
    <v>       0.64999998       0.53160000       0.94560003 </v>
    <v>       0.34999999       0.46840000       0.05440000 </v>
    <v>       0.15000001       0.96840000       0.05440000 </v>
    <v>       0.85000002       0.03160000       0.94560003 </v>
    <v>       0.85000002       0.46840000       0.44560000 </v>
    <v>       0.15000001       0.53160000       0.55439997 </v>
    <v>       0.53160000       0.94560003       0.64999998 </v>
    <v>       0.46840000       0.05440000       0.34999999 </v>
    <v>       0.03160000       0.55439997       0.34999999 </v>
    <v>       0.96840000       0.44560000       0.64999998 </v>
    <v>       0.46840000       0.44560000       0.85000002 </v>
    <v>       0.53160000       0.55439997       0.15000001 </v>
    <v>       0.96840000       0.05440000       0.15000001 </v>
    <v>       0.03160000       0.94560003       0.85000002 </v>
    <v>       0.12500000       0.00000000       0.25000000 </v>
    <v>       0.87500000       0.00000000       0.75000000 </v>
    <v>       0.37500000       0.00000000       0.75000000 </v>
    <v>       0.62500000       0.00000000       0.25000000 </v>
    <v>       0.87500000       0.50000000       0.25000000 </v>
    <v>       0.12500000       0.50000000       0.75000000 </v>
    <v>       0.62500000       0.50000000       0.75000000 </v>
    <v>       0.37500000       0.50000000       0.25000000 </v>
    <v>       0.25000000       0.12500000       0.00000000 </v>
    <v>       0.75000000       0.87500000       0.00000000 </v>
    <v>       0.75000000       0.37500000       0.00000000 </v>
    <v>       0.25000000       0.62500000       0.00000000 </v>
    <v>       0.25000000       0.87500000       0.50000000 </v>
    <v>       0.75000000       0.12500000       0.50000000 </v>
    <v>       0.75000000       0.62500000       0.50000000 </v>
    <v>       0.25000000       0.37500000       0.50000000 </v>
    <v>       0.00000000       0.25000000       0.12500000 </v>
    <v>       0.00000000       0.75000000       0.87500000 </v>
    <v>       0.00000000       0.75000000       0.37500000 </v>
    <v>       0.00000000       0.25000000       0.62500000 </v>
    <v>       0.50000000       0.25000000       0.87500000 </v>
    <v>       0.50000000       0.75000000       0.12500000 </v>
    <v>       0.50000000       0.75000000       0.62500000 </v>
    <v>       0.50000000       0.25000000       0.37500000 </v>
    <v>       0.00000000       0.00000000       0.00000000 </v>
    <v>       0.50000000       0.00000000       0.50000000 </v>
    <v>       0.00000000       0.50000000       0.50000000 </v>
    <v>       0.50000000       0.50000000       0.00000000 </v>
    <v>       0.75000000       0.25000000       0.25000000 </v>
    <v>       0.25000000       0.75000000       0.75000000 </v>
    <v>       0.75000000       0.75000000       0.75000000 </v>
    <v>       0.25000000       0.25000000       0.25000000 </v>
    <v>       0.25000000       0.25000000       0.75000000 </v>
    <v>       0.75000000       0.75000000       0.25000000 </v>
    <v>       0.25000000       0.75000000       0.25000000 </v>
    <v>       0.75000000       0.25000000       0.75000000 </v>
    <v>       0.50000000       0.50000000       0.50000000 </v>
    <v>       0.00000000       0.50000000       0.00000000 </v>
    <v>       0.50000000       0.00000000       0.00000000 </v>
    <v>       0.00000000       0.00000000       0.50000000 </v>
    <v>       0.56229997       0.84909999       0.82400000 </v>
    <v>       0.81229997       0.07400000       0.09910000 </v>
    <v>       0.18770000       0.57400000       0.40090001 </v>
    <v>       0.67600000       0.93770003       0.65090001 </v>
    <v>       0.56229997       0.34909999       0.17600000 </v>
    <v>       0.59909999       0.18770000       0.07400000 </v>
    <v>       0.18770000       0.92600000       0.90090001 </v>
    <v>       0.84909999       0.82400000       0.56229997 </v>
    <v>       0.07400000       0.59909999       0.18770000 </v>
    <v>       0.31230000       0.42600000       0.90090001 </v>
    <v>       0.06230000       0.15090001       0.82400000 </v>
    <v>       0.34909999       0.82400000       0.93770003 </v>
    <v>       0.68770003       0.57400000       0.09910000 </v>
    <v>       0.17600000       0.06230000       0.65090001 </v>
    <v>       0.92600000       0.59909999       0.68770003 </v>
    <v>       0.42600000       0.40090001       0.68770003 </v>
    <v>       0.42600000       0.59909999       0.81229997 </v>
    <v>       0.65090001       0.67600000       0.93770003 </v>
    <v>       0.15090001       0.82400000       0.06230000 </v>
    <v>       0.15090001       0.32400000       0.93770003 </v>
    <v>       0.59909999       0.31230000       0.57400000 </v>
    <v>       0.90090001       0.68770003       0.07400000 </v>
    <v>       0.06230000       0.34909999       0.32400000 </v>
    <v>       0.32400000       0.93770003       0.15090001 </v>
    <v>       0.68770003       0.07400000       0.90090001 </v>
    <v>       0.93770003       0.34909999       0.82400000 </v>
    <v>       0.34909999       0.17600000       0.56229997 </v>
    <v>       0.32400000       0.06230000       0.34909999 </v>
    <v>       0.42600000       0.90090001       0.31230000 </v>
    <v>       0.82400000       0.93770003       0.34909999 </v>
    <v>       0.18770000       0.42600000       0.09910000 </v>
    <v>       0.31230000       0.57400000       0.59909999 </v>
    <v>       0.50000000       0.25000000       0.12500000 </v>
    <v>       0.37500000       0.50000000       0.75000000 </v>
    <v>       0.75000000       0.37500000       0.50000000 </v>
    <v>       0.25000000       0.87500000       0.00000000 </v>
    <v>       0.00000000       0.25000000       0.87500000 </v>
    <v>       0.25000000       0.62500000       0.50000000 </v>
    <v>       0.12500000       0.50000000       0.25000000 </v>
    <v>       0.75000000       0.62500000       0.00000000 </v>
    <v>       0.62500000       0.00000000       0.75000000 </v>
    <v>       0.25000000       0.37500000       0.00000000 </v>
    <v>       0.75000000       0.12500000       0.00000000 </v>
    <v>       0.00000000       0.25000000       0.37500000 </v>
    <v>       0.37500000       0.00000000       0.25000000 </v>
    <v>       0.00000000       0.75000000       0.12500000 </v>
    <v>       0.50000000       0.75000000       0.37500000 </v>
    <v>       0.25000000       0.12500000       0.50000000 </v>
    <v>       0.62500000       0.50000000       0.25000000 </v>
    <v>       0.87500000       0.00000000       0.25000000 </v>
    <v>       0.12500000       0.00000000       0.75000000 </v>
    <v>       0.75000000       0.87500000       0.50000000 </v>
    <v>       0.00000000       0.75000000       0.62500000 </v>
    <v>       0.50000000       0.75000000       0.87500000 </v>
   </varray>
  </structure>
  <varray name="forces" >
   <v>       0.66110062       0.81878558      -1.05995569 </v>
   <v>      -1.22927340      -0.20458374       0.32544557 </v>
   <v>       3.45011060      -0.74508107       3.93163537 </v>
   <v>      -0.74978964       0.41576638      -1.48773617 </v>
   <v>       0.70600543      -0.41921761      -1.00946466 </v>
   <v>      -0.22126924      -0.42780860       1.78594864 </v>
   <v>      -0.60584974       1.15247906       1.40220536 </v>
   <v>      -0.64997184       0.74092166      -1.86449339 </v>
   <v>       0.17768951      -1.69625360      -0.08307394 </v>
   <v>      -1.87040523       0.21154032       0.43349657 </v>
   <v>      -0.86583269      -0.83588284       1.23897690 </v>
   <v>      -0.47411387      -0.37275779      -1.02434833 </v>
   <v>       1.21990034       0.25752992       1.07382839 </v>
   <v>      -0.82117298      -1.24764529      -0.74446196 </v>
   <v>       0.92585704       0.88682181      -1.19911819 </v>
   <v>       0.53336594       0.80144786       0.73542257 </v>
   <v>      -0.35765101       0.72543924      -1.92042358 </v>
   <v>      -1.34386687       0.55668495       1.12068915 </v>
   <v>       0.57141096       0.81279600       0.03315912 </v>
   <v>       1.10934095      -0.64505396       0.96980908 </v>
   <v>      -1.19614240      -0.91274762       1.75305816 </v>
   <v>      -0.13756319       1.22821950      -2.37422747 </v>
   <v>       0.49876074      -0.08599772       1.54195706 </v>
   <v>      -0.79869645      -0.99886999      -0.70575998 </v>
   <v>       1.01487340       0.23225706       0.00169352 </v>
   <v>       0.59961138       0.61632753       0.93698061 </v>
   <v>      -0.35649494       0.13270351       1.89740219 </v>
   <v>      -0.63720856       0.45367637       0.42971850 </v>
   <v>       0.97179603      -1.16739571      -0.59336432 </v>
   <v>      -1.08176554      -3.33530152      -3.04085676 </v>
   <v>       0.05964540       0.01940401      -0.69678228 </v>
   <v>       0.09630330      -0.78278783       1.18557094 </v>
   <v>      -0.19561334       0.93441685       0.26837623 </v>
   <v>       2.31383059      -0.81993201       0.82558000 </v>
   <v>       1.21875705      -0.75932891      -0.30808362 </v>
   <v>      -0.74844686      -0.91723831       0.59869294 </v>
   <v>      -1.34736700       0.20216191       0.96268208 </v>
   <v>      -1.78434470       0.08209964       0.48692002 </v>
   <v>      -0.96949833      -1.64359905       0.01918758 </v>
   <v>       0.04253028       0.29719520      -1.04142655 </v>
[...]
       <r>    3.7300    1.0000 </r>
       <r>    3.7383    1.0000 </r>
       <r>    3.7464    1.0000 </r>
       <r>    3.7512    1.0000 </r>
       <r>    3.7543    1.0000 </r>
       <r>    3.7630    1.0000 </r>
       <r>    3.7878    1.0000 </r>
       <r>    3.7950    1.0000 </r>
       <r>    3.8150    1.0000 </r>
       <r>    3.8196    1.0000 </r>
       <r>    3.8315    1.0000 </r>
       <r>    3.8476    1.0000 </r>
       <r>    3.8567    1.0000 </r>
       <r>    3.8613    1.0000 </r>
       <r>    3.8687    1.0000 </r>
       <r>    3.8756    1.0000 </r>
       <r>    3.8815    1.0000 </r>
       <r>    3.8932    1.0000 </r>
       <r>    3.9097    1.0000 </r>
       <r>    3.9151    1.0000 </r>
       <r>    3.9174    1.0000 </r>
       <r>    3.9257    1.0000 </r>
       <r>    3.9415    1.0000 </r>
       <r>    3.9466    1.0000 </r>
       <r>    3.9596    1.0000 </r>
       <r>    3.9655    1.0000 </r>
       <r>    3.9835    1.0000 </r>
       <r>    3.9890    1.0000 </r>
       <r>    3.9929    1.0000 </r>
       <r>    4.0010    1.0000 </r>
       <r>    4.0055    1.0000 </r>
       <r>    4.0203    1.0000 </r>
       <r>    4.0285    1.0000 </r>
       <r>    4.0410    1.0000 </r>
       <r>    4.0519    1.0000 </r>
       <r>    4.0588    1.0000 </r>
       <r>    4.0703    1.0000 </r>
       <r>    4.0794    1.0000 </r>
       <r>    4.0910    1.0000 </r>
       <r>    4.0988    1.0000 </r>
       <r>    4.1005    1.0000 </r>
       <r>    4.1099    1.0000 </r>
       <r>    4.1152    1.0000 </r>
       <r>    4.1285    1.0000 </r>
       <r>    4.1377    1.0000 </r>
       <r>    4.1426    1.0000 </r>
       <r>    4.1553    1.0000 </r>
       <r>    4.1639    1.0000 </r>
       <r>    4.1778    1.0000 </r>
       <r>    4.1893    1.0000 </r>
       <r>    4.1956    1.0000 </r>
       <r>    4.1990    1.0000 </r>
       <r>    4.2118    1.0000 </r>
       <r>    4.2155    1.0000 </r>
       <r>    4.2273    1.0000 </r>
       <r>    4.2468    1.0000 </r>
       <r>    4.2588    1.0000 </r>
       <r>    4.2617    1.0000 </r>
       <r>    4.2639    1.0000 </r>
       <r>    4.2679    1.0000 </r>
       <r>    4.2863    1.0000 </r>
       <r>    4.2936    1.0000 </r>
       <r>    4.3109    1.0000 </r>
       <r>    4.3160    1.0000 </r>
       <r>    4.3299    1.0000 </r>
       <r>    4.3393    1.0000 </r>
       <r>    4.3498    1.0000 </r>
       <r>    4.3584    1.0000 </r>
       <r>    4.3653    1.0000 </r>
       <r>    4.3780    1.0000 </r>
       <r>    4.3906    1.0000 </r>
       <r>    4.4100    1.0000 </r>
       <r>    4.4171    1.0000 </r>
       <r>    4.4265    1.0000 </r>
       <r>    4.4314    1.0000 </r>
       <r>    4.4413    1.0000 </r>
       <r>    4.4483    1.0000 </r>
       <r>    4.4684    1.0000 </r>
       <r>    4.4798    1.0000 </r>
       <r>    4.4889    1.0000 </r>
       <r>    4.5085    1.0000 </r>
       <r>    4.5240    1.0000 </r>
       <r>    4.5339    1.0000 </r>
       <r>    4.5578    1.0000 </r>
       <r>    4.5822    1.0000 </r>
       <r>    4.6082    1.0000 </r>
       <r>    4.6832    1.0000 </r>
       <r>    8.8755    0.0000 </r>
       <r>    9.0039    0.0000 </r>
       <r>    9.0456    0.0000 </r>
       <r>    9.0745    0.0000 </r>
       <r>    9.0825    0.0000 </r>
       <r>    9.1257    0.0000 </r>
       <r>    9.1425    0.0000 </r>
       <r>    9.1466    0.0000 </r>
       <r>    9.1864    0.0000 </r>
       <r>    9.2022    0.0000 </r>
       <r>    9.2311    0.0000 </r>
       <r>    9.2352    0.0000 </r>
       <r>    9.2562    0.0000 </r>
       <r>    9.2654    0.0000 </r>
       <r>    9.2831    0.0000 </r>
       <r>    9.2944    0.0000 </r>
       <r>    9.3083    0.0000 </r>
       <r>    9.3163    0.0000 </r>
       <r>    9.3289    0.0000 </r>
       <r>    9.3491    0.0000 </r>
       <r>    9.3517    0.0000 </r>
       <r>    9.3641    0.0000 </r>
       <r>    9.3786    0.0000 </r>
       <r>    9.3819    0.0000 </r>
       <r>    9.3918    0.0000 </r>
       <r>    9.4116    0.0000 </r>
       <r>    9.4212    0.0000 </r>
       <r>    9.4292    0.0000 </r>
       <r>    9.4367    0.0000 </r>
       <r>    9.4440    0.0000 </r>
       <r>    9.4588    0.0000 </r>
       <r>    9.4651    0.0000 </r>
       <r>    9.4770    0.0000 </r>
       <r>    9.4901    0.0000 </r>
       <r>    9.4906    0.0000 </r>
       <r>    9.5117    0.0000 </r>
       <r>    9.5247    0.0000 </r>
       <r>    9.5495    0.0000 </r>
       <r>    9.5622    0.0000 </r>
       <r>    9.5686    0.0000 </r>
       <r>    9.5781    0.0000 </r>
       <r>    9.5836    0.0000 </r>
       <r>    9.6015    0.0000 </r>
       <r>    9.6105    0.0000 </r>
       <r>    9.6326    0.0000 </r>
       <r>    9.6519    0.0000 </r>
       <r>    9.6856    0.0000 </r>
       <r>    9.6967    0.0000 </r>
       <r>    9.7141    0.0000 </r>
       <r>    9.7216    0.0000 </r>
       <r>    9.7366    0.0000 </r>
       <r>    9.7490    0.0000 </r>
       <r>    9.7630    0.0000 </r>
       <r>    9.7674    0.0000 </r>
       <r>    9.7805    0.0000 </r>
       <r>    9.7832    0.0000 </r>
       <r>    9.7849    0.0000 </r>
       <r>    9.7897    0.0000 </r>
       <r>    9.8006    0.0000 </r>
       <r>    9.8029    0.0000 </r>
       <r>    9.8047    0.0000 </r>
       <r>    9.8107    0.0000 </r>
       <r>    9.8180    0.0000 </r>
       <r>    9.8220    0.0000 </r>
       <r>    9.8289    0.0000 </r>
       <r>    9.8363    0.0000 </r>
       <r>    9.8371    0.0000 </r>
       <r>    9.8422    0.0000 </r>
       <r>    9.8466    0.0000 </r>
       <r>    9.8498    0.0000 </r>
       <r>    9.8574    0.0000 </r>
       <r>    9.8611    0.0000 </r>
       <r>    9.8661    0.0000 </r>
       <r>    9.8670    0.0000 </r>
       <r>    9.8735    0.0000 </r>
       <r>    9.8773    0.0000 </r>
       <r>    9.8793    0.0000 </r>
       <r>    9.8883    0.0000 </r>
       <r>    9.8893    0.0000 </r>
       <r>    9.8914    0.0000 </r>
       <r>    9.9003    0.0000 </r>
       <r>    9.9012    0.0000 </r>
       <r>    9.9045    0.0000 </r>
       <r>    9.9074    0.0000 </r>
       <r>    9.9128    0.0000 </r>
       <r>    9.9193    0.0000 </r>
       <r>    9.9206    0.0000 </r>
       <r>    9.9243    0.0000 </r>
       <r>    9.9264    0.0000 </r>
       <r>    9.9355    0.0000 </r>
       <r>    9.9367    0.0000 </r>
       <r>    9.9405    0.0000 </r>
       <r>    9.9436    0.0000 </r>
       <r>    9.9503    0.0000 </r>
       <r>    9.9520    0.0000 </r>
       <r>    9.9573    0.0000 </r>
       <r>    9.9629    0.0000 </r>
       <r>    9.9670    0.0000 </r>
       <r>    9.9680    0.0000 </r>
       <r>    9.9708    0.0000 </r>
       <r>    9.9779    0.0000 </r>
       <r>    9.9827    0.0000 </r>
       <r>    9.9876    0.0000 </r>
       <r>    9.9895    0.0000 </r>
       <r>    9.9960    0.0000 </r>
       <r>    9.9977    0.0000 </r>
       <r>   10.0027    0.0000 </r>
       <r>   10.0077    0.0000 </r>
       <r>   10.0165    0.0000 </r>
       <r>   10.0217    0.0000 </r>
       <r>   10.0268    0.0000 </r>
       <r>   10.0273    0.0000 </r>
      </set>
     </set>
    </set>
   </array>
  </eigenvalues>
  <separator name="orbital magnetization" >
   <v name="MAGDIPOLOUT">      0.00000000      0.00000000      0.00000000</v>
  </separator>
 </calculation>
 <structure name="finalpos" >
  <crystal>
   <varray name="basis" >
    <v>      12.96520042       0.00000000       0.00000000 </v>
    <v>       0.00000000      12.96500015       0.00000000 </v>
    <v>       0.00000000       0.00000000      12.96500015 </v>
   </varray>
   <i name="volume">   2179.33647298 </i>
   <varray name="rec_basis" >
    <v>       0.07712954       0.00000000       0.00000000 </v>
    <v>       0.00000000       0.07713074       0.00000000 </v>
    <v>       0.00000000       0.00000000       0.07713074 </v>
   </varray>
  </crystal>
  <varray name="positions" >
   <v>       0.09716974       0.20437864       0.28066975 </v>
   <v>       0.90157943       0.79918504       0.71854819 </v>
   <v>       0.40879931       0.79849533       0.79520377 </v>
   <v>       0.59556103       0.20696750       0.21111788 </v>
   <v>       0.90273136       0.69545812       0.21812900 </v>
   <v>       0.09637402       0.29814724       0.78878504 </v>
   <v>       0.59516849       0.30592053       0.72354401 </v>
   <v>       0.40064065       0.69706401       0.27547065 </v>
   <v>       0.27575809       0.09860259       0.19385982 </v>
   <v>       0.72287683       0.90127080       0.80397531 </v>
   <v>       0.77515173       0.39254924       0.81642197 </v>
   <v>       0.21335737       0.60100326       0.19551981 </v>
   <v>       0.22793595       0.89730128       0.70015289 </v>
   <v>       0.77971333       0.09953185       0.29137699 </v>
   <v>       0.72476621       0.60274425       0.30120813 </v>
   <v>       0.28064755       0.39698416       0.69267626 </v>
   <v>       0.19239954       0.28308540       0.09720227 </v>
   <v>       0.80332427       0.71916375       0.90516922 </v>
   <v>       0.80668479       0.78266907       0.40360484 </v>
   <v>       0.19441072       0.21854143       0.60258089 </v>
   <v>       0.68559804       0.20972259       0.90177327 </v>
   <v>       0.30286563       0.78646942       0.10009915 </v>
   <v>       0.31247544       0.71863429       0.60657902 </v>
   <v>       0.68919063       0.27311876       0.40104793 </v>
   <v>       0.94627450       0.35308317       0.96984522 </v>
   <v>       0.05752672       0.65419564       0.02797819 </v>
   <v>       0.56086061       0.64467891       0.47738980 </v>
   <v>       0.44574440       0.34333354       0.53226809 </v>
   <v>       0.44205147       0.14497445       0.02830943 </v>
   <v>       0.55356021       0.84703727       0.95742403 </v>
   <v>       0.05503655       0.85068819       0.53623153 </v>
   <v>       0.93795203       0.14548435       0.48032267 </v>
   <v>       0.85089626       0.53365041       0.05543850 </v>
   <v>       0.15240389       0.46956775       0.94776732 </v>
   <v>       0.15304433       0.02480732       0.44315895 </v>
   <v>       0.85083771       0.96249266       0.55221654 </v>
   <v>       0.64492743       0.45936440       0.55700753 </v>
   <v>       0.34579062       0.53121926       0.45483954 </v>
   <v>       0.34353984       0.96737883       0.94377551 </v>
   <v>       0.64760051       0.02843912       0.04901212 </v>
   <v>       0.03721351       0.45102659       0.14896317 </v>
   <v>       0.96247310       0.55379467       0.84959817 </v>
   <v>       0.53114629       0.04886318       0.84696043 </v>
   <v>       0.46748649       0.94262263       0.14863564 </v>
   <v>       0.96902357       0.94234631       0.35255436 </v>
   <v>       0.03626450       0.05726321       0.65260446 </v>
   <v>       0.46584060       0.55279969       0.65497078 </v>
   <v>       0.52014932       0.43848387       0.34947181 </v>
   <v>       0.59874365       0.69576851       0.79554137 </v>
   <v>       0.39262515       0.31359168       0.21158649 </v>
   <v>       0.90116977       0.30957322       0.27521449 </v>
   <v>       0.10533683       0.68890172       0.73162437 </v>
   <v>       0.39801832       0.19729302       0.72346863 </v>
   <v>       0.60024626       0.81055659       0.28026846 </v>
   <v>       0.09770149       0.80046042       0.21773071 </v>
   <v>       0.89618235       0.18904689       0.78053546 </v>
   <v>       0.76704166       0.60223708       0.69355082 </v>
   <v>       0.21387863       0.40105812       0.30877924 </v>
   <v>       0.28177945       0.90143831       0.30225160 </v>
   <v>       0.72067537       0.09409079       0.69388177 </v>
   <v>       0.71592510       0.40385102       0.19349135 </v>
   <v>       0.28740993       0.59420368       0.80589490 </v>
   <v>       0.21789863       0.09640575       0.79862251 </v>
   <v>       0.78735848       0.90170456       0.19498732 </v>
   <v>       0.69705606       0.78734813       0.60542542 </v>
   <v>       0.30951204       0.21313911       0.39475927 </v>
   <v>       0.29692857       0.28421931       0.90520148 </v>
   <v>       0.69304518       0.71994134       0.10060333 </v>
   <v>       0.19270622       0.72033760       0.40051844 </v>
   <v>       0.79844459       0.27768099       0.60284698 </v>
   <v>       0.79722667       0.21737013       0.09762168 </v>
   <v>       0.20534144       0.79024986       0.90280502 </v>
   <v>       0.44543801       0.85002557       0.46808379 </v>
   <v>       0.54997450       0.14913809       0.53401974 </v>
   <v>       0.05864365       0.14995412       0.96352223 </v>
   <v>       0.95011380       0.84846083       0.02803827 </v>
   <v>       0.93986788       0.65020260       0.53904401 </v>
   <v>       0.05368134       0.35120233       0.47178438 </v>
   <v>       0.55183289       0.34593898       0.03243420 </v>
   <v>       0.45345480       0.65573380       0.95814754 </v>
   <v>       0.35084377       0.03538099       0.55411177 </v>
   <v>       0.65330327       0.97585375       0.44194497 </v>
   <v>       0.65389406       0.53042820       0.95503794 </v>
   <v>       0.34762298       0.47801234       0.04910546 </v>
   <v>       0.14557854       0.96660973       0.05706669 </v>
   <v>       0.84820561       0.02566780       0.94556883 </v>
   <v>       0.85179052       0.47635286       0.44272531 </v>
   <v>       0.15451664       0.53267860       0.55104766 </v>
   <v>       0.53533639       0.94476155       0.65266828 </v>
   <v>       0.46696761       0.04553440       0.34709405 </v>
   <v>       0.03601522       0.55644276       0.35308021 </v>
   <v>       0.97412348       0.44687269       0.65641394 </v>
   <v>       0.46150066       0.44824768       0.85291720 </v>
   <v>       0.53417699       0.54961286       0.15037484 </v>
   <v>       0.96614877       0.06005842       0.14589182 </v>
   <v>       0.03512669       0.94863106       0.84775716 </v>
   <v>       0.11932599       0.00417225       0.25507385 </v>
   <v>       0.87446481       0.00278412       0.74962511 </v>
   <v>       0.37284969       0.00598708       0.74558929 </v>
   <v>       0.63026796      -0.00272028       0.25270859 </v>
   <v>       0.87419935       0.49799324       0.25705993 </v>
   <v>       0.12561063       0.50076064       0.74663040 </v>
   <v>       0.63414920       0.49025134       0.74315125 </v>
   <v>       0.37537175       0.50266003       0.25488423 </v>
   <v>       0.24650863       0.12404501       0.00307869 </v>
   <v>       0.75749671       0.87606925       0.00522777 </v>
   <v>       0.75305032       0.37186338       0.00124099 </v>
   <v>       0.24553173       0.62792244       0.00438260 </v>
   <v>       0.24905023       0.87424674       0.50304058 </v>
   <v>       0.75363397       0.12733137       0.49976859 </v>
   <v>       0.74815087       0.61528892       0.49967715 </v>
   <v>       0.24731619       0.37265094       0.50060457 </v>
   <v>      -0.00291929       0.24917424       0.12656587 </v>
   <v>      -0.00264946       0.74957858       0.87276980 </v>
   <v>       0.00160693       0.74769418       0.38520933 </v>
   <v>      -0.00744642       0.25468238       0.61974425 </v>
   <v>       0.50086263       0.24840066       0.87446773 </v>
   <v>       0.50458883       0.74592003       0.13682240 </v>
   <v>       0.50205080       0.74765395       0.61302991 </v>
   <v>       0.50035023       0.25077485       0.37160002 </v>
   <v>      -0.00153259       0.00267077      -0.00152415 </v>
   <v>       0.50431623      -0.00025167       0.50005894 </v>
   <v>      -0.00298272       0.50041497       0.50462021 </v>
   <v>       0.50451929       0.49377396       0.00344791 </v>
   <v>       0.75085767       0.25496893       0.25693163 </v>
   <v>       0.24877943       0.74398942       0.74939367 </v>
   <v>       0.75466821       0.75007538       0.75117665 </v>
   <v>       0.24853473       0.25046725       0.25024901 </v>
   <v>       0.24539497       0.25090857       0.75205881 </v>
   <v>       0.75038504       0.75029923       0.25468543 </v>
   <v>       0.24952184       0.74909355       0.25444652 </v>
   <v>       0.74967644       0.24716095       0.74846342 </v>
   <v>       0.50082910       0.49598439       0.49831581 </v>
   <v>      -0.00074013       0.50100781      -0.00031333 </v>
   <v>       0.49604964       0.00056401       0.00110183 </v>
   <v>       0.00163658       0.00100160       0.50275260 </v>
   <v>       0.58291438       0.91871504       0.79864224 </v>
   <v>       0.81410469       0.07771987       0.12891561 </v>
   <v>       0.17387495       0.56911502       0.39460646 </v>
   <v>       0.68632636       0.93474778       0.64241326 </v>
   <v>       0.57628880       0.36775520       0.17755508 </v>
   <v>       0.63852059       0.17554148       0.06876805 </v>
   <v>       0.18088321       0.93858446       0.86290906 </v>
   <v>       0.86677993       0.81866672       0.57118727 </v>
   <v>       0.06019957       0.64735222       0.17551016 </v>
   <v>       0.30771732       0.43272608       0.90098066 </v>
   <v>       0.07444307       0.11811773       0.81215883 </v>
   <v>       0.34805438       0.82603281       0.92534306 </v>
   <v>       0.68804405       0.57034418       0.11533875 </v>
   <v>       0.17953366       0.07857372       0.64013975 </v>
   <v>       0.90460452       0.57198179       0.70033302 </v>
   <v>       0.44121549       0.33414989       0.67382882 </v>
   <v>       0.43185181       0.59525851       0.81881724 </v>
   <v>       0.66814913       0.67318620       0.95709167 </v>
   <v>       0.10369239       0.81137002       0.07293676 </v>
   <v>       0.13917736       0.32295558       0.93301224 </v>
   <v>       0.59290585       0.29782811       0.57768860 </v>
   <v>       0.87737299       0.67592076       0.07463820 </v>
   <v>       0.07184902       0.35370575       0.33039188 </v>
   <v>       0.32488221       0.92506830       0.16087717 </v>
   <v>       0.67526389       0.06235644       0.88054823 </v>
   <v>       0.91429082       0.41767521       0.80394894 </v>
   <v>       0.40566167       0.18214250       0.57621734 </v>
   <v>       0.32386678       0.06190054       0.37524676 </v>
   <v>       0.42723809       0.89092480       0.32481711 </v>
   <v>       0.82804654       0.92612472       0.39368695 </v>
   <v>       0.17557734       0.42663656       0.09862796 </v>
   <v>       0.32914372       0.56922310       0.60952340 </v>
   <v>       0.47807472       0.24188201       0.12431030 </v>
   <v>       0.37387811       0.48197238       0.74361502 </v>
   <v>       0.75757191       0.37495709       0.49586795 </v>
   <v>       0.24484140       0.88395508       0.01411512 </v>
   <v>      -0.02044295       0.24739223       0.88009793 </v>
   <v>       0.25279012       0.64532777       0.50186522 </v>
   <v>       0.12435176       0.49989201       0.25028631 </v>
   <v>       0.80518872       0.57436638      -0.08143332 </v>
   <v>       0.57977823       0.08564910       0.69959893 </v>
   <v>       0.32225165       0.33522707       0.04865739 </v>
   <v>       0.79955283       0.15411783      -0.03286311 </v>
   <v>      -0.02221358       0.22468384       0.37319057 </v>
   <v>       0.41427255       0.06694323       0.21146002 </v>
   <v>      -0.04439649       0.82241628       0.17032450 </v>
   <v>       0.50787341       0.73246478       0.37586677 </v>
   <v>       0.21628651       0.14596460       0.48109433 </v>
   <v>       0.62627768       0.50466261       0.27830100 </v>
   <v>       0.88673220       0.00412086       0.25295688 </v>
   <v>       0.09087498      -0.06208416       0.71190157 </v>
   <v>       0.69779800       0.84622809       0.47527130 </v>
   <v>       0.02046320       0.73959465       0.62630346 </v>
   <v>       0.50754990       0.75147695       0.87574239 </v>
  </varray>
 </structure>
</modeling>
