unknown system                          
           1
    12.965200    0.000000    0.000000
     0.000000   12.965000    0.000000
     0.000000    0.000000   12.965000
   O    La   Zr   Li   Al
  96  24  16  53   1
Direct configuration=     1
   0.10000000  0.19560000  0.28160000
   0.89999998  0.80439997  0.71840000
   0.40000001  0.80439997  0.78160000
   0.60000002  0.19560000  0.21840000
   0.89999998  0.69560003  0.21840000
   0.10000000  0.30440000  0.78160000
   0.60000002  0.30440000  0.71840000
   0.40000001  0.69560003  0.28160000
   0.28160000  0.10000000  0.19560000
   0.71840000  0.89999998  0.80439997
   0.78160000  0.40000001  0.80439997
   0.21840000  0.60000002  0.19560000
   0.21840000  0.89999998  0.69560003
   0.78160000  0.10000000  0.30440000
   0.71840000  0.60000002  0.30440000
   0.28160000  0.40000001  0.69560003
   0.19560000  0.28160000  0.10000000
   0.80439997  0.71840000  0.89999998
   0.80439997  0.78160000  0.40000001
   0.19560000  0.21840000  0.60000002
   0.69560003  0.21840000  0.89999998
   0.30440000  0.78160000  0.10000000
   0.30440000  0.71840000  0.60000002
   0.69560003  0.28160000  0.40000001
   0.94560003  0.34999999  0.96840000
   0.05440000  0.64999998  0.03160000
   0.55439997  0.64999998  0.46840000
   0.44560000  0.34999999  0.53160000
   0.44560000  0.15000001  0.03160000
   0.55439997  0.85000002  0.96840000
   0.05440000  0.85000002  0.53160000
   0.94560003  0.15000001  0.46840000
   0.85000002  0.53160000  0.05440000
   0.15000001  0.46840000  0.94560003
   0.15000001  0.03160000  0.44560000
   0.85000002  0.96840000  0.55439997
   0.64999998  0.46840000  0.55439997
   0.34999999  0.53160000  0.44560000
   0.34999999  0.96840000  0.94560003
   0.64999998  0.03160000  0.05440000
   0.03160000  0.44560000  0.15000001
   0.96840000  0.55439997  0.85000002
   0.53160000  0.05440000  0.85000002
   0.46840000  0.94560003  0.15000001
   0.96840000  0.94560003  0.34999999
   0.03160000  0.05440000  0.64999998
   0.46840000  0.55439997  0.64999998
   0.53160000  0.44560000  0.34999999
   0.60000002  0.69560003  0.78160000
   0.40000001  0.30440000  0.21840000
   0.89999998  0.30440000  0.28160000
   0.10000000  0.69560003  0.71840000
   0.40000001  0.19560000  0.71840000
   0.60000002  0.80439997  0.28160000
   0.10000000  0.80439997  0.21840000
   0.89999998  0.19560000  0.78160000
   0.78160000  0.60000002  0.69560003
   0.21840000  0.40000001  0.30440000
   0.28160000  0.89999998  0.30440000
   0.71840000  0.10000000  0.69560003
   0.71840000  0.40000001  0.19560000
   0.28160000  0.60000002  0.80439997
   0.21840000  0.10000000  0.80439997
   0.78160000  0.89999998  0.19560000
   0.69560003  0.78160000  0.60000002
   0.30440000  0.21840000  0.40000001
   0.30440000  0.28160000  0.89999998
   0.69560003  0.71840000  0.10000000
   0.19560000  0.71840000  0.40000001
   0.80439997  0.28160000  0.60000002
   0.80439997  0.21840000  0.10000000
   0.19560000  0.78160000  0.89999998
   0.44560000  0.85000002  0.46840000
   0.55439997  0.15000001  0.53160000
   0.05440000  0.15000001  0.96840000
   0.94560003  0.85000002  0.03160000
   0.94560003  0.64999998  0.53160000
   0.05440000  0.34999999  0.46840000
   0.55439997  0.34999999  0.03160000
   0.44560000  0.64999998  0.96840000
   0.34999999  0.03160000  0.55439997
   0.64999998  0.96840000  0.44560000
   0.64999998  0.53160000  0.94560003
   0.34999999  0.46840000  0.05440000
   0.15000001  0.96840000  0.05440000
   0.85000002  0.03160000  0.94560003
   0.85000002  0.46840000  0.44560000
   0.15000001  0.53160000  0.55439997
   0.53160000  0.94560003  0.64999998
   0.46840000  0.05440000  0.34999999
   0.03160000  0.55439997  0.34999999
   0.96840000  0.44560000  0.64999998
   0.46840000  0.44560000  0.85000002
   0.53160000  0.55439997  0.15000001
   0.96840000  0.05440000  0.15000001
   0.03160000  0.94560003  0.85000002
   0.12500000  0.00000000  0.25000000
   0.87500000  0.00000000  0.75000000
   0.37500000  0.00000000  0.75000000
   0.62500000  0.00000000  0.25000000
   0.87500000  0.50000000  0.25000000
   0.12500000  0.50000000  0.75000000
   0.62500000  0.50000000  0.75000000
   0.37500000  0.50000000  0.25000000
   0.25000000  0.12500000  0.00000000
   0.75000000  0.87500000  0.00000000
   0.75000000  0.37500000  0.00000000
   0.25000000  0.62500000  0.00000000
   0.25000000  0.87500000  0.50000000
   0.75000000  0.12500000  0.50000000
   0.75000000  0.62500000  0.50000000
   0.25000000  0.37500000  0.50000000
   0.00000000  0.25000000  0.12500000
   0.00000000  0.75000000  0.87500000
   0.00000000  0.75000000  0.37500000
   0.00000000  0.25000000  0.62500000
   0.50000000  0.25000000  0.87500000
   0.50000000  0.75000000  0.12500000
   0.50000000  0.75000000  0.62500000
   0.50000000  0.25000000  0.37500000
   0.00000000  0.00000000  0.00000000
   0.50000000  0.00000000  0.50000000
   0.00000000  0.50000000  0.50000000
   0.50000000  0.50000000  0.00000000
   0.75000000  0.25000000  0.25000000
   0.25000000  0.75000000  0.75000000
   0.75000000  0.75000000  0.75000000
   0.25000000  0.25000000  0.25000000
   0.25000000  0.25000000  0.75000000
   0.75000000  0.75000000  0.25000000
   0.25000000  0.75000000  0.25000000
   0.75000000  0.25000000  0.75000000
   0.50000000  0.50000000  0.50000000
   0.00000000  0.50000000  0.00000000
   0.50000000  0.00000000  0.00000000
   0.00000000  0.00000000  0.50000000
   0.56229997  0.84909999  0.82400000
   0.81229997  0.07400000  0.09910000
   0.18770000  0.57400000  0.40090001
   0.67600000  0.93770003  0.65090001
   0.56229997  0.34909999  0.17600000
   0.59909999  0.18770000  0.07400000
   0.18770000  0.92600000  0.90090001
   0.84909999  0.82400000  0.56229997
   0.07400000  0.59909999  0.18770000
   0.31230000  0.42600000  0.90090001
   0.06230000  0.15090001  0.82400000
   0.34909999  0.82400000  0.93770003
   0.68770003  0.57400000  0.09910000
   0.17600000  0.06230000  0.65090001
   0.92600000  0.59909999  0.68770003
   0.42600000  0.40090001  0.68770003
   0.42600000  0.59909999  0.81229997
   0.65090001  0.67600000  0.93770003
   0.15090001  0.82400000  0.06230000
   0.15090001  0.32400000  0.93770003
   0.59909999  0.31230000  0.57400000
   0.90090001  0.68770003  0.07400000
   0.06230000  0.34909999  0.32400000
   0.32400000  0.93770003  0.15090001
   0.68770003  0.07400000  0.90090001
   0.93770003  0.34909999  0.82400000
   0.34909999  0.17600000  0.56229997
   0.32400000  0.06230000  0.34909999
   0.42600000  0.90090001  0.31230000
   0.82400000  0.93770003  0.34909999
   0.18770000  0.42600000  0.09910000
   0.31230000  0.57400000  0.59909999
   0.50000000  0.25000000  0.12500000
   0.37500000  0.50000000  0.75000000
   0.75000000  0.37500000  0.50000000
   0.25000000  0.87500000  0.00000000
   0.00000000  0.25000000  0.87500000
   0.25000000  0.62500000  0.50000000
   0.12500000  0.50000000  0.25000000
   0.75000000  0.62500000  0.00000000
   0.62500000  0.00000000  0.75000000
   0.25000000  0.37500000  0.00000000
   0.75000000  0.12500000  0.00000000
   0.00000000  0.25000000  0.37500000
   0.37500000  0.00000000  0.25000000
   0.00000000  0.75000000  0.12500000
   0.50000000  0.75000000  0.37500000
   0.25000000  0.12500000  0.50000000
   0.62500000  0.50000000  0.25000000
   0.87500000  0.00000000  0.25000000
   0.12500000  0.00000000  0.75000000
   0.75000000  0.87500000  0.50000000
   0.00000000  0.75000000  0.62500000
   0.50000000  0.75000000  0.87500000
Direct configuration=     2
   0.10245991  0.19864670  0.27765591
   0.89542593  0.80363871  0.71961098
   0.41283764  0.80162753  0.79622958
   0.59721011  0.19714707  0.21286415
   0.90262698  0.69404013  0.21464379
   0.09917667  0.30280812  0.78824550
   0.59774570  0.30868836  0.72361760
   0.39758150  0.69835700  0.27466223
   0.28226117  0.09368826  0.19529089
   0.71144035  0.90078712  0.80601300
   0.77837829  0.39688969  0.80901019
   0.21663586  0.59861300  0.19178841
   0.22293917  0.90095824  0.69959574
   0.77854447  0.09535752  0.30162986
   0.72184505  0.60329988  0.29993809
   0.28358462  0.40298219  0.69833653
   0.19426921  0.28429935  0.09285412
   0.79939953  0.72047142  0.90417005
   0.80652615  0.78462440  0.40012339
   0.19972779  0.21599976  0.60360868
   0.69114927  0.21500368  0.90652309
   0.30388813  0.78617019  0.09116552
   0.30625585  0.71808001  0.60573763
   0.69262814  0.27788321  0.39737388
   0.94937631  0.35086422  0.96840630
   0.05663111  0.65229333  0.03508649
   0.55307347  0.65049376  0.47546022
   0.44322899  0.35168812  0.53319898
   0.44921599  0.14565614  0.02939209
   0.55037479  0.83758940  0.95708500
   0.05462193  0.85007223  0.52900728
   0.94595837  0.14708726  0.47281150
   0.84927216  0.53507696  0.05539862
   0.15860962  0.46534904  0.94867201
   0.15453492  0.02877454  0.44445363
   0.84721510  0.96498697  0.55662770
   0.64498651  0.46915224  0.55798210
   0.34336057  0.53190549  0.44741183
   0.34639255  0.96228418  0.94567143
   0.65015823  0.03270586  0.05052486
   0.03737211  0.44817621  0.14972826
   0.97457993  0.55578032  0.85361174
   0.53216504  0.04949713  0.85461732
   0.46505135  0.94241886  0.14959886
   0.96871528  0.94397564  0.34887877
   0.03391412  0.05610628  0.65538000
   0.46232585  0.55536349  0.65942350
   0.52654392  0.44425872  0.34828040
   0.58594700  0.70179012  0.79614501
   0.40142678  0.30658840  0.21781792
   0.90338488  0.30669725  0.27646204
   0.10527941  0.69532744  0.72409200
   0.39361458  0.19449618  0.72195449
   0.59731626  0.80701580  0.27470508
   0.10405769  0.80354827  0.21409236
   0.90654130  0.19565849  0.78378046
   0.77539586  0.60770724  0.69745628
   0.21644725  0.40147725  0.30297302
   0.28610346  0.90466267  0.29986399
   0.71998494  0.09285300  0.69815109
   0.71583802  0.40071020  0.19017065
   0.28704972  0.59895639  0.80808688
   0.21569648  0.09746549  0.80488864
   0.77972704  0.90272515  0.19360208
   0.69620793  0.78551757  0.60487910
   0.30555082  0.21584360  0.40058728
   0.30016737  0.28512604  0.90318574
   0.69264615  0.71669328  0.09075523
   0.19673278  0.71823523  0.39623647
   0.80349847  0.27719331  0.60383753
   0.80286702  0.21631752  0.09662368
   0.20093244  0.78546091  0.90782233
   0.44294426  0.85142161  0.46884399
   0.55264789  0.14745156  0.52724229
   0.05865381  0.15127024  0.96633833
   0.94552430  0.84683126  0.02953310
   0.94408495  0.65201144  0.53265391
   0.05815985  0.35087709  0.46752798
   0.55406122  0.35039229  0.03195805
   0.44747033  0.66116105  0.95654463
   0.34628569  0.03221169  0.55665901
   0.64968737  0.96891848  0.44483661
   0.64667468  0.53717744  0.94926774
   0.34566474  0.47085204  0.04894952
   0.15674721  0.96411218  0.05064338
   0.84516753  0.02986626  0.94841086
   0.85380971  0.47353706  0.44362513
   0.15780017  0.53208432  0.55402692
   0.53104360  0.94057529  0.65667633
   0.46399243  0.04930128  0.34633014
   0.03673989  0.55572572  0.34428683
   0.97547244  0.44675384  0.65142199
   0.46240998  0.45006408  0.84896253
   0.53134028  0.55522003  0.14228123
   0.96896380  0.05458888  0.14525702
   0.03517631  0.94593281  0.85265326
   0.11365112  0.00363548  0.25605529
   0.87847747  0.00335895  0.74624776
   0.37872833  0.00876868  0.74326900
   0.62838222  0.00116443  0.25684415
   0.86790398  0.49659528  0.25915403
   0.11577885  0.50124223  0.74349515
   0.64191224  0.48985608  0.74264396
   0.38053545  0.49859765  0.25703964
   0.25151557  0.12947083  0.00414215
   0.75970912  0.87431596  0.00345714
   0.75506766  0.37179230 -0.00412811
   0.24508500  0.62255740  0.00278849
   0.24561927  0.87270921  0.50076158
   0.75126198  0.13152240  0.49900350
   0.74855226  0.61667426  0.49634870
   0.24830500  0.37235988  0.49755660
  -0.00539059  0.24662671  0.12932889
  -0.00359712  0.74865767  0.86815356
  -0.00082320  0.75180067  0.37948472
  -0.00776118  0.25203850  0.61335028
   0.50295582  0.24829295  0.86606085
   0.50342218  0.74694901  0.14381668
   0.50160017  0.74913434  0.60295120
   0.50340403  0.25180192  0.37907631
  -0.00663553  0.00105248  0.00280282
   0.50901195  0.00550635  0.50067847
  -0.01116019  0.49497402  0.50341778
   0.50504750  0.48845005  0.00876831
   0.75607723  0.25250793  0.26254485
   0.23218349  0.74790639  0.73373108
   0.76756470  0.74226075  0.74220100
   0.25212400  0.25038071  0.25416319
   0.25645064  0.24942104  0.74292074
   0.74771555  0.74573958  0.26058452
   0.24955313  0.74459018  0.26209166
   0.74967746  0.25646900  0.74123424
   0.50961270  0.50027346  0.48819630
  -0.01182214  0.49896774 -0.00850152
   0.49710371  0.01489717  0.00240589
   0.00077489  0.00429316  0.49637619
   0.57825205  0.87391335  0.81080769
   0.81839716  0.07201989  0.10671708
   0.18310028  0.57155518  0.39580825
   0.67869413  0.93519055  0.64317740
   0.56662429  0.35624332  0.18132845
   0.60534128  0.18316737  0.07157590
   0.18080119  0.93083353  0.89244487
   0.85645768  0.82094513  0.56597801
   0.07055011  0.60537425  0.18488375
   0.31770707  0.42812718  0.89453103
   0.06489259  0.14425522  0.82087783
   0.35139483  0.82304422  0.93554741
   0.68416781  0.56973129  0.10824322
   0.17734276  0.06611794  0.64325114
   0.92348330  0.59507682  0.68822834
   0.43088966  0.39035562  0.68073351
   0.42666462  0.60007417  0.81352628
   0.65143024  0.67600823  0.93470006
   0.14230630  0.82058778  0.06907656
   0.14313834  0.31955402  0.93292423
   0.59785742  0.31051460  0.57537341
   0.89461668  0.68372952  0.07182432
   0.06539174  0.35398115  0.32297928
   0.32085800  0.93488097  0.14491683
   0.68420211  0.07288163  0.89288311
   0.92990470  0.35869755  0.81887718
   0.35913340  0.18051200  0.56742102
   0.32024699  0.06904606  0.35621065
   0.43148833  0.89257189  0.31927244
   0.82180044  0.93401108  0.35519470
   0.18351576  0.42824950  0.10759841
   0.31587946  0.57178787  0.60321185
   0.48505315  0.24675287  0.12650601
   0.36774817  0.49910428  0.74870409
   0.75329924  0.37604583  0.49867136
   0.25340115  0.87915352  0.00685614
  -0.00396754  0.24871636  0.88299555
   0.24973726  0.63432738  0.49958317
   0.12798555  0.49327431  0.25544974
   0.76335279  0.62318072 -0.00472574
   0.62084022  0.00876387  0.75345495
   0.25910563  0.36930753  0.00616757
   0.75348491  0.13491031 -0.00153364
  -0.00666345  0.24053528  0.38077722
   0.38005488  0.00989262  0.24521410
   0.00432530  0.75745766  0.13092276
   0.50216582  0.74664406  0.37708646
   0.24035142  0.12261462  0.49389871
   0.62588213  0.50108779  0.25610175
   0.88131958  0.00486291  0.24452832
   0.11879834 -0.00709374  0.75406934
   0.74084169  0.87790331  0.49359192
   0.00405195  0.75132190  0.62358325
   0.48797457  0.73036239  0.88455810
Direct configuration=     3
   0.10162515  0.19952421  0.27795794
   0.90134064  0.80495251  0.71719803
   0.41035523  0.80156518  0.79554101
   0.59811513  0.19888792  0.21381559
   0.90168855  0.69357262  0.21586580
   0.09834011  0.30259542  0.78793789
   0.59881348  0.30927615  0.72256476
   0.39852058  0.69735183  0.27618131
   0.28103359  0.09526656  0.19628239
   0.71362525  0.90170152  0.80461083
   0.77929585  0.39561948  0.80921836
   0.21677711  0.59803947  0.19341194
   0.22274891  0.90204571  0.69860318
   0.77906485  0.09616582  0.30242536
   0.72117683  0.60065681  0.30134000
   0.28320392  0.40206303  0.69743141
   0.19374099  0.28368975  0.09455465
   0.80079436  0.72067051  0.90289212
   0.80684492  0.78492317  0.40154278
   0.19990777  0.21503504  0.60144399
   0.68998491  0.21604938  0.90535442
   0.30375200  0.78551760  0.09320081
   0.30644682  0.71760110  0.60265133
   0.69207560  0.27853538  0.40022907
   0.94849043  0.35043139  0.96781330
   0.05492929  0.65209897  0.03511579
   0.55516091  0.64896115  0.47335309
   0.44430811  0.35188624  0.53252395
   0.44814862  0.15210203  0.03005728
   0.55007715  0.83740893  0.95792174
   0.05401702  0.85043183  0.52833477
   0.94452399  0.14787996  0.47314904
   0.84888464  0.53472418  0.05620875
   0.15738489  0.46463827  0.94899973
   0.15305014  0.02790089  0.44424074
   0.84735517  0.96505619  0.55569697
   0.64695328  0.46778603  0.55722858
   0.34403922  0.53157409  0.44716135
   0.34685750  0.96495242  0.94585991
   0.65095438  0.03420511  0.05039356
   0.03693171  0.44841864  0.14997266
   0.97439578  0.55711979  0.85034081
   0.53260615  0.05084849  0.85347207
   0.46563728  0.94253664  0.15056590
   0.96784620  0.94433922  0.34966349
   0.03373154  0.05673824  0.65396859
   0.46273212  0.55426279  0.65727014
   0.52769973  0.44328306  0.34667761
   0.58865737  0.69968683  0.79511548
   0.40138083  0.30779144  0.21961340
   0.90354521  0.30726417  0.27762965
   0.09485731  0.69148643  0.72265891
   0.39601286  0.19396725  0.72118224
   0.59830722  0.80744908  0.27664024
   0.10459598  0.80361492  0.21545287
   0.90553070  0.19699673  0.78233857
   0.77687607  0.60151002  0.69381084
   0.21685572  0.40038420  0.30369956
   0.28605752  0.90458601  0.30010923
   0.72100693  0.09434478  0.69749318
   0.71553062  0.40066488  0.19084869
   0.28502511  0.59932462  0.80726469
   0.21517232  0.09783863  0.80371329
   0.77960594  0.90303461  0.19531072
   0.69792713  0.78564490  0.60333927
   0.30620554  0.21530255  0.40102683
   0.30021413  0.28436899  0.90202045
   0.69363951  0.71547346  0.09244892
   0.19503971  0.71732784  0.40018256
   0.80359189  0.27811404  0.60045561
   0.80316112  0.21698504  0.09862223
   0.19989890  0.78549794  0.90658082
   0.44271229  0.85211775  0.46764030
   0.55391128  0.15006068  0.52673921
   0.05859555  0.15087287  0.96700521
   0.94585378  0.84670195  0.02872911
   0.94267042  0.65124441  0.53374571
   0.05718020  0.35088204  0.46727061
   0.55533787  0.34673532  0.03320296
   0.43478658  0.63795133  0.97813593
   0.34623275  0.03318550  0.55619833
   0.65076216  0.96997486  0.44468622
   0.64761888  0.53583434  0.95054100
   0.34684760  0.47135224  0.04940026
   0.15474585  0.96524073  0.05084970
   0.84546257  0.03025405  0.94914826
   0.85063867  0.47302265  0.44314734
   0.15708357  0.53181360  0.55336341
   0.53182513  0.94121869  0.65518505
   0.46475608  0.04898279  0.34830391
   0.03632719  0.55543286  0.34588097
   0.97419509  0.44666182  0.65083070
   0.46269896  0.44944433  0.84924592
   0.53241675  0.55479997  0.14556476
   0.96809103  0.05574721  0.14666036
   0.03415807  0.94582563  0.85313146
   0.11546455  0.00307952  0.25443578
   0.87793468  0.00379974  0.74768582
   0.37892775  0.00592924  0.74494797
   0.62683877  0.00076947  0.25402727
   0.87000544  0.49707810  0.25675947
   0.11997333  0.49999405  0.74517479
   0.63937994  0.49268369  0.74502129
   0.37831587  0.49952156  0.25531890
   0.25113301  0.12872523  0.00403813
   0.75699059  0.87300180  0.00330878
   0.75467422  0.37088771 -0.00402934
   0.24544157  0.62409407  0.00177506
   0.24674551  0.87359529  0.50131253
   0.75125137  0.12920329  0.49971391
   0.74780270  0.61844574  0.49698664
   0.24832587  0.37345721  0.49818776
  -0.00420130  0.24687563  0.12738658
  -0.00204480  0.74991622  0.87172110
  -0.00010017  0.75149574  0.37797196
  -0.00600839  0.25148324  0.61542521
   0.50239441  0.24854772  0.86617051
   0.50283874  0.74842546  0.13858110
   0.50041561  0.75021575  0.60836847
   0.50188831  0.25053778  0.37751324
  -0.00394699 -0.00016005  0.00008776
   0.50600595  0.00279824  0.50186745
  -0.00530666  0.49686721  0.50275290
   0.50161695  0.49079387  0.00395927
   0.75540124  0.25121283  0.25750159
   0.24366044  0.75169496  0.74096891
   0.75682455  0.74764318  0.74919206
   0.25284003  0.24959875  0.25081938
   0.25263881  0.25160260  0.74782985
   0.74852142  0.74951214  0.25530579
   0.25047268  0.74684949  0.25501914
   0.74927100  0.25189195  0.74642506
   0.50446456  0.50121639  0.49189561
  -0.00759336  0.49985974 -0.00488677
   0.49747992  0.00357222  0.00242311
   0.00201755  0.00224964  0.49817331
   0.57671989  0.87239822  0.81178759
   0.81876105  0.07158127  0.10812872
   0.18159332  0.57049927  0.39482946
   0.67917815  0.93411183  0.64275249
   0.56795853  0.35675635  0.18166467
   0.60723601  0.18241399  0.07123918
   0.18027999  0.93107941  0.89146071
   0.85766934  0.82079594  0.56642249
   0.06970122  0.60644508  0.18367014
   0.31858043  0.42919763  0.89301451
   0.06625423  0.14302770  0.81998734
   0.35227577  0.82262204  0.93425814
   0.68330534  0.56976183  0.10904926
   0.17781518  0.06688396  0.64239043
   0.92233387  0.59363771  0.68852963
   0.43197754  0.38884029  0.67920699
   0.42729296  0.59954538  0.81291461
   0.65058278  0.67777643  0.93354806
   0.14132863  0.81984117  0.06995598
   0.14207352  0.31938146  0.93186449
   0.59627356  0.30992464  0.57643000
   0.89380467  0.68318064  0.07181280
   0.06634253  0.35498491  0.32236307
   0.31990726  0.93326343  0.14352545
   0.68336374  0.07162447  0.89144617
   0.92872598  0.36069462  0.81770151
   0.36160612  0.18094864  0.56836993
   0.31960742  0.06959238  0.35765206
   0.43162164  0.89149833  0.32044283
   0.82172573  0.93311405  0.35596011
   0.18193671  0.42902469  0.10875940
   0.31750403  0.57073731  0.60475715
   0.48185918  0.24566774  0.12633770
   0.36632125  0.49911372  0.74877068
   0.75398677  0.37628270  0.49831792
   0.25389356  0.87999693  0.00733415
  -0.00495505  0.24797742  0.88473465
   0.24994582  0.63655626  0.49991539
   0.12815686  0.49310633  0.25510948
   0.76464578  0.62247863 -0.00609182
   0.62016469  0.01077094  0.75331246
   0.26145587  0.36816845  0.00740000
   0.75463645  0.13600731 -0.00228076
  -0.00725441  0.23886672  0.38079067
   0.38188287  0.01147447  0.24315127
   0.00410521  0.75904494  0.13174169
   0.50237100  0.74586478  0.37716829
   0.23899185  0.12314489  0.49335658
   0.62585983  0.50163836  0.25715985
   0.88227266  0.00493697  0.24372439
   0.11842221 -0.00878526  0.75402388
   0.73899149  0.87727299  0.49308039
   0.00586738  0.75173411  0.62344323
   0.50309418  0.75742157  0.86365761
Direct configuration=     4
   0.10116033  0.20043616  0.27766092
   0.89959987  0.80430793  0.71717319
   0.40210901  0.80507024  0.79014316
   0.59897424  0.20012539  0.21427828
   0.90116575  0.69366359  0.21617223
   0.09801033  0.30174469  0.78823813
   0.59979581  0.31021313  0.72242281
   0.39938037  0.69749803  0.27647754
   0.27979189  0.09613439  0.19676277
   0.71331217  0.90171255  0.80372712
   0.77960228  0.39368832  0.80999359
   0.21650310  0.59792575  0.19457604
   0.22387115  0.90220397  0.69870834
   0.77910307  0.09597314  0.30230559
   0.72159457  0.60137722  0.30134520
   0.28316373  0.40132787  0.69693303
   0.19326142  0.28288401  0.09575710
   0.80057462  0.72168541  0.90202408
   0.80686187  0.78552748  0.40135681
   0.20083235  0.21432174  0.60119602
   0.68879743  0.21586958  0.90393141
   0.30323613  0.78620962  0.09515866
   0.30709023  0.71834850  0.60302436
   0.69196521  0.27793931  0.40081023
   0.94810539  0.35079442  0.96750721
   0.05314788  0.65255988  0.03583730
   0.55608294  0.64955728  0.47371152
   0.44479970  0.35233823  0.53246808
   0.44911409  0.14923212  0.02810261
   0.55033604  0.83913442  0.95784543
   0.05388716  0.85112844  0.52744022
   0.94348874  0.14734089  0.47443959
   0.84958089  0.53458704  0.05688276
   0.15642823  0.46380033  0.94976286
   0.15225632  0.02651888  0.44376179
   0.84736307  0.96484104  0.55534564
   0.64673186  0.46697902  0.55704220
   0.34444248  0.53148428  0.44758460
   0.34786783  0.96576099  0.94580224
   0.65069947  0.03433494  0.04933043
   0.03709220  0.44915083  0.14978646
   0.97501415  0.55766388  0.84997622
   0.53285269  0.04982037  0.85369754
   0.46619384  0.94210194  0.14994642
   0.96741394  0.94475208  0.34998289
   0.03392436  0.05710202  0.65363511
   0.46250641  0.55409128  0.65601006
   0.52734276  0.44289503  0.34695988
   0.59618370  0.69664344  0.79039082
   0.40053089  0.30898560  0.22151127
   0.90396189  0.30770077  0.27769228
   0.09696281  0.69217533  0.72350988
   0.39608911  0.19323075  0.72128863
   0.59857581  0.80826651  0.27724662
   0.10526261  0.80397853  0.21582592
   0.90475974  0.19790229  0.78146154
   0.77578345  0.60314746  0.69331497
   0.21700249  0.39925189  0.30421116
   0.28645916  0.90469104  0.29943614
   0.72188559  0.09445672  0.69799164
   0.71562594  0.40025921  0.19092972
   0.28396279  0.60097210  0.80597280
   0.21447443  0.09738160  0.80277174
   0.77931360  0.90333100  0.19599759
   0.69854946  0.78637665  0.60389064
   0.30676156  0.21442715  0.40076415
   0.29959134  0.28386254  0.90092614
   0.69471112  0.71545818  0.09293773
   0.19471445  0.71799665  0.39979818
   0.80284445  0.27758690  0.60063179
   0.80340278  0.21695583  0.10011258
   0.20053056  0.78679581  0.90500005
   0.44268008  0.85227921  0.46756508
   0.55406639  0.15016212  0.52603693
   0.05904907  0.14999511  0.96728571
   0.94569227  0.84661758  0.02804491
   0.94151294  0.65074451  0.53430388
   0.05683265  0.35081429  0.46690105
   0.55627949  0.34423493  0.03357151
   0.43596772  0.64249581  0.97426696
   0.34633994  0.03363676  0.55642738
   0.65034757  0.97120127  0.44467025
   0.64898131  0.53579215  0.95118741
   0.34622572  0.47063890  0.05007720
   0.15334583  0.96557885  0.05054903
   0.84538945  0.02986527  0.95005282
   0.85045388  0.47377079  0.44297310
   0.15692530  0.53134904  0.55248704
   0.53251769  0.94033369  0.65559052
   0.46510509  0.04759608  0.35003477
   0.03669949  0.55517399  0.34695629
   0.97446076  0.44656481  0.65049727
   0.46228458  0.44897693  0.84819837
   0.53357926  0.55387862  0.14791309
   0.96774902  0.05651033  0.14620680
   0.03379346  0.94594333  0.85377789
   0.11605023  0.00322227  0.25393690
   0.87832560  0.00443123  0.74757934
   0.37844725  0.00730393  0.74536952
   0.62617084  0.00178747  0.25309927
   0.87055546  0.49704202  0.25634510
   0.12154617  0.50017999  0.74604032
   0.63951476  0.49283946  0.74596472
   0.37804585  0.50006400  0.25362846
   0.25138420  0.12926137  0.00446634
   0.75699541  0.87272377  0.00465231
   0.75378655  0.37083999 -0.00362940
   0.24667256  0.62339907  0.00138034
   0.24655369  0.87379382  0.50054821
   0.75147919  0.12893125  0.49965940
   0.74798200  0.61834883  0.49691466
   0.24811980  0.37356662  0.49813273
  -0.00349119  0.24719206  0.12677309
  -0.00067873  0.74944557  0.87195120
   0.00024333  0.75069529  0.37777108
  -0.00566536  0.25174486  0.61594835
   0.50198742  0.24909542  0.86676347
   0.50185517  0.74599635  0.13600702
   0.50028755  0.74944046  0.60740390
   0.50171438  0.25017019  0.37621417
  -0.00246097 -0.00008955 -0.00050941
   0.50514267  0.00374338  0.50141874
  -0.00364686  0.49867673  0.50189266
   0.49959701  0.49158709  0.00361627
   0.75387298  0.25149361  0.25638953
   0.24086676  0.74877356  0.74462623
   0.75758560  0.74779519  0.74905695
   0.25368852  0.24958074  0.24896253
   0.25054008  0.25215031  0.74982567
   0.74950341  0.74937544  0.25371544
   0.25092760  0.74734948  0.25349539
   0.74995003  0.24970162  0.74744065
   0.50198479  0.50015786  0.49269941
  -0.00479252  0.50062724 -0.00425417
   0.49594801  0.00417055  0.00397002
   0.00180590  0.00117132  0.49937606
   0.58012780  0.87870549  0.80951007
   0.81965379  0.07118516  0.11022448
   0.17976926  0.56962100  0.39363379
   0.68029832  0.93304370  0.64130926
   0.56971111  0.35778601  0.18201763
   0.60881066  0.18203767  0.07091978
   0.17911295  0.93170914  0.89005176
   0.85957261  0.82017759  0.56732992
   0.06863367  0.60789188  0.18242591
   0.31963994  0.43040529  0.89144601
   0.06787287  0.14150244  0.81872376
   0.35281633  0.82124158  0.93358717
   0.68174180  0.56904459  0.11066454
   0.17841272  0.06847827  0.64102427
   0.92103215  0.59193231  0.68903603
   0.43362111  0.38599881  0.67695483
   0.42861740  0.59985788  0.81449305
   0.64961489  0.67782001  0.93364311
   0.13961516  0.81900571  0.07129719
   0.14046938  0.31941189  0.93072746
   0.59477350  0.30912102  0.57729436
   0.89281746  0.68205809  0.07221480
   0.06732963  0.35586044  0.32199507
   0.31863036  0.93143866  0.14253150
   0.68229103  0.07072181  0.88983449
   0.92681878  0.36409602  0.81583773
   0.36505556  0.18190512  0.56987240
   0.31888598  0.07047584  0.35969734
   0.43175674  0.88992803  0.32228296
   0.82172835  0.93208018  0.35745324
   0.18003501  0.42987431  0.11026039
   0.31911895  0.56944386  0.60618878
   0.47820241  0.24497977  0.12640687
   0.36461434  0.49844542  0.74851213
   0.75493357  0.37652620  0.49774308
   0.25398008  0.88119778  0.00814923
  -0.00692691  0.24700420  0.88669612
   0.24993134  0.63900682  0.49998664
   0.12833099  0.49289433  0.25512874
   0.76639190  0.62056300 -0.00802313
   0.61947658  0.01423536  0.75209016
   0.26484066  0.36653651  0.00947738
   0.75658044  0.13789480 -0.00341504
  -0.00830022  0.23685715  0.38078342
   0.38424630  0.01432578  0.24106521
   0.00317874  0.76118837  0.13322897
   0.50302467  0.74423586  0.37729639
   0.23700021  0.12442017  0.49246905
   0.62574971  0.50230540  0.25903363
   0.88359504  0.00519159  0.24355440
   0.11742014 -0.01087690  0.75318283
   0.73684683  0.87618421  0.49204769
   0.00815195  0.75176850  0.62337020
   0.49970280  0.75113022  0.87746566
Direct configuration=     5
   0.10111402  0.20133753  0.27712527
   0.90022368  0.80414861  0.71702580
   0.40505491  0.80225898  0.79446354
   0.59897436  0.20134662  0.21420370
   0.90139327  0.69369048  0.21621107
   0.09777044  0.30109130  0.78880119
   0.60007002  0.31100249  0.72286247
   0.40007912  0.69746637  0.27591504
   0.27904036  0.09678091  0.19663784
   0.71427955  0.90266319  0.80308886
   0.77982734  0.39228146  0.81126280
   0.21627408  0.59753570  0.19480541
   0.22424220  0.90196610  0.69903134
   0.77893661  0.09605178  0.30177018
   0.72206721  0.60178516  0.30089647
   0.28299495  0.40094137  0.69677171
   0.19326065  0.28268968  0.09626912
   0.80084343  0.72237204  0.90243085
   0.80714408  0.78585429  0.40068591
   0.20166777  0.21416763  0.60152186