 running on  160 total cores
 distrk:  each k-point on  160 cores,    1 groups
 distr:  one band on   20 cores,    8 groups
 using from now: INCAR     
 vasp.5.4.4.18Apr17-6-g9f103f2a35 (build May 01 2020 14:22:42) gamma-only       
  
 POSCAR found type information on POSCAR  O  La Zr Li Al
 POSCAR found :  5 types and     186 ions
 scaLAPACK will be used
 LDA part: xc-table for Pade appr. of Perdew
 POSCAR, INCAR and KPOINTS ok, starting setup
 FFT: planning ...
 WAVECAR not read
 WARNING: random wavefunctions but no delay for mixing, default for NELMDL
 entering main loop
       N       E                     dE             d eps       ncg     rms          rms(c)
DAV:   1     0.253394075231E+05    0.25339E+05   -0.42190E+05  1592   0.253E+03
DAV:   2     0.943723755680E+04   -0.15902E+05   -0.14646E+05  1432   0.708E+02
DAV:   3     0.270841665754E+04   -0.67288E+04   -0.61289E+04  1496   0.358E+02
DAV:   4    -0.351274090558E+03   -0.30597E+04   -0.28491E+04  2040   0.222E+02
DAV:   5    -0.138940840962E+04   -0.10381E+04   -0.10018E+04  2528   0.142E+02    0.116E+02
DAV:   6    -0.128214275972E+04    0.10727E+03   -0.14681E+03  2432   0.664E+01    0.502E+01
DAV:   7    -0.130449736786E+04   -0.22355E+02   -0.40018E+02  2568   0.348E+01    0.262E+01
DAV:   8    -0.130977546922E+04   -0.52781E+01   -0.24085E+02  2560   0.267E+01    0.239E+01
DAV:   9    -0.130578326599E+04    0.39922E+01   -0.37766E+01  2528   0.137E+01    0.926E+00
DAV:  10    -0.130592925332E+04   -0.14599E+00   -0.19193E+01  2592   0.737E+00    0.691E+00
DAV:  11    -0.130624164263E+04   -0.31239E+00   -0.41467E+00  2608   0.401E+00    0.535E+00
DAV:  12    -0.130643397370E+04   -0.19233E+00   -0.19902E+00  2608   0.239E+00    0.643E+00
DAV:  13    -0.130625110883E+04    0.18286E+00   -0.18537E+00  2560   0.214E+00    0.369E+00
DAV:  14    -0.130622202293E+04    0.29086E-01   -0.37431E-01  2464   0.130E+00    0.206E+00
DAV:  15    -0.130621492250E+04    0.71004E-02   -0.20331E-01  2472   0.787E-01    0.131E+00
DAV:  16    -0.130620920646E+04    0.57160E-02   -0.43333E-02  2504   0.450E-01    0.954E-01
DAV:  17    -0.130620847757E+04    0.72889E-03   -0.21623E-02  2608   0.247E-01    0.526E-01
DAV:  18    -0.130620792662E+04    0.55095E-03   -0.13897E-02  2344   0.203E-01    0.375E-01
DAV:  19    -0.130620781091E+04    0.11571E-03   -0.32266E-03  2456   0.107E-01    0.192E-01
DAV:  20    -0.130620760866E+04    0.20225E-03   -0.18964E-03  2608   0.777E-02    0.115E-01
DAV:  21    -0.130620757967E+04    0.28989E-04   -0.72190E-04  2536   0.444E-02    0.425E-02
DAV:  22    -0.130620758852E+04   -0.88513E-05   -0.19126E-04  2576   0.301E-02    0.395E-02
DAV:  23    -0.130620759767E+04   -0.91532E-05   -0.55660E-05  2464   0.126E-02    0.184E-02
DAV:  24    -0.130620759537E+04    0.23014E-05   -0.13653E-05  1352   0.857E-03    0.161E-02
DAV:  25    -0.130620759551E+04   -0.14175E-06   -0.15990E-05  1632   0.688E-03    0.389E-03
DAV:  26    -0.130620759461E+04    0.90031E-06   -0.29035E-06   992   0.578E-03
   1 F= -.13062076E+04 E0= -.13061692E+04  d E =-.130621E+04
 BRION: g(F)=  0.930E+02 g(S)=  0.000E+00
 bond charge predicted
       N       E                     dE             d eps       ncg     rms          rms(c)
DAV:   1    -0.123299918881E+04    0.73208E+02   -0.12245E+04  1792   0.173E+02    0.399E+01
DAV:   2    -0.134072088615E+04   -0.10772E+03   -0.12301E+03  2560   0.797E+01    0.204E+01
DAV:   3    -0.133724490077E+04    0.34760E+01   -0.72890E+01  2616   0.214E+01    0.134E+01
DAV:   4    -0.133338435011E+04    0.38606E+01   -0.28481E+01  2448   0.109E+01    0.622E+00
DAV:   5    -0.133326636712E+04    0.11798E+00   -0.82668E+00  2568   0.618E+00    0.438E+00
DAV:   6    -0.133312323451E+04    0.14313E+00   -0.43248E+00  2592   0.372E+00    0.221E+00
DAV:   7    -0.133308087824E+04    0.42356E-01   -0.62370E-01  2552   0.216E+00    0.128E+00
DAV:   8    -0.133309642031E+04   -0.15542E-01   -0.67604E-01  2568   0.143E+00    0.102E+00
DAV:   9    -0.133309074097E+04    0.56793E-02   -0.10792E-01  2536   0.734E-01    0.672E-01
DAV:  10    -0.133308804479E+04    0.26962E-02   -0.64657E-02  2568   0.441E-01    0.274E-01
DAV:  11    -0.133308981502E+04   -0.17702E-02   -0.26297E-02  2624   0.291E-01    0.244E-01
DAV:  12    -0.133308916179E+04    0.65323E-03   -0.51924E-03  2536   0.164E-01    0.128E-01
DAV:  13    -0.133308922465E+04   -0.62866E-04   -0.47796E-03  2552   0.112E-01    0.485E-02
DAV:  14    -0.133308924715E+04   -0.22499E-04   -0.50951E-04  2608   0.522E-02    0.254E-02
DAV:  15    -0.133308925712E+04   -0.99679E-05   -0.15607E-04  2624   0.234E-02    0.117E-02
DAV:  16    -0.133308925993E+04   -0.28105E-05   -0.48795E-05  2616   0.149E-02    0.599E-03
DAV:  17    -0.133308926172E+04   -0.17947E-05   -0.11050E-05  1656   0.793E-03    0.358E-03
DAV:  18    -0.133308926206E+04   -0.33178E-06   -0.33099E-06  1192   0.543E-03
   2 F= -.13330893E+04 E0= -.13330893E+04  d E =-.268817E+02
 BRION: g(F)=  0.799E+02 g(S)=  0.000E+00 retain N=  1 mean eig= 0.52
 eig:   0.525
 bond charge predicted
       N       E                     dE             d eps       ncg     rms          rms(c)
DAV:   1    -0.130970965796E+04    0.23380E+02   -0.42784E+03  1432   0.912E+01    0.232E+01
DAV:   2    -0.134792370617E+04   -0.38214E+02   -0.46267E+02  2544   0.417E+01    0.201E+01
DAV:   3    -0.134666997686E+04    0.12537E+01   -0.32197E+01  2584   0.140E+01    0.159E+01
DAV:   4    -0.134450635993E+04    0.21636E+01   -0.24477E+01  2208   0.758E+00    0.815E+00
DAV:   5    -0.134505545008E+04   -0.54909E+00   -0.89640E+00  2392   0.542E+00    0.858E+00
DAV:   6    -0.134379230066E+04    0.12631E+01   -0.89731E+00  2424   0.480E+00    0.225E+00
DAV:   7    -0.134387779834E+04   -0.85498E-01   -0.21275E+00  2472   0.286E+00    0.125E+00
DAV:   8    -0.134388193860E+04   -0.41403E-02   -0.30471E-01  2608   0.113E+00    0.889E-01
DAV:   9    -0.134387219687E+04    0.97417E-02   -0.10232E-01  2608   0.608E-01    0.403E-01
DAV:  10    -0.134387477317E+04   -0.25763E-02   -0.47073E-02  2560   0.384E-01    0.307E-01
DAV:  11    -0.134387352084E+04    0.12523E-02   -0.73539E-03  2576   0.210E-01    0.176E-01
DAV:  12    -0.134387365743E+04   -0.13658E-03   -0.91383E-03  2304   0.143E-01    0.945E-02
DAV:  13    -0.134387359236E+04    0.65066E-04   -0.13034E-03  2552   0.873E-02    0.526E-02
DAV:  14    -0.134387361288E+04   -0.20514E-04   -0.90772E-04  2576   0.487E-02    0.258E-02
DAV:  15    -0.134387361157E+04    0.13094E-05   -0.15888E-04  2544   0.281E-02    0.123E-02
DAV:  16    -0.134387361629E+04   -0.47196E-05   -0.69432E-05  2560   0.152E-02    0.912E-03
DAV:  17    -0.134387361725E+04   -0.96938E-06   -0.10602E-05  1840   0.818E-03    0.858E-03
DAV:  18    -0.134387361607E+04    0.11806E-05   -0.47531E-06  1416   0.587E-03    0.410E-03
DAV:  19    -0.134387361671E+04   -0.63892E-06   -0.11984E-05  1656   0.627E-03    0.454E-03
DAV:  20    -0.134387361645E+04    0.25886E-06   -0.11562E-06  1064   0.377E-03
   3 F= -.13438736E+04 E0= -.13438736E+04  d E =-.107844E+02
 BRION: g(F)=  0.139E+02 g(S)=  0.000E+00 retain N=  2 mean eig= 1.41
 eig:   0.384  2.446
 bond charge predicted
       N       E                     dE             d eps       ncg     rms          rms(c)
DAV:   1    -0.134540928742E+04   -0.15357E+01   -0.55424E+02  1392   0.329E+01    0.682E+00
DAV:   2    -0.134839133624E+04   -0.29820E+01   -0.34235E+01  2328   0.129E+01    0.332E+00
DAV:   3    -0.134842269848E+04   -0.31362E-01   -0.26186E+00  2616   0.353E+00    0.277E+00
DAV:   4    -0.134831406965E+04    0.10863E+00   -0.71124E-01  2552   0.171E+00    0.143E+00
DAV:   5    -0.134829590867E+04    0.18161E-01   -0.28241E-01  2400   0.111E+00    0.948E-01
DAV:   6    -0.134829057965E+04    0.53290E-02   -0.15183E-01  2528   0.772E-01    0.668E-01
DAV:   7    -0.134828880063E+04    0.17790E-02   -0.71574E-02  2520   0.464E-01    0.395E-01
DAV:   8    -0.134828799410E+04    0.80653E-03   -0.12813E-02  2616   0.233E-01    0.233E-01
DAV:   9    -0.134828772555E+04    0.26855E-03   -0.60057E-03  2600   0.145E-01    0.108E-01
DAV:  10    -0.134828777930E+04   -0.53748E-04   -0.20488E-03  2248   0.962E-02    0.930E-02
DAV:  11    -0.134828771546E+04    0.63845E-04   -0.10491E-03  2400   0.569E-02    0.397E-02
DAV:  12    -0.134828772274E+04   -0.72860E-05   -0.37568E-04  2576   0.355E-02    0.241E-02
DAV:  13    -0.134828772923E+04   -0.64874E-05   -0.10253E-04  2616   0.206E-02    0.194E-02
DAV:  14    -0.134828772583E+04    0.33957E-05   -0.44888E-05  2496   0.122E-02    0.940E-03
DAV:  15    -0.134828772699E+04   -0.11518E-05   -0.25529E-05  2264   0.886E-03    0.586E-03
DAV:  16    -0.134828772651E+04    0.47809E-06   -0.15645E-06  1064   0.465E-03
   4 F= -.13482877E+04 E0= -.13482877E+04  d E =-.441411E+01
 BRION: g(F)=  0.420E+01 g(S)=  0.000E+00 retain N=  3 mean eig= 2.04
 eig:   5.331  0.392  0.392
 bond charge predicted
       N       E                     dE             d eps       ncg     rms          rms(c)
DAV:   1    -0.134943470605E+04   -0.11470E+01   -0.22443E+02  1384   0.210E+01    0.373E+00
DAV:   2    -0.135052736331E+04   -0.10927E+01   -0.11771E+01  2280   0.763E+00    0.176E+00
DAV:   3    -0.135054775531E+04   -0.20392E-01   -0.83252E-01  2600   0.170E+00    0.145E+00
DAV:   4    -0.135051006760E+04    0.37688E-01   -0.22519E-01  2504   0.976E-01    0.688E-01
DAV:   5    -0.135050834960E+04    0.17180E-02   -0.75636E-02  2496   0.546E-01    0.486E-01
DAV:   6    -0.135050695228E+04    0.13973E-02   -0.51825E-02  2576   0.407E-01    0.216E-01
DAV:   7    -0.135050710823E+04   -0.15595E-03   -0.12074E-02  2400   0.213E-01    0.189E-01
DAV:   8    -0.135050693999E+04    0.16824E-03   -0.36873E-03  2544   0.106E-01    0.950E-02
DAV:   9    -0.135050690930E+04    0.30687E-04   -0.19838E-03  2600   0.751E-02    0.579E-02
DAV:  10    -0.135050692887E+04   -0.19569E-04   -0.48911E-04  2416   0.447E-02    0.507E-02
DAV:  11    -0.135050690829E+04    0.20582E-04   -0.26225E-04  2472   0.291E-02    0.217E-02
DAV:  12    -0.135050691027E+04   -0.19817E-05   -0.11193E-04  2320   0.190E-02    0.113E-02
DAV:  13    -0.135050691120E+04   -0.93256E-06   -0.21843E-05  2008   0.103E-02    0.705E-03
DAV:  14    -0.135050691137E+04   -0.16535E-06   -0.10714E-05  1656   0.629E-03    0.350E-03
DAV:  15    -0.135050691124E+04    0.12925E-06   -0.18573E-06  1064   0.487E-03
   5 F= -.13505069E+04 E0= -.13505069E+04  d E =-.221918E+01
 BRION: g(F)=  0.181E+01 g(S)=  0.000E+00 retain N=  4 mean eig= 1.92
 eig:   4.641  1.871  0.593  0.593
 bond charge predicted
       N       E                     dE             d eps       ncg     rms          rms(c)
DAV:   1    -0.135096444754E+04   -0.45754E+00   -0.30174E+02  1360   0.248E+01    0.349E+00
DAV:   2    -0.135241051169E+04   -0.14461E+01   -0.15230E+01  2272   0.899E+00    0.166E+00
DAV:   3    -0.135247010537E+04   -0.59594E-01   -0.11252E+00  2608   0.191E+00    0.132E+00
DAV:   4    -0.135243781494E+04    0.32290E-01   -0.16411E-01  2576   0.920E-01    0.763E-01
DAV:   5    -0.135242783063E+04    0.99843E-02   -0.73801E-02  2424   0.545E-01    0.344E-01
DAV:   6    -0.135242914875E+04   -0.13181E-02   -0.33264E-02  2600   0.353E-01    0.228E-01
DAV:   7    -0.135242906431E+04    0.84445E-04   -0.98171E-03  2496   0.196E-01    0.153E-01
DAV:   8    -0.135242910380E+04   -0.39492E-04   -0.35555E-03  2568   0.111E-01    0.851E-02
DAV:   9    -0.135242905179E+04    0.52007E-04   -0.77396E-04  2624   0.617E-02    0.562E-02
DAV:  10    -0.135242908428E+04   -0.32488E-04   -0.72964E-04  2344   0.471E-02    0.429E-02
DAV:  11    -0.135242906377E+04    0.20513E-04   -0.20367E-04  2544   0.324E-02    0.183E-02
DAV:  12    -0.135242907166E+04   -0.78949E-05   -0.15041E-04  2504   0.205E-02    0.170E-02
DAV:  13    -0.135242906818E+04    0.34807E-05   -0.32141E-05  2224   0.123E-02    0.700E-03
DAV:  14    -0.135242906869E+04   -0.50897E-06   -0.10394E-05  1792   0.676E-03    0.284E-03
DAV:  15    -0.135242906882E+04   -0.13121E-06   -0.10509E-06   984   0.393E-03
   6 F= -.13524291E+04 E0= -.13524291E+04  d E =-.192216E+01
 BRION: g(F)=  0.110E+01 g(S)=  0.000E+00 retain N=  5 mean eig= 1.71
 eig:   4.154  2.203  0.812  0.812  0.547
 bond charge predicted
       N       E                     dE             d eps       ncg     rms          rms(c)
DAV:   1    -0.135292684885E+04   -0.49778E+00   -0.11663E+02  1376   0.157E+01    0.226E+00
DAV:   2    -0.135350597533E+04   -0.57913E+00   -0.61801E+00  2296   0.583E+00    0.110E+00
DAV:   3    -0.135353488366E+04   -0.28908E-01   -0.49074E-01  2608   0.125E+00    0.898E-01
DAV:   4    -0.135352317414E+04    0.11710E-01   -0.73749E-02  2584   0.623E-01    0.512E-01
DAV:   5    -0.135351970934E+04    0.34648E-02   -0.33310E-02  2400   0.378E-01    0.252E-01
DAV:   6    -0.135352027002E+04   -0.56068E-03   -0.15299E-02  2576   0.250E-01    0.199E-01
DAV:   7    -0.135352001980E+04    0.25021E-03   -0.65568E-03  2488   0.153E-01    0.123E-01
DAV:   8    -0.135352001404E+04    0.57617E-05   -0.22378E-03  2608   0.906E-02    0.663E-02
DAV:   9    -0.135351998303E+04    0.31012E-04   -0.40479E-04  2616   0.447E-02    0.449E-02
DAV:  10    -0.135352000279E+04   -0.19764E-04   -0.45908E-04  2288   0.360E-02    0.357E-02
DAV:  11    -0.135351998606E+04    0.16734E-04   -0.12705E-04  2504   0.265E-02    0.139E-02
DAV:  12    -0.135351999260E+04   -0.65434E-05   -0.10152E-04  2336   0.168E-02    0.160E-02
DAV:  13    -0.135351998896E+04    0.36475E-05   -0.24278E-05  2104   0.107E-02    0.635E-03
DAV:  14    -0.135351998910E+04   -0.13989E-06   -0.48838E-06  1280   0.597E-03
   7 F= -.13535200E+04 E0= -.13535200E+04  d E =-.109092E+01
 BRION: g(F)=  0.809E+00 g(S)=  0.000E+00 retain N=  6 mean eig= 1.87
 eig:   3.656  3.656  1.327  1.327  0.619  0.619
 bond charge predicted
       N       E                     dE             d eps       ncg     rms          rms(c)
DAV:   1    -0.135391827828E+04   -0.39829E+00   -0.98670E+01  1392   0.143E+01    0.187E+00
DAV:   2    -0.135442279126E+04   -0.50451E+00   -0.53360E+00  2296   0.543E+00    0.929E-01
DAV:   3    -0.135444882897E+04   -0.26038E-01   -0.41431E-01  2624   0.113E+00    0.734E-01
DAV:   4    -0.135444010459E+04    0.87244E-02   -0.48787E-02  2584   0.539E-01    0.465E-01
DAV:   5    -0.135443567001E+04    0.44346E-02   -0.24595E-02  2352   0.317E-01    0.190E-01
DAV:   6    -0.135443632127E+04   -0.65126E-03   -0.12143E-02  2520   0.213E-01    0.158E-01
DAV:   7    -0.135443625467E+04    0.66602E-04   -0.46309E-03  2512   0.131E-01    0.108E-01
DAV:   8    -0.135443622923E+04    0.25435E-04   -0.18476E-03  2600   0.811E-02    0.598E-02
DAV:   9    -0.135443620369E+04    0.25542E-04   -0.33640E-04  2544   0.402E-02    0.408E-02
DAV:  10    -0.135443621129E+04   -0.75985E-05   -0.31338E-04  2400   0.318E-02    0.256E-02
DAV:  11    -0.135443620552E+04    0.57728E-05   -0.85252E-05  2488   0.220E-02    0.101E-02
DAV:  12    -0.135443621013E+04   -0.46116E-05   -0.54984E-05  2384   0.129E-02    0.125E-02
DAV:  13    -0.135443620768E+04    0.24498E-05   -0.11815E-05  1712   0.792E-03    0.521E-03
DAV:  14    -0.135443620782E+04   -0.14280E-06   -0.67901E-06  1536   0.603E-03
   8 F= -.13544362E+04 E0= -.13544362E+04  d E =-.916219E+00
 BRION: g(F)=  0.579E+00 g(S)=  0.000E+00 retain N=  7 mean eig= 2.12
 eig:   4.631  3.164  2.525  2.525  0.714  0.714  0.589
 bond charge predicted
       N       E                     dE             d eps       ncg     rms          rms(c)
DAV:   1    -0.135477910095E+04   -0.34289E+00   -0.84342E+01  1400   0.135E+01    0.171E+00
DAV:   2    -0.135521771903E+04   -0.43862E+00   -0.46832E+00  2272   0.518E+00    0.862E-01
DAV:   3    -0.135524637938E+04   -0.28660E-01   -0.39407E-01  2608   0.111E+00    0.707E-01
DAV:   4    -0.135524120046E+04    0.51789E-02   -0.42308E-02  2624   0.509E-01    0.487E-01
DAV:   5    -0.135523748201E+04    0.37184E-02   -0.24219E-02  2360   0.300E-01    0.202E-01
DAV:   6    -0.135523808907E+04   -0.60706E-03   -0.11192E-02  2520   0.211E-01    0.177E-01
DAV:   7    -0.135523793412E+04    0.15495E-03   -0.62641E-03  2520   0.147E-01    0.109E-01
DAV:   8    -0.135523790964E+04    0.24478E-04   -0.21265E-03  2568   0.919E-02    0.632E-02
DAV:   9    -0.135523789104E+04    0.18598E-04   -0.35827E-04  2560   0.418E-02    0.425E-02
DAV:  10    -0.135523789509E+04   -0.40502E-05   -0.22854E-04  2568   0.266E-02    0.205E-02
DAV:  11    -0.135523789682E+04   -0.17260E-05   -0.58616E-05  2480   0.177E-02    0.942E-03
DAV:  12    -0.135523789792E+04   -0.10993E-05   -0.21797E-05  2352   0.107E-02    0.919E-03
DAV:  13    -0.135523789721E+04    0.71133E-06   -0.10693E-05  1736   0.653E-03    0.495E-03
DAV:  14    -0.135523789695E+04    0.26141E-06   -0.16147E-06  1008   0.490E-03
   9 F= -.13552379E+04 E0= -.13552379E+04  d E =-.801689E+00
 BRION: g(F)=  0.394E+00 g(S)=  0.000E+00 retain N=  8 mean eig= 2.74
 eig:   5.299  5.299  4.725  3.164  1.032  1.032  0.673  0.673
 bond charge predicted
       N       E                     dE             d eps       ncg     rms          rms(c)
DAV:   1    -0.135546883335E+04   -0.23094E+00   -0.11099E+02  1400   0.153E+01    0.186E+00
DAV:   2    -0.135605464193E+04   -0.58581E+00   -0.61955E+00  2264   0.594E+00    0.912E-01
DAV:   3    -0.135609145116E+04   -0.36809E-01   -0.50044E-01  2584   0.121E+00    0.747E-01
DAV:   4    -0.135608574788E+04    0.57033E-02   -0.51481E-02  2608   0.560E-01    0.538E-01
DAV:   5    -0.135607982686E+04    0.59210E-02   -0.23791E-02  2440   0.320E-01    0.237E-01
DAV:   6    -0.135608008170E+04   -0.25485E-03   -0.16676E-02  2368   0.258E-01    0.169E-01
DAV:   7    -0.135608016130E+04   -0.79599E-04   -0.85024E-03  2456   0.173E-01    0.136E-01
DAV:   8    -0.135608011363E+04    0.47674E-04   -0.28421E-03  2568   0.104E-01    0.854E-02
DAV:   9    -0.135608004974E+04    0.63890E-04   -0.78255E-04  2568   0.546E-02    0.504E-02
DAV:  10    -0.135608005809E+04   -0.83497E-05   -0.30447E-04  2600   0.335E-02    0.298E-02
DAV:  11    -0.135608006559E+04   -0.75064E-05   -0.99654E-05  2472   0.214E-02    0.214E-02
DAV:  12    -0.135608006005E+04    0.55474E-05   -0.55965E-05  2344   0.173E-02    0.159E-02
DAV:  13    -0.135608005921E+04    0.83960E-06   -0.51385E-05  2296   0.124E-02    0.830E-03
DAV:  14    -0.135608005905E+04    0.15905E-06   -0.10319E-05  1728   0.656E-03    0.361E-03
DAV:  15    -0.135608005908E+04   -0.29817E-07   -0.19913E-06  1000   0.448E-03
  10 F= -.13560801E+04 E0= -.13560801E+04  d E =-.842162E+00
 BRION: g(F)=  0.311E+00 g(S)=  0.000E+00 retain N=  9 mean eig= 3.15
 eig:   6.993  6.993  4.782  3.032  2.020  2.020  0.612  0.970  0.970
 bond charge predicted
       N       E                     dE             d eps       ncg     rms          rms(c)
DAV:   1    -0.135624726113E+04   -0.16720E+00   -0.97169E+01  1400   0.142E+01    0.164E+00
DAV:   2    -0.135675771974E+04   -0.51046E+00   -0.53876E+00  2280   0.552E+00    0.830E-01
DAV:   3    -0.135678961806E+04   -0.31898E-01   -0.43282E-01  2584   0.110E+00    0.677E-01
DAV:   4    -0.135678498184E+04    0.46362E-02   -0.41345E-02  2608   0.502E-01    0.500E-01
DAV:   5    -0.135677954664E+04    0.54352E-02   -0.18684E-02  2416   0.271E-01    0.225E-01
DAV:   6    -0.135677941191E+04    0.13473E-03   -0.13625E-02  2344   0.221E-01    0.141E-01
DAV:   7    -0.135677957452E+04   -0.16261E-03   -0.72348E-03  2488   0.156E-01    0.118E-01
DAV:   8    -0.135677952798E+04    0.46536E-04   -0.20893E-03  2568   0.931E-02    0.802E-02
DAV:   9    -0.135677946913E+04    0.58847E-04   -0.68506E-04  2552   0.499E-02    0.449E-02
DAV:  10    -0.135677947888E+04   -0.97482E-05   -0.21454E-04  2584   0.285E-02    0.271E-02
DAV:  11    -0.135677948556E+04   -0.66740E-05   -0.69143E-05  2488   0.175E-02    0.200E-02
DAV:  12    -0.135677948113E+04    0.44318E-05   -0.49562E-05  2336   0.152E-02    0.146E-02
DAV:  13    -0.135677948017E+04    0.95644E-06   -0.35944E-05  2256   0.107E-02    0.787E-03
DAV:  14    -0.135677947987E+04    0.29845E-06   -0.62178E-06  1520   0.565E-03
  11 F= -.13567795E+04 E0= -.13567795E+04  d E =-.699421E+00
 BRION: g(F)=  0.249E+00 g(S)=  0.000E+00 retain N=  8 mean eig= 2.90
 eig:   6.451  6.451  2.767  2.767  1.445  1.445  0.941  0.941
 bond charge predicted
       N       E                     dE             d eps       ncg     rms          rms(c)
DAV:   1    -0.135690246046E+04   -0.12298E+00   -0.79098E+01  1400   0.127E+01    0.149E+00
DAV:   2    -0.135731546037E+04   -0.41300E+00   -0.43486E+00  2280   0.497E+00    0.753E-01
DAV:   3    -0.135734033798E+04   -0.24878E-01   -0.34407E-01  2584   0.972E-01    0.611E-01
DAV:   4    -0.135733603137E+04    0.43066E-02   -0.33441E-02  2600   0.444E-01    0.440E-01
DAV:   5    -0.135733165486E+04    0.43765E-02   -0.15240E-02  2424   0.243E-01    0.186E-01
DAV:   6    -0.135733179046E+04   -0.13560E-03   -0.10360E-02  2384   0.188E-01    0.121E-01
DAV:   7    -0.135733185278E+04   -0.62316E-04   -0.49451E-03  2456   0.129E-01    0.938E-02
DAV:   8    -0.135733183986E+04    0.12916E-04   -0.15215E-03  2600   0.775E-02    0.617E-02
DAV:   9    -0.135733181054E+04    0.29314E-04   -0.41885E-04  2520   0.407E-02    0.393E-02
DAV:  10    -0.135733181450E+04   -0.39529E-05   -0.15910E-04  2592   0.237E-02    0.231E-02
DAV:  11    -0.135733181749E+04   -0.29907E-05   -0.52839E-05  2504   0.153E-02    0.149E-02
DAV:  12    -0.135733181567E+04    0.18222E-05   -0.31199E-05  2360   0.122E-02    0.106E-02
DAV:  13    -0.135733181548E+04    0.18554E-06   -0.23392E-05  2248   0.838E-03    0.573E-03
DAV:  14    -0.135733181523E+04    0.24852E-06   -0.25357E-06  1096   0.466E-03
  12 F= -.13573318E+04 E0= -.13573318E+04  d E =-.552335E+00
 BRION: g(F)=  0.205E+00 g(S)=  0.000E+00 retain N=  6 mean eig= 3.95
 eig:   7.794  7.794  2.782  2.782  1.283  1.283
 bond charge predicted
       N       E                     dE             d eps       ncg     rms          rms(c)
DAV:   1    -0.135740523360E+04   -0.73418E-01   -0.75755E+01  1400   0.125E+01    0.145E+00
DAV:   2    -0.135780245529E+04   -0.39722E+00   -0.41890E+00  2304   0.493E+00    0.739E-01
DAV:   3    -0.135782613504E+04   -0.23680E-01   -0.33172E-01  2592   0.946E-01    0.604E-01
DAV:   4    -0.135782200900E+04    0.41260E-02   -0.31398E-02  2600   0.432E-01    0.443E-01
DAV:   5    -0.135781731378E+04    0.46952E-02   -0.14707E-02  2360   0.237E-01    0.194E-01
DAV:   6    -0.135781722272E+04    0.91052E-04   -0.11154E-02  2304   0.194E-01    0.122E-01
DAV:   7    -0.135781734880E+04   -0.12607E-03   -0.56128E-03  2480   0.136E-01    0.999E-02
DAV:   8    -0.135781730624E+04    0.42551E-04   -0.15369E-03  2584   0.799E-02    0.624E-02
DAV:   9    -0.135781727797E+04    0.28274E-04   -0.46582E-04  2544   0.414E-02    0.382E-02
DAV:  10    -0.135781728375E+04   -0.57766E-05   -0.15650E-04  2600   0.241E-02    0.233E-02
DAV:  11    -0.135781728709E+04   -0.33428E-05   -0.62329E-05  2496   0.165E-02    0.151E-02
DAV:  12    -0.135781728527E+04    0.18174E-05   -0.35569E-05  2344   0.130E-02    0.117E-02
DAV:  13    -0.135781728455E+04    0.71968E-06   -0.22669E-05  2168   0.853E-03    0.645E-03
DAV:  14    -0.135781728423E+04    0.32310E-06   -0.30549E-06  1136   0.485E-03
  13 F= -.13578173E+04 E0= -.13578173E+04  d E =-.485469E+00
 BRION: g(F)=  0.161E+00 g(S)=  0.000E+00 retain N=  3 mean eig= 4.71
 eig:   6.276  6.276  1.563
 bond charge predicted
       N       E                     dE             d eps       ncg     rms          rms(c)
DAV:   1    -0.135781545916E+04    0.18254E-02   -0.81236E+01  1392   0.129E+01    0.148E+00
DAV:   2    -0.135824113689E+04   -0.42568E+00   -0.44839E+00  2296   0.505E+00    0.757E-01
DAV:   3    -0.135826633435E+04   -0.25197E-01   -0.35474E-01  2592   0.988E-01    0.612E-01
DAV:   4    -0.135826188605E+04    0.44483E-02   -0.33551E-02  2584   0.444E-01    0.447E-01
DAV:   5    -0.135825708822E+04    0.47978E-02   -0.13904E-02  2408   0.235E-01    0.208E-01
DAV:   6    -0.135825667687E+04    0.41134E-03   -0.11547E-02  2240   0.201E-01    0.110E-01
DAV:   7    -0.135825695805E+04   -0.28117E-03   -0.64343E-03  2456   0.141E-01    0.107E-01
DAV:   8    -0.135825690753E+04    0.50514E-04   -0.13918E-03  2600   0.788E-02    0.720E-02
DAV:   9    -0.135825685714E+04    0.50391E-04   -0.64136E-04  2560   0.463E-02    0.381E-02
DAV:  10    -0.135825686881E+04   -0.11671E-04   -0.19539E-04  2600   0.279E-02    0.249E-02
DAV:  11    -0.135825687392E+04   -0.51016E-05   -0.60755E-05  2456   0.163E-02    0.175E-02
DAV:  12    -0.135825686993E+04    0.39861E-05   -0.62927E-05  2144   0.155E-02    0.131E-02
DAV:  13    -0.135825686959E+04    0.33858E-06   -0.29435E-05  2280   0.103E-02    0.101E-02
DAV:  14    -0.135825686883E+04    0.76582E-06   -0.99446E-06  1760   0.609E-03
  14 F= -.13582569E+04 E0= -.13582569E+04  d E =-.439585E+00
 BRION: g(F)=  0.128E+00 g(S)=  0.000E+00 retain N=  3 mean eig= 5.08
 eig:   6.812  6.812  1.605
 bond charge predicted
       N       E                     dE             d eps       ncg     rms          rms(c)
DAV:   1    -0.135833076163E+04   -0.73892E-01   -0.30925E+01  1392   0.805E+00    0.951E-01
DAV:   2    -0.135849410690E+04   -0.16335E+00   -0.17311E+00  2320   0.319E+00    0.477E-01
DAV:   3    -0.135850404518E+04   -0.99383E-02   -0.13920E-01  2600   0.621E-01    0.393E-01
DAV:   4    -0.135850231165E+04    0.17335E-02   -0.13091E-02  2576   0.281E-01    0.289E-01
DAV:   5    -0.135850032439E+04    0.19873E-02   -0.68254E-03  2352   0.160E-01    0.123E-01
DAV:   6    -0.135850036571E+04   -0.41317E-04   -0.48562E-03  2312   0.130E-01    0.874E-02
DAV:   7    -0.135850038144E+04   -0.15727E-04   -0.24192E-03  2424   0.898E-02    0.648E-02
DAV:   8    -0.135850037573E+04    0.57047E-05   -0.79217E-04  2600   0.546E-02    0.414E-02
DAV:   9    -0.135850036310E+04    0.12633E-04   -0.17613E-04  2568   0.275E-02    0.271E-02
DAV:  10    -0.135850036364E+04   -0.53592E-06   -0.71691E-05  2552   0.158E-02    0.144E-02
DAV:  11    -0.135850036586E+04   -0.22240E-05   -0.22024E-05  2224   0.103E-02    0.102E-02
DAV:  12    -0.135850036491E+04    0.94929E-06   -0.14412E-05  2008   0.856E-03    0.778E-03
DAV:  13    -0.135850036452E+04    0.38957E-06   -0.95641E-06  1728   0.619E-03
  15 F= -.13585004E+04 E0= -.13585004E+04  d E =-.243496E+00
 BRION: g(F)=  0.108E+00 g(S)=  0.000E+00 retain N=  3 mean eig= 4.50
 eig:   5.896  5.896  1.695
 bond charge predicted
       N       E                     dE             d eps       ncg     rms          rms(c)
DAV:   1    -0.135857059390E+04   -0.70229E-01   -0.25203E+01  1400   0.720E+00    0.824E-01
DAV:   2    -0.135870275626E+04   -0.13216E+00   -0.13934E+00  2312   0.285E+00    0.418E-01
DAV:   3    -0.135871083386E+04   -0.80776E-02   -0.11126E-01  2600   0.546E-01    0.341E-01
DAV:   4    -0.135870955272E+04    0.12811E-02   -0.98722E-03  2584   0.245E-01    0.258E-01
DAV:   5    -0.135870778678E+04    0.17659E-02   -0.46316E-03  2344   0.144E-01    0.122E-01
DAV:   6    -0.135870764659E+04    0.14018E-03   -0.46302E-03  2256   0.132E-01    0.719E-02
DAV:   7    -0.135870773249E+04   -0.85897E-04   -0.24209E-03  2384   0.882E-02    0.670E-02
DAV:   8    -0.135870771615E+04    0.16342E-04   -0.55997E-04  2560   0.485E-02    0.421E-02
DAV:   9    -0.135870769409E+04    0.22057E-04   -0.22155E-04  2480   0.281E-02    0.221E-02
DAV:  10    -0.135870769914E+04   -0.50493E-05   -0.82105E-05  2488   0.173E-02    0.135E-02
DAV:  11    -0.135870770044E+04   -0.12954E-05   -0.24190E-05  2168   0.105E-02    0.100E-02
DAV:  12    -0.135870769983E+04    0.61117E-06   -0.18275E-05  2008   0.931E-03    0.950E-03
DAV:  13    -0.135870769894E+04    0.88342E-06   -0.11369E-05  1768   0.695E-03    0.596E-03
DAV:  14    -0.135870769857E+04    0.37173E-06   -0.24526E-06  1048   0.486E-03
  16 F= -.13587077E+04 E0= -.13587077E+04  d E =-.207334E+00
 BRION: g(F)=  0.964E-01 g(S)=  0.000E+00 retain N=  3 mean eig= 4.65
 eig:   6.099  6.099  1.746
 bond charge predicted
       N       E                     dE             d eps       ncg     rms          rms(c)
DAV:   1    -0.135875142220E+04   -0.43723E-01   -0.30735E+01  1392   0.797E+00    0.913E-01
DAV:   2    -0.135891282841E+04   -0.16141E+00   -0.17046E+00  2296   0.315E+00    0.461E-01
DAV:   3    -0.135892312421E+04   -0.10296E-01   -0.13903E-01  2584   0.618E-01    0.376E-01
DAV:   4    -0.135892165602E+04    0.14682E-02   -0.12388E-02  2576   0.274E-01    0.284E-01
DAV:   5    -0.135891970758E+04    0.19484E-02   -0.59208E-03  2352   0.157E-01    0.130E-01
DAV:   6    -0.135891963784E+04    0.69737E-04   -0.51083E-03  2296   0.134E-01    0.821E-02
DAV:   7    -0.135891968872E+04   -0.50873E-04   -0.24997E-03  2408   0.910E-02    0.683E-02
DAV:   8    -0.135891967625E+04    0.12467E-04   -0.73726E-04  2560   0.547E-02    0.433E-02
DAV:   9    -0.135891965798E+04    0.18272E-04   -0.21404E-04  2520   0.280E-02    0.247E-02
DAV:  10    -0.135891966143E+04   -0.34571E-05   -0.75984E-05  2528   0.168E-02    0.136E-02
DAV:  11    -0.135891966354E+04   -0.21055E-05   -0.20704E-05  2144   0.994E-03    0.104E-02
DAV:  12    -0.135891966261E+04    0.93059E-06   -0.15817E-05  2000   0.886E-03    0.889E-03
DAV:  13    -0.135891966193E+04    0.68279E-06   -0.10427E-05  1712   0.659E-03    0.529E-03
DAV:  14    -0.135891966163E+04    0.29494E-06   -0.21866E-06  1008   0.476E-03
  17 F= -.13589197E+04 E0= -.13589197E+04  d E =-.211963E+00
 BRION: g(F)=  0.868E-01 g(S)=  0.000E+00 retain N=  3 mean eig= 4.32
 eig:   5.708  5.708  1.531
 bond charge predicted
       N       E                     dE             d eps       ncg     rms          rms(c)
DAV:   1    -0.135897235832E+04   -0.52696E-01   -0.20797E+01  1392   0.656E+00    0.746E-01
DAV:   2    -0.135908053995E+04   -0.10818E+00   -0.11415E+00  2304   0.257E+00    0.377E-01
DAV:   3    -0.135908750940E+04   -0.69695E-02   -0.93004E-02  2592   0.502E-01    0.308E-01
DAV:   4    -0.135908660455E+04    0.90486E-03   -0.83104E-03  2600   0.224E-01    0.235E-01
DAV:   5    -0.135908520294E+04    0.14016E-02   -0.37940E-03  2376   0.133E-01    0.114E-01
DAV:   6    -0.135908508284E+04    0.12010E-03   -0.39235E-03  2288   0.123E-01    0.677E-02
DAV:   7    -0.135908514466E+04   -0.61822E-04   -0.19954E-03  2416   0.813E-02    0.614E-02
DAV:   8    -0.135908513338E+04    0.11277E-04   -0.47972E-04  2552   0.451E-02    0.391E-02
DAV:   9    -0.135908511472E+04    0.18663E-04   -0.17140E-04  2448   0.247E-02    0.209E-02
DAV:  10    -0.135908511849E+04   -0.37630E-05   -0.75627E-05  2440   0.162E-02    0.118E-02
DAV:  11    -0.135908511968E+04   -0.11962E-05   -0.19635E-05  2016   0.977E-03    0.905E-03
DAV:  12    -0.135908511899E+04    0.68839E-06   -0.13235E-05  1848   0.847E-03    0.844E-03
DAV:  13    -0.135908511828E+04    0.71521E-06   -0.10162E-05  1632   0.668E-03    0.512E-03
DAV:  14    -0.135908511795E+04    0.32979E-06   -0.17204E-06   968   0.465E-03
  18 F= -.13590851E+04 E0= -.13590851E+04  d E =-.165456E+00
 BRION: g(F)=  0.773E-01 g(S)=  0.000E+00 retain N=  3 mean eig= 4.35
 eig:   5.811  5.811  1.434
 bond charge predicted
       N       E                     dE             d eps       ncg     rms          rms(c)
DAV:   1    -0.135914035766E+04   -0.55239E-01   -0.15922E+01  1392   0.571E+00    0.641E-01
DAV:   2    -0.135922203866E+04   -0.81681E-01   -0.86141E-01  2296   0.222E+00    0.321E-01
DAV:   3    -0.135922752786E+04   -0.54892E-02   -0.71222E-02  2568   0.441E-01    0.263E-01
DAV:   4    -0.135922694912E+04    0.57875E-03   -0.63312E-03  2616   0.193E-01    0.205E-01
DAV:   5    -0.135922590500E+04    0.10441E-02   -0.28773E-03  2376   0.117E-01    0.102E-01
DAV:   6    -0.135922580006E+04    0.10494E-03   -0.30785E-03  2256   0.110E-01    0.634E-02
DAV:   7    -0.135922584494E+04   -0.44881E-04   -0.16549E-03  2408   0.743E-02    0.570E-02
DAV:   8    -0.135922583495E+04    0.99938E-05   -0.38816E-04  2504   0.415E-02    0.370E-02
DAV:   9    -0.135922581696E+04    0.17985E-04   -0.14816E-04  2440   0.228E-02    0.192E-02
DAV:  10    -0.135922582070E+04   -0.37412E-05   -0.71032E-05  2440   0.154E-02    0.108E-02
DAV:  11    -0.135922582204E+04   -0.13353E-05   -0.19789E-05  1968   0.947E-03    0.958E-03
DAV:  12    -0.135922582104E+04    0.99999E-06   -0.11038E-05  1744   0.817E-03    0.856E-03
DAV:  13    -0.135922582030E+04    0.73982E-06   -0.10772E-05  1552   0.676E-03    0.472E-03
DAV:  14    -0.135922582002E+04    0.27681E-06   -0.14814E-06   952   0.478E-03
  19 F= -.13592258E+04 E0= -.13592258E+04  d E =-.140702E+00
 BRION: g(F)=  0.703E-01 g(S)=  0.000E+00 retain N=  3 mean eig= 4.05
 eig:   5.344  5.344  1.458
 bond charge predicted
       N       E                     dE             d eps       ncg     rms          rms(c)
DAV:   1    -0.135920552276E+04    0.20298E-01   -0.45751E+01  1392   0.971E+00    0.109E+00
DAV:   2    -0.135944138621E+04   -0.23586E+00   -0.24896E+00  2296   0.376E+00    0.548E-01
DAV:   3    -0.135945734634E+04   -0.15960E-01   -0.20725E-01  2584   0.750E-01    0.451E-01
DAV:   4    -0.135945566764E+04    0.16787E-02   -0.18271E-02  2616   0.331E-01    0.350E-01
DAV:   5    -0.135945273288E+04    0.29348E-02   -0.82733E-03  2392   0.194E-01    0.173E-01
DAV:   6    -0.135945246086E+04    0.27202E-03   -0.85630E-03  2264   0.179E-01    0.104E-01
DAV:   7    -0.135945257413E+04   -0.11328E-03   -0.43240E-03  2416   0.121E-01    0.930E-02
DAV:   8    -0.135945254539E+04    0.28749E-04   -0.11021E-03  2520   0.694E-02    0.611E-02
DAV:   9    -0.135945250147E+04    0.43917E-04   -0.39570E-04  2456   0.367E-02    0.314E-02
DAV:  10    -0.135945251107E+04   -0.95990E-05   -0.17580E-04  2440   0.243E-02    0.176E-02
DAV:  11    -0.135945251499E+04   -0.39221E-05   -0.48359E-05  2320   0.145E-02    0.155E-02
DAV:  12    -0.135945251282E+04    0.21724E-05   -0.33826E-05  2248   0.129E-02    0.143E-02
DAV:  13    -0.135945251056E+04    0.22547E-05   -0.26195E-05  2112   0.975E-03    0.741E-03
DAV:  14    -0.135945251030E+04    0.26688E-06   -0.42974E-06  1264   0.548E-03
  20 F= -.13594525E+04 E0= -.13594525E+04  d E =-.226690E+00
 BRION: g(F)=  0.640E-01 g(S)=  0.000E+00 retain N=  3 mean eig= 4.59
 eig:   6.100  6.100  1.562
