 running on  160 total cores
 distrk:  each k-point on  160 cores,    1 groups
 distr:  one band on   20 cores,    8 groups
 using from now: INCAR     
 vasp.5.4.4.18Apr17-6-g9f103f2a35 (build May 01 2020 14:22:42) gamma-only       
  
 POSCAR found type information on POSCAR  O  La Zr Li Al
 POSCAR found :  5 types and     186 ions
 scaLAPACK will be used
 LDA part: xc-table for Pade appr. of Perdew
 POSCAR, INCAR and KPOINTS ok, starting setup
 FFT: planning ...
 WAVECAR not read
 WARNING: random wavefunctions but no delay for mixing, default for NELMDL
 entering main loop
       N       E                     dE             d eps       ncg     rms          rms(c)
DAV:   1     0.253835197030E+05    0.25384E+05   -0.42094E+05  1616   0.253E+03
DAV:   2     0.950061330753E+04   -0.15883E+05   -0.14690E+05  1432   0.710E+02
DAV:   3     0.271215404824E+04   -0.67885E+04   -0.61822E+04  1504   0.356E+02
DAV:   4    -0.342633004603E+03   -0.30548E+04   -0.28486E+04  2056   0.224E+02
DAV:   5    -0.139845220529E+04   -0.10558E+04   -0.10176E+04  2536   0.140E+02    0.116E+02
DAV:   6    -0.128980592685E+04    0.10865E+03   -0.14521E+03  2432   0.661E+01    0.501E+01
DAV:   7    -0.131195118890E+04   -0.22145E+02   -0.39794E+02  2552   0.343E+01    0.259E+01
DAV:   8    -0.131821339632E+04   -0.62622E+01   -0.25444E+02  2520   0.271E+01    0.249E+01
DAV:   9    -0.131308257491E+04    0.51308E+01   -0.45065E+01  2536   0.145E+01    0.841E+00
DAV:  10    -0.131364271921E+04   -0.56014E+00   -0.16671E+01  2624   0.751E+00    0.691E+00
DAV:  11    -0.131400993185E+04   -0.36721E+00   -0.51285E+00  2624   0.417E+00    0.447E+00
DAV:  12    -0.131393087711E+04    0.79055E-01   -0.18755E+00  2568   0.308E+00    0.320E+00
DAV:  13    -0.131391276277E+04    0.18114E-01   -0.10869E+00  2568   0.191E+00    0.189E+00
DAV:  14    -0.131391053870E+04    0.22241E-02   -0.18529E-01  2624   0.934E-01    0.136E+00
DAV:  15    -0.131390661547E+04    0.39232E-02   -0.73016E-02  2560   0.521E-01    0.804E-01
DAV:  16    -0.131390566351E+04    0.95196E-03   -0.33757E-02  2568   0.326E-01    0.442E-01
DAV:  17    -0.131390595810E+04   -0.29459E-03   -0.13157E-02  2520   0.247E-01    0.268E-01
DAV:  18    -0.131390613318E+04   -0.17508E-03   -0.34540E-03  2448   0.112E-01    0.119E-01
DAV:  19    -0.131390606173E+04    0.71452E-04   -0.22817E-03  2512   0.979E-02    0.983E-02
DAV:  20    -0.131390611905E+04   -0.57320E-04   -0.73231E-04  2520   0.505E-02    0.388E-02
DAV:  21    -0.131390612134E+04   -0.22955E-05   -0.20768E-04  2624   0.311E-02    0.300E-02
DAV:  22    -0.131390612647E+04   -0.51239E-05   -0.97145E-05  2528   0.164E-02    0.914E-03
DAV:  23    -0.131390613184E+04   -0.53771E-05   -0.22064E-05  1848   0.107E-02    0.840E-03
DAV:  24    -0.131390613100E+04    0.84817E-06   -0.72619E-06  1120   0.608E-03
   1 F= -.13139061E+04 E0= -.13138915E+04  d E =-.131391E+04
 BRION: g(F)=  0.825E+02 g(S)=  0.000E+00
 bond charge predicted
       N       E                     dE             d eps       ncg     rms          rms(c)
DAV:   1    -0.125366280543E+04    0.60243E+02   -0.10242E+04  1736   0.151E+02    0.402E+01
DAV:   2    -0.134204029677E+04   -0.88377E+02   -0.10004E+03  2592   0.708E+01    0.191E+01
DAV:   3    -0.133755189084E+04    0.44884E+01   -0.55216E+01  2616   0.185E+01    0.122E+01
DAV:   4    -0.133393139825E+04    0.36205E+01   -0.24354E+01  2368   0.107E+01    0.577E+00
DAV:   5    -0.133403225857E+04   -0.10086E+00   -0.86596E+00  2560   0.585E+00    0.433E+00
DAV:   6    -0.133390059377E+04    0.13166E+00   -0.37675E+00  2608   0.340E+00    0.230E+00
DAV:   7    -0.133381499297E+04    0.85601E-01   -0.45959E-01  2432   0.201E+00    0.127E+00
DAV:   8    -0.133382395881E+04   -0.89658E-02   -0.75163E-01  2416   0.151E+00    0.854E-01
DAV:   9    -0.133382701513E+04   -0.30563E-02   -0.14211E-01  2416   0.740E-01    0.734E-01
DAV:  10    -0.133382539152E+04    0.16236E-02   -0.49361E-02  2568   0.370E-01    0.414E-01
DAV:  11    -0.133382409818E+04    0.12933E-02   -0.25222E-02  2592   0.305E-01    0.162E-01
DAV:  12    -0.133382502727E+04   -0.92909E-03   -0.92949E-03  2272   0.188E-01    0.164E-01
DAV:  13    -0.133382485404E+04    0.17323E-03   -0.19921E-03  2616   0.918E-02    0.108E-01
DAV:  14    -0.133382477208E+04    0.81951E-04   -0.16202E-03  2536   0.682E-02    0.342E-02
DAV:  15    -0.133382479484E+04   -0.22759E-04   -0.25824E-04  2536   0.365E-02    0.171E-02
DAV:  16    -0.133382479835E+04   -0.35049E-05   -0.60394E-05  2600   0.170E-02    0.177E-02
DAV:  17    -0.133382479717E+04    0.11823E-05   -0.31493E-05  2392   0.102E-02    0.106E-02
DAV:  18    -0.133382479732E+04   -0.14911E-06   -0.14074E-05  1952   0.706E-03    0.675E-03
DAV:  19    -0.133382479700E+04    0.31269E-06   -0.20282E-06  1056   0.500E-03
   2 F= -.13338248E+04 E0= -.13338248E+04  d E =-.199187E+02
 BRION: g(F)=  0.115E+03 g(S)=  0.000E+00 retain N=  1 mean eig= 0.44
 eig:   0.445
 bond charge predicted
       N       E                     dE             d eps       ncg     rms          rms(c)
DAV:   1    -0.130857759605E+04    0.25247E+02   -0.34799E+03  1408   0.807E+01    0.260E+01
DAV:   2    -0.134946119702E+04   -0.40884E+02   -0.49450E+02  2512   0.382E+01    0.214E+01
DAV:   3    -0.134614278976E+04    0.33184E+01   -0.52252E+01  2544   0.152E+01    0.171E+01
DAV:   4    -0.134238390494E+04    0.37589E+01   -0.36903E+01  2200   0.710E+00    0.791E+00
DAV:   5    -0.134344744157E+04   -0.10635E+01   -0.11600E+01  2440   0.494E+00    0.890E+00
DAV:   6    -0.134203355180E+04    0.14139E+01   -0.12413E+01  2488   0.424E+00    0.186E+00
DAV:   7    -0.134216584062E+04   -0.13229E+00   -0.20422E+00  2496   0.311E+00    0.206E+00
DAV:   8    -0.134209893272E+04    0.66908E-01   -0.46048E-01  2584   0.126E+00    0.106E+00
DAV:   9    -0.134209073425E+04    0.81985E-02   -0.22435E-01  2512   0.783E-01    0.410E-01
DAV:  10    -0.134209198394E+04   -0.12497E-02   -0.33269E-02  2448   0.377E-01    0.217E-01
DAV:  11    -0.134209151397E+04    0.46998E-03   -0.53911E-03  2584   0.177E-01    0.142E-01
DAV:  12    -0.134209164956E+04   -0.13560E-03   -0.69211E-03  2608   0.131E-01    0.933E-02
DAV:  13    -0.134209160403E+04    0.45534E-04   -0.80888E-04  2576   0.703E-02    0.601E-02
DAV:  14    -0.134209158740E+04    0.16633E-04   -0.56097E-04  2520   0.405E-02    0.267E-02
DAV:  15    -0.134209160195E+04   -0.14555E-04   -0.18904E-04  2624   0.267E-02    0.227E-02
DAV:  16    -0.134209159449E+04    0.74567E-05   -0.53980E-05  2600   0.149E-02    0.932E-03
DAV:  17    -0.134209159561E+04   -0.11181E-05   -0.30558E-05  2376   0.104E-02    0.595E-03
DAV:  18    -0.134209159529E+04    0.32203E-06   -0.31914E-06  1288   0.515E-03
   3 F= -.13420916E+04 E0= -.13420916E+04  d E =-.826680E+01
 BRION: g(F)=  0.607E+02 g(S)=  0.000E+00 retain N=  2 mean eig= 0.58
 eig:   0.252  0.906
 bond charge predicted
       N       E                     dE             d eps       ncg     rms          rms(c)
DAV:   1    -0.133918547007E+04    0.29061E+01   -0.81070E+02  1344   0.265E+01    0.110E+01
DAV:   2    -0.134769066767E+04   -0.85052E+01   -0.10726E+02  2536   0.171E+01    0.856E+00
DAV:   3    -0.134666636483E+04    0.10243E+01   -0.80448E+00  2280   0.526E+00    0.587E+00
DAV:   4    -0.134619216347E+04    0.47420E+00   -0.75205E+00  2136   0.337E+00    0.227E+00
DAV:   5    -0.134623647937E+04   -0.44316E-01   -0.11262E+00  2272   0.202E+00    0.264E+00
DAV:   6    -0.134610426047E+04    0.13222E+00   -0.57907E-01  2344   0.132E+00    0.790E-01
DAV:   7    -0.134611982456E+04   -0.15564E-01   -0.36209E-01  2400   0.884E-01    0.734E-01
DAV:   8    -0.134611443726E+04    0.53873E-02   -0.46404E-02  2480   0.429E-01    0.474E-01
DAV:   9    -0.134611279217E+04    0.16451E-02   -0.19842E-02  2464   0.220E-01    0.197E-01
DAV:  10    -0.134611281291E+04   -0.20740E-04   -0.47763E-03  2576   0.115E-01    0.110E-01
DAV:  11    -0.134611275838E+04    0.54538E-04   -0.15349E-03  2568   0.713E-02    0.482E-02
DAV:  12    -0.134611277018E+04   -0.11802E-04   -0.59900E-04  2592   0.419E-02    0.244E-02
DAV:  13    -0.134611277778E+04   -0.75974E-05   -0.11081E-04  2560   0.229E-02    0.209E-02
DAV:  14    -0.134611277507E+04    0.27050E-05   -0.46049E-05  2512   0.129E-02    0.137E-02
DAV:  15    -0.134611277388E+04    0.11879E-05   -0.17212E-05  2224   0.792E-03    0.679E-03
DAV:  16    -0.134611277330E+04    0.58195E-06   -0.21122E-06  1096   0.433E-03
   4 F= -.13461128E+04 E0= -.13461128E+04  d E =-.402118E+01
 BRION: g(F)=  0.785E+01 g(S)=  0.000E+00 retain N=  2 mean eig= 0.19
 eig:   0.195  0.195
 bond charge predicted
       N       E                     dE             d eps       ncg     rms          rms(c)
DAV:   1    -0.134806002521E+04   -0.19473E+01   -0.28401E+02  1384   0.240E+01    0.441E+00
DAV:   2    -0.134953964520E+04   -0.14796E+01   -0.16064E+01  2288   0.924E+00    0.222E+00
DAV:   3    -0.134957478006E+04   -0.35135E-01   -0.11804E+00  2592   0.196E+00    0.186E+00
DAV:   4    -0.134952809417E+04    0.46686E-01   -0.34079E-01  2496   0.116E+00    0.877E-01
DAV:   5    -0.134952649954E+04    0.15946E-02   -0.97912E-02  2448   0.663E-01    0.601E-01
DAV:   6    -0.134952446317E+04    0.20364E-02   -0.68477E-02  2560   0.463E-01    0.266E-01
DAV:   7    -0.134952447821E+04   -0.15042E-04   -0.17061E-02  2424   0.253E-01    0.213E-01
DAV:   8    -0.134952436960E+04    0.10861E-03   -0.49170E-03  2568   0.127E-01    0.116E-01
DAV:   9    -0.134952429908E+04    0.70515E-04   -0.23766E-03  2576   0.871E-02    0.643E-02
DAV:  10    -0.134952436125E+04   -0.62168E-04   -0.78902E-04  2424   0.544E-02    0.633E-02
DAV:  11    -0.134952432164E+04    0.39615E-04   -0.37012E-04  2496   0.358E-02    0.253E-02
DAV:  12    -0.134952432568E+04   -0.40467E-05   -0.18623E-04  2440   0.249E-02    0.156E-02
DAV:  13    -0.134952432662E+04   -0.93633E-06   -0.34581E-05  2320   0.128E-02    0.107E-02
DAV:  14    -0.134952432647E+04    0.14658E-06   -0.20445E-05  1904   0.769E-03    0.415E-03
DAV:  15    -0.134952432652E+04   -0.47512E-07   -0.26467E-06  1104   0.509E-03
   5 F= -.13495243E+04 E0= -.13495243E+04  d E =-.341155E+01
 BRION: g(F)=  0.325E+01 g(S)=  0.000E+00 retain N=  3 mean eig= 0.53
 eig:   0.805  0.118  0.675
 bond charge predicted
       N       E                     dE             d eps       ncg     rms          rms(c)
DAV:   1    -0.135021150185E+04   -0.68718E+00   -0.18245E+02  1368   0.182E+01    0.286E+00
DAV:   2    -0.135109186187E+04   -0.88036E+00   -0.93139E+00  2320   0.673E+00    0.150E+00
DAV:   3    -0.135110509412E+04   -0.13232E-01   -0.55466E-01  2584   0.136E+00    0.122E+00
DAV:   4    -0.135107577937E+04    0.29315E-01   -0.15176E-01  2496   0.781E-01    0.589E-01
DAV:   5    -0.135107455303E+04    0.12263E-02   -0.63525E-02  2472   0.474E-01    0.419E-01
DAV:   6    -0.135107329034E+04    0.12627E-02   -0.30709E-02  2576   0.314E-01    0.165E-01
DAV:   7    -0.135107348296E+04   -0.19263E-03   -0.68635E-03  2520   0.167E-01    0.119E-01
DAV:   8    -0.135107343814E+04    0.44825E-04   -0.14236E-03  2624   0.775E-02    0.592E-02
DAV:   9    -0.135107348629E+04   -0.48157E-04   -0.11006E-03  2536   0.559E-02    0.548E-02
DAV:  10    -0.135107345782E+04    0.28478E-04   -0.29273E-04  2536   0.362E-02    0.290E-02
DAV:  11    -0.135107345954E+04   -0.17279E-05   -0.20504E-04  2552   0.237E-02    0.147E-02
DAV:  12    -0.135107345882E+04    0.72167E-06   -0.31630E-05  2400   0.115E-02    0.703E-03
DAV:  13    -0.135107345903E+04   -0.20533E-06   -0.12996E-05  1648   0.728E-03    0.398E-03
DAV:  14    -0.135107345894E+04    0.88970E-07   -0.22097E-06  1056   0.534E-03
   6 F= -.13510735E+04 E0= -.13510735E+04  d E =-.154913E+01
 BRION: g(F)=  0.230E+01 g(S)=  0.000E+00 retain N=  4 mean eig= 0.80
 eig:   1.679  0.168  0.670  0.670
 bond charge predicted
       N       E                     dE             d eps       ncg     rms          rms(c)
DAV:   1    -0.135128394814E+04   -0.21049E+00   -0.28650E+02  1352   0.229E+01    0.331E+00
DAV:   2    -0.135272865267E+04   -0.14447E+01   -0.15054E+01  2320   0.848E+00    0.180E+00
DAV:   3    -0.135274863861E+04   -0.19986E-01   -0.89220E-01  2592   0.174E+00    0.145E+00
DAV:   4    -0.135270341935E+04    0.45219E-01   -0.23864E-01  2448   0.945E-01    0.687E-01
DAV:   5    -0.135269903649E+04    0.43829E-02   -0.78490E-02  2488   0.535E-01    0.442E-01
DAV:   6    -0.135269794165E+04    0.10948E-02   -0.39292E-02  2520   0.332E-01    0.171E-01
DAV:   7    -0.135269809190E+04   -0.15025E-03   -0.97876E-03  2360   0.197E-01    0.140E-01
DAV:   8    -0.135269809811E+04   -0.62112E-05   -0.26868E-03  2520   0.902E-02    0.832E-02
DAV:   9    -0.135269807797E+04    0.20139E-04   -0.15570E-03  2528   0.688E-02    0.505E-02
DAV:  10    -0.135269807650E+04    0.14688E-05   -0.37309E-04  2488   0.389E-02    0.306E-02
DAV:  11    -0.135269807682E+04   -0.31915E-06   -0.21160E-04  2528   0.253E-02    0.135E-02
DAV:  12    -0.135269807751E+04   -0.68707E-06   -0.41112E-05  2408   0.134E-02    0.646E-03
DAV:  13    -0.135269807856E+04   -0.10488E-05   -0.12442E-05  1752   0.722E-03    0.550E-03
DAV:  14    -0.135269807825E+04    0.30786E-06   -0.25252E-06  1088   0.537E-03
   7 F= -.13526981E+04 E0= -.13526981E+04  d E =-.162462E+01
 BRION: g(F)=  0.131E+01 g(S)=  0.000E+00 retain N=  5 mean eig= 1.11
 eig:   2.460  1.079  1.079  0.760  0.166
 bond charge predicted
       N       E                     dE             d eps       ncg     rms          rms(c)
DAV:   1    -0.135272925700E+04   -0.31178E-01   -0.18632E+02  1360   0.187E+01    0.276E+00
DAV:   2    -0.135364480800E+04   -0.91555E+00   -0.95585E+00  2288   0.686E+00    0.139E+00
DAV:   3    -0.135367157899E+04   -0.26771E-01   -0.64581E-01  2600   0.137E+00    0.110E+00
DAV:   4    -0.135364525063E+04    0.26328E-01   -0.13942E-01  2480   0.764E-01    0.508E-01
DAV:   5    -0.135364392849E+04    0.13221E-02   -0.45766E-02  2488   0.425E-01    0.321E-01
DAV:   6    -0.135364402855E+04   -0.10006E-03   -0.22609E-02  2592   0.255E-01    0.145E-01
DAV:   7    -0.135364395422E+04    0.74330E-04   -0.47516E-03  2344   0.147E-01    0.107E-01
DAV:   8    -0.135364397795E+04   -0.23734E-04   -0.18177E-03  2464   0.726E-02    0.500E-02
DAV:   9    -0.135364398820E+04   -0.10251E-04   -0.51928E-04  2624   0.461E-02    0.350E-02
DAV:  10    -0.135364398796E+04    0.24297E-06   -0.19457E-04  2544   0.274E-02    0.177E-02
DAV:  11    -0.135364399201E+04   -0.40477E-05   -0.10100E-04  2464   0.185E-02    0.130E-02
DAV:  12    -0.135364399110E+04    0.91072E-06   -0.18490E-05  2176   0.915E-03    0.799E-03
DAV:  13    -0.135364399108E+04    0.20882E-07   -0.14416E-05  1736   0.730E-03    0.427E-03
DAV:  14    -0.135364399093E+04    0.14718E-06   -0.22616E-06  1056   0.562E-03
   8 F= -.13536440E+04 E0= -.13536440E+04  d E =-.945913E+00
 BRION: g(F)=  0.935E+00 g(S)=  0.000E+00 retain N=  6 mean eig= 1.65
 eig:   3.273  2.404  2.404  0.200  0.819  0.819
 bond charge predicted
       N       E                     dE             d eps       ncg     rms          rms(c)
DAV:   1    -0.135392639927E+04   -0.28241E+00   -0.36060E+01  1376   0.840E+00    0.133E+00
DAV:   2    -0.135409912518E+04   -0.17273E+00   -0.18590E+00  2280   0.319E+00    0.630E-01
DAV:   3    -0.135410577209E+04   -0.66469E-02   -0.14085E-01  2608   0.661E-01    0.503E-01
DAV:   4    -0.135410162061E+04    0.41515E-02   -0.22896E-02  2544   0.330E-01    0.266E-01
DAV:   5    -0.135410098512E+04    0.63549E-03   -0.94821E-03  2400   0.189E-01    0.133E-01
DAV:   6    -0.135410111447E+04   -0.12935E-03   -0.43063E-03  2568   0.122E-01    0.789E-02
DAV:   7    -0.135410110530E+04    0.91630E-05   -0.11460E-03  2488   0.674E-02    0.574E-02
DAV:   8    -0.135410110536E+04   -0.56665E-07   -0.40794E-04  2584   0.372E-02    0.329E-02
DAV:   9    -0.135410109729E+04    0.80714E-05   -0.11740E-04  2600   0.233E-02    0.186E-02
DAV:  10    -0.135410110254E+04   -0.52465E-05   -0.78454E-05  2456   0.155E-02    0.165E-02
DAV:  11    -0.135410109972E+04    0.28199E-05   -0.27026E-05  2168   0.107E-02    0.618E-03
DAV:  12    -0.135410109994E+04   -0.22202E-06   -0.68047E-06  1544   0.627E-03
   9 F= -.13541011E+04 E0= -.13541011E+04  d E =-.457109E+00
 BRION: g(F)=  0.529E+00 g(S)=  0.000E+00 retain N=  7 mean eig= 1.92
 eig:   5.113  3.003  3.003  0.750  0.750  0.196  0.648
 bond charge predicted
       N       E                     dE             d eps       ncg     rms          rms(c)
DAV:   1    -0.135412636597E+04   -0.25266E-01   -0.15509E+02  1368   0.177E+01    0.206E+00
DAV:   2    -0.135489375587E+04   -0.76739E+00   -0.80312E+00  2288   0.664E+00    0.105E+00
DAV:   3    -0.135493609403E+04   -0.42338E-01   -0.61296E-01  2600   0.131E+00    0.839E-01
DAV:   4    -0.135492647727E+04    0.96168E-02   -0.59407E-02  2600   0.572E-01    0.566E-01
DAV:   5    -0.135491918205E+04    0.72952E-02   -0.27308E-02  2392   0.340E-01    0.224E-01
DAV:   6    -0.135491990116E+04   -0.71910E-03   -0.17719E-02  2440   0.253E-01    0.166E-01
DAV:   7    -0.135491993659E+04   -0.35434E-04   -0.69324E-03  2400   0.161E-01    0.126E-01
DAV:   8    -0.135491990717E+04    0.29414E-04   -0.26537E-03  2608   0.954E-02    0.716E-02
DAV:   9    -0.135491987314E+04    0.34034E-04   -0.62678E-04  2568   0.523E-02    0.496E-02
DAV:  10    -0.135491987549E+04   -0.23458E-05   -0.27775E-04  2584   0.318E-02    0.295E-02
DAV:  11    -0.135491987480E+04    0.68711E-06   -0.11614E-04  2480   0.222E-02    0.139E-02
DAV:  12    -0.135491987551E+04   -0.71363E-06   -0.38237E-05  2352   0.142E-02    0.123E-02
DAV:  13    -0.135491987473E+04    0.78326E-06   -0.25500E-05  2048   0.896E-03    0.651E-03
DAV:  14    -0.135491987453E+04    0.19948E-06   -0.51499E-06  1392   0.586E-03
  10 F= -.13549199E+04 E0= -.13549199E+04  d E =-.818775E+00
 BRION: g(F)=  0.386E+00 g(S)=  0.000E+00 retain N=  7 mean eig= 1.78
 eig:   3.465  3.465  1.733  1.733  0.315  0.890  0.890
 bond charge predicted
       N       E                     dE             d eps       ncg     rms          rms(c)
DAV:   1    -0.135497730052E+04   -0.57426E-01   -0.42387E+01  1384   0.905E+00    0.126E+00
DAV:   2    -0.135518743498E+04   -0.21013E+00   -0.22523E+00  2296   0.345E+00    0.644E-01
DAV:   3    -0.135519459912E+04   -0.71641E-02   -0.16533E-01  2616   0.710E-01    0.517E-01
DAV:   4    -0.135518887585E+04    0.57233E-02   -0.22403E-02  2544   0.338E-01    0.299E-01
DAV:   5    -0.135518667947E+04    0.21964E-02   -0.13813E-02  2232   0.219E-01    0.136E-01
DAV:   6    -0.135518691417E+04   -0.23469E-03   -0.61978E-03  2504   0.143E-01    0.108E-01
DAV:   7    -0.135518689476E+04    0.19404E-04   -0.19228E-03  2512   0.820E-02    0.710E-02
DAV:   8    -0.135518686421E+04    0.30555E-04   -0.41093E-04  2616   0.409E-02    0.414E-02
DAV:   9    -0.135518686249E+04    0.17194E-05   -0.12817E-04  2568   0.226E-02    0.241E-02
DAV:  10    -0.135518686222E+04    0.26582E-06   -0.50684E-05  2272   0.146E-02    0.146E-02
DAV:  11    -0.135518686205E+04    0.17212E-06   -0.40324E-05  2168   0.109E-02    0.736E-03
DAV:  12    -0.135518686162E+04    0.42877E-06   -0.57263E-06  1408   0.642E-03
  11 F= -.13551869E+04 E0= -.13551869E+04  d E =-.266987E+00
 BRION: g(F)=  0.349E+00 g(S)=  0.000E+00 retain N=  8 mean eig= 1.68
 eig:   4.007  4.007  1.731  1.731  0.781  0.781  0.324  0.117
 bond charge predicted
       N       E                     dE             d eps       ncg     rms          rms(c)
DAV:   1    -0.135517788781E+04    0.89742E-02   -0.12314E+02  1368   0.158E+01    0.183E+00
DAV:   2    -0.135578646655E+04   -0.60858E+00   -0.63792E+00  2288   0.597E+00    0.932E-01
DAV:   3    -0.135581925615E+04   -0.32790E-01   -0.48347E-01  2600   0.117E+00    0.740E-01
DAV:   4    -0.135581109338E+04    0.81628E-02   -0.48224E-02  2592   0.512E-01    0.494E-01
DAV:   5    -0.135580555198E+04    0.55414E-02   -0.21035E-02  2416   0.299E-01    0.201E-01
DAV:   6    -0.135580592081E+04   -0.36883E-03   -0.13065E-02  2432   0.220E-01    0.132E-01
DAV:   7    -0.135580602261E+04   -0.10180E-03   -0.53303E-03  2432   0.141E-01    0.104E-01
DAV:   8    -0.135580601948E+04    0.31286E-05   -0.18524E-03  2616   0.802E-02    0.621E-02
DAV:   9    -0.135580599592E+04    0.23562E-04   -0.46334E-04  2600   0.448E-02    0.420E-02
DAV:  10    -0.135580600110E+04   -0.51798E-05   -0.23676E-04  2600   0.287E-02    0.266E-02
DAV:  11    -0.135580599865E+04    0.24508E-05   -0.88533E-05  2464   0.198E-02    0.119E-02
DAV:  12    -0.135580599973E+04   -0.10788E-05   -0.34310E-05  2320   0.126E-02    0.107E-02
DAV:  13    -0.135580599900E+04    0.72669E-06   -0.16980E-05  1944   0.795E-03    0.543E-03
DAV:  14    -0.135580599891E+04    0.93904E-07   -0.43846E-06  1280   0.560E-03
  12 F= -.13558060E+04 E0= -.13558060E+04  d E =-.619137E+00
 BRION: g(F)=  0.195E+00 g(S)=  0.000E+00 retain N=  9 mean eig= 2.67
 eig:   6.096  6.096  3.815  3.815  1.094  1.094  0.320  0.838  0.838
 bond charge predicted
       N       E                     dE             d eps       ncg     rms          rms(c)
DAV:   1    -0.135592734143E+04   -0.12134E+00   -0.41484E+01  1368   0.921E+00    0.108E+00
DAV:   2    -0.135613712407E+04   -0.20978E+00   -0.22177E+00  2288   0.355E+00    0.545E-01
DAV:   3    -0.135614905126E+04   -0.11927E-01   -0.17342E-01  2600   0.702E-01    0.441E-01
DAV:   4    -0.135614640722E+04    0.26440E-02   -0.16927E-02  2600   0.309E-01    0.308E-01
DAV:   5    -0.135614407643E+04    0.23308E-02   -0.83644E-03  2360   0.182E-01    0.123E-01
DAV:   6    -0.135614425024E+04   -0.17381E-03   -0.52660E-03  2408   0.135E-01    0.895E-02
DAV:   7    -0.135614426215E+04   -0.11906E-04   -0.21823E-03  2440   0.879E-02    0.664E-02
DAV:   8    -0.135614425780E+04    0.43443E-05   -0.83448E-04  2600   0.547E-02    0.396E-02
DAV:   9    -0.135614424903E+04    0.87673E-05   -0.17501E-04  2520   0.283E-02    0.281E-02
DAV:  10    -0.135614424971E+04   -0.67390E-06   -0.77381E-05  2552   0.162E-02    0.154E-02
DAV:  11    -0.135614425068E+04   -0.97559E-06   -0.26690E-05  2344   0.111E-02    0.900E-03
DAV:  12    -0.135614425024E+04    0.44436E-06   -0.12712E-05  1888   0.834E-03    0.689E-03
DAV:  13    -0.135614425005E+04    0.18980E-06   -0.85546E-06  1680   0.598E-03
  13 F= -.13561443E+04 E0= -.13561443E+04  d E =-.338251E+00
 BRION: g(F)=  0.175E+00 g(S)=  0.000E+00 retain N=  6 mean eig= 2.18
 eig:   4.673  4.673  0.812  0.812  1.042  1.042
 bond charge predicted
       N       E                     dE             d eps       ncg     rms          rms(c)
DAV:   1    -0.135615136154E+04   -0.71113E-02   -0.77582E+01  1368   0.125E+01    0.144E+00
DAV:   2    -0.135654596610E+04   -0.39460E+00   -0.41601E+00  2304   0.485E+00    0.740E-01
DAV:   3    -0.135656770462E+04   -0.21739E-01   -0.31942E-01  2600   0.924E-01    0.591E-01
DAV:   4    -0.135656277104E+04    0.49336E-02   -0.30689E-02  2600   0.420E-01    0.417E-01
DAV:   5    -0.135655829624E+04    0.44748E-02   -0.14265E-02  2400   0.240E-01    0.178E-01
DAV:   6    -0.135655831871E+04   -0.22466E-04   -0.10020E-02  2360   0.188E-01    0.111E-01
DAV:   7    -0.135655844627E+04   -0.12756E-03   -0.45871E-03  2408   0.126E-01    0.937E-02
DAV:   8    -0.135655842499E+04    0.21282E-04   -0.14041E-03  2600   0.733E-02    0.591E-02
DAV:   9    -0.135655839763E+04    0.27354E-04   -0.42422E-04  2536   0.409E-02    0.364E-02
DAV:  10    -0.135655840480E+04   -0.71704E-05   -0.17255E-04  2528   0.248E-02    0.227E-02
DAV:  11    -0.135655840576E+04   -0.95919E-06   -0.53819E-05  2456   0.158E-02    0.138E-02
DAV:  12    -0.135655840500E+04    0.76390E-06   -0.38093E-05  2264   0.123E-02    0.115E-02
DAV:  13    -0.135655840390E+04    0.10973E-05   -0.18362E-05  2000   0.863E-03    0.618E-03
DAV:  14    -0.135655840398E+04   -0.75044E-07   -0.80180E-06  1696   0.577E-03
  14 F= -.13565584E+04 E0= -.13565584E+04  d E =-.414154E+00
 BRION: g(F)=  0.136E+00 g(S)=  0.000E+00 retain N=  3 mean eig= 3.34
 eig:   4.360  4.360  1.304
 bond charge predicted
       N       E                     dE             d eps       ncg     rms          rms(c)
DAV:   1    -0.135644403601E+04    0.11437E+00   -0.99722E+01  1360   0.143E+01    0.166E+00
DAV:   2    -0.135695848582E+04   -0.51445E+00   -0.54439E+00  2296   0.559E+00    0.858E-01
DAV:   3    -0.135698693377E+04   -0.28448E-01   -0.42341E-01  2584   0.108E+00    0.687E-01
DAV:   4    -0.135698051018E+04    0.64236E-02   -0.41876E-02  2592   0.489E-01    0.490E-01
DAV:   5    -0.135697456878E+04    0.59414E-02   -0.19541E-02  2376   0.278E-01    0.211E-01
DAV:   6    -0.135697448240E+04    0.86381E-04   -0.13370E-02  2344   0.220E-01    0.131E-01
DAV:   7    -0.135697466396E+04   -0.18155E-03   -0.67180E-03  2408   0.150E-01    0.111E-01
DAV:   8    -0.135697463557E+04    0.28390E-04   -0.20488E-03  2592   0.890E-02    0.738E-02
DAV:   9    -0.135697459574E+04    0.39830E-04   -0.60761E-04  2552   0.489E-02    0.444E-02
DAV:  10    -0.135697460326E+04   -0.75207E-05   -0.21083E-04  2608   0.282E-02    0.265E-02
DAV:  11    -0.135697460692E+04   -0.36662E-05   -0.61315E-05  2576   0.169E-02    0.168E-02
DAV:  12    -0.135697460513E+04    0.17891E-05   -0.54626E-05  2336   0.147E-02    0.126E-02
DAV:  13    -0.135697460430E+04    0.83688E-06   -0.25310E-05  2232   0.998E-03    0.786E-03
DAV:  14    -0.135697460428E+04    0.21508E-07   -0.10955E-05  1744   0.616E-03    0.369E-03
DAV:  15    -0.135697460410E+04    0.17381E-06   -0.11629E-06   952   0.411E-03
  15 F= -.13569746E+04 E0= -.13569746E+04  d E =-.416200E+00
 BRION: g(F)=  0.114E+00 g(S)=  0.000E+00 retain N=  4 mean eig= 4.10
 eig:   6.515  6.515  1.690  1.690
 bond charge predicted
       N       E                     dE             d eps       ncg     rms          rms(c)
DAV:   1    -0.135703379425E+04   -0.59190E-01   -0.22822E+01  1360   0.686E+00    0.798E-01
DAV:   2    -0.135715032905E+04   -0.11653E+00   -0.12352E+00  2280   0.265E+00    0.421E-01
DAV:   3    -0.135715682110E+04   -0.64920E-02   -0.98272E-02  2600   0.529E-01    0.333E-01
DAV:   4    -0.135715513492E+04    0.16862E-02   -0.99618E-03  2592   0.239E-01    0.228E-01
DAV:   5    -0.135715387907E+04    0.12558E-02   -0.47672E-03  2392   0.137E-01    0.952E-02
DAV:   6    -0.135715392077E+04   -0.41698E-04   -0.27855E-03  2400   0.100E-01    0.634E-02
DAV:   7    -0.135715394275E+04   -0.21979E-04   -0.12302E-03  2392   0.666E-02    0.481E-02
DAV:   8    -0.135715394380E+04   -0.10474E-05   -0.45652E-04  2592   0.404E-02    0.316E-02
DAV:   9    -0.135715393733E+04    0.64701E-05   -0.11043E-04  2520   0.222E-02    0.214E-02
DAV:  10    -0.135715393743E+04   -0.10642E-06   -0.52012E-05  2552   0.135E-02    0.121E-02
DAV:  11    -0.135715393780E+04   -0.37148E-06   -0.17314E-05  2112   0.915E-03    0.652E-03
DAV:  12    -0.135715393773E+04    0.69820E-07   -0.84864E-06  1760   0.666E-03
  16 F= -.13571539E+04 E0= -.13571539E+04  d E =-.179334E+00
 BRION: g(F)=  0.981E-01 g(S)=  0.000E+00 retain N=  3 mean eig= 3.66
 eig:   4.882  4.882  1.204
 bond charge predicted
       N       E                     dE             d eps       ncg     rms          rms(c)
DAV:   1    -0.135722000202E+04   -0.66064E-01   -0.15651E+01  1368   0.569E+00    0.677E-01
DAV:   2    -0.135729953957E+04   -0.79538E-01   -0.84392E-01  2296   0.219E+00    0.347E-01
DAV:   3    -0.135730423835E+04   -0.46988E-02   -0.67952E-02  2576   0.434E-01    0.281E-01
DAV:   4    -0.135730321542E+04    0.10229E-02   -0.69437E-03  2576   0.200E-01    0.194E-01
DAV:   5    -0.135730241522E+04    0.80019E-03   -0.35548E-03  2392   0.117E-01    0.797E-02
DAV:   6    -0.135730248319E+04   -0.67965E-04   -0.19340E-03  2448   0.844E-02    0.598E-02
DAV:   7    -0.135730248061E+04    0.25804E-05   -0.91174E-04  2456   0.576E-02    0.417E-02
DAV:   8    -0.135730248229E+04   -0.16811E-05   -0.36646E-04  2544   0.365E-02    0.281E-02
DAV:   9    -0.135730247685E+04    0.54381E-05   -0.72242E-05  2480   0.185E-02    0.194E-02
DAV:  10    -0.135730247633E+04    0.52121E-06   -0.37067E-05  2504   0.111E-02    0.101E-02
DAV:  11    -0.135730247681E+04   -0.48401E-06   -0.74839E-06  1512   0.750E-03
  17 F= -.13573025E+04 E0= -.13573025E+04  d E =-.148539E+00
 BRION: g(F)=  0.816E-01 g(S)=  0.000E+00 retain N=  4 mean eig= 4.56
 eig:   7.549  7.549  1.573  1.573
 bond charge predicted
       N       E                     dE             d eps       ncg     rms          rms(c)
DAV:   1    -0.135735459100E+04   -0.52115E-01   -0.96739E+00  1368   0.445E+00    0.517E-01
DAV:   2    -0.135740216058E+04   -0.47570E-01   -0.50099E-01  2280   0.168E+00    0.265E-01
DAV:   3    -0.135740502941E+04   -0.28688E-02   -0.39895E-02  2584   0.332E-01    0.217E-01
DAV:   4    -0.135740446840E+04    0.56102E-03   -0.37781E-03  2592   0.146E-01    0.155E-01
DAV:   5    -0.135740389759E+04    0.57081E-03   -0.23803E-03  2232   0.954E-02    0.586E-02
DAV:   6    -0.135740398287E+04   -0.85278E-04   -0.14393E-03  2496   0.700E-02    0.580E-02
DAV:   7    -0.135740396352E+04    0.19349E-04   -0.60865E-04  2488   0.459E-02    0.367E-02
DAV:   8    -0.135740395531E+04    0.82070E-05   -0.20856E-04  2552   0.282E-02    0.183E-02
DAV:   9    -0.135740395483E+04    0.48276E-06   -0.33034E-05  2408   0.128E-02    0.132E-02
DAV:  10    -0.135740395505E+04   -0.22081E-06   -0.14268E-05  1912   0.760E-03    0.586E-03
DAV:  11    -0.135740395499E+04    0.63927E-07   -0.19006E-06  1008   0.586E-03
  18 F= -.13574040E+04 E0= -.13574040E+04  d E =-.101478E+00
 BRION: g(F)=  0.769E-01 g(S)=  0.000E+00 retain N=  4 mean eig= 3.65
 eig:   6.146  6.146  1.151  1.151
 bond charge predicted
       N       E                     dE             d eps       ncg     rms          rms(c)
DAV:   1    -0.135744662400E+04   -0.42669E-01   -0.27306E+01  1360   0.750E+00    0.861E-01
DAV:   2    -0.135758492638E+04   -0.13830E+00   -0.14639E+00  2296   0.287E+00    0.442E-01
DAV:   3    -0.135759350978E+04   -0.85834E-02   -0.11951E-01  2568   0.577E-01    0.357E-01
DAV:   4    -0.135759203792E+04    0.14719E-02   -0.11571E-02  2584   0.257E-01    0.257E-01
DAV:   5    -0.135759060363E+04    0.14343E-02   -0.57567E-03  2400   0.147E-01    0.110E-01
DAV:   6    -0.135759064582E+04   -0.42190E-04   -0.33692E-03  2384   0.110E-01    0.756E-02
DAV:   7    -0.135759066330E+04   -0.17474E-04   -0.17426E-03  2472   0.778E-02    0.569E-02
DAV:   8    -0.135759066052E+04    0.27809E-05   -0.63532E-04  2568   0.496E-02    0.400E-02
DAV:   9    -0.135759064940E+04    0.11118E-04   -0.14965E-04  2520   0.252E-02    0.257E-02
DAV:  10    -0.135759064942E+04   -0.25524E-07   -0.52220E-05  2520   0.135E-02    0.140E-02
DAV:  11    -0.135759065046E+04   -0.10396E-05   -0.12356E-05  2008   0.815E-03    0.901E-03
DAV:  12    -0.135759064976E+04    0.70332E-06   -0.12697E-05  1656   0.743E-03    0.566E-03
DAV:  13    -0.135759064967E+04    0.92463E-07   -0.54449E-06  1432   0.600E-03
  19 F= -.13575906E+04 E0= -.13575906E+04  d E =-.186695E+00
 BRION: g(F)=  0.751E-01 g(S)=  0.000E+00 retain N=  4 mean eig= 2.87
 eig:   4.701  4.701  1.032  1.032
 bond charge predicted
       N       E                     dE             d eps       ncg     rms          rms(c)
DAV:   1    -0.135763904007E+04   -0.48390E-01   -0.19581E+01  1376   0.633E+00    0.704E-01
DAV:   2    -0.135773692260E+04   -0.97883E-01   -0.10284E+00  2304   0.241E+00    0.363E-01
DAV:   3    -0.135774270707E+04   -0.57845E-02   -0.80140E-02  2576   0.477E-01    0.288E-01
DAV:   4    -0.135774168148E+04    0.10256E-02   -0.75905E-03  2592   0.206E-01    0.208E-01
DAV:   5    -0.135774064389E+04    0.10376E-02   -0.36915E-03  2384   0.122E-01    0.885E-02
DAV:   6    -0.135774068090E+04   -0.37016E-04   -0.24614E-03  2352   0.937E-02    0.605E-02
DAV:   7    -0.135774069936E+04   -0.18455E-04   -0.11502E-03  2464   0.627E-02    0.474E-02
DAV:   8    -0.135774069254E+04    0.68187E-05   -0.38346E-04  2568   0.388E-02    0.301E-02
DAV:   9    -0.135774068667E+04    0.58683E-05   -0.10828E-04  2504   0.206E-02    0.189E-02
DAV:  10    -0.135774068769E+04   -0.10157E-05   -0.38052E-05  2536   0.120E-02    0.118E-02
DAV:  11    -0.135774068760E+04    0.88476E-07   -0.93914E-06  1584   0.781E-03
  20 F= -.13577407E+04 E0= -.13577407E+04  d E =-.150038E+00
 BRION: g(F)=  0.641E-01 g(S)=  0.000E+00 retain N=  4 mean eig= 3.18
 eig:   5.313  5.313  1.041  1.041
