 running on  160 total cores
 distrk:  each k-point on  160 cores,    1 groups
 distr:  one band on   20 cores,    8 groups
 using from now: INCAR     
 vasp.5.4.4.18Apr17-6-g9f103f2a35 (build May 01 2020 14:22:42) gamma-only       
  
 POSCAR found type information on POSCAR  O  La Zr Li Al
 POSCAR found :  5 types and     186 ions
 scaLAPACK will be used
 LDA part: xc-table for Pade appr. of Perdew
 POSCAR, INCAR and KPOINTS ok, starting setup
 FFT: planning ...
 WAVECAR not read
 WARNING: random wavefunctions but no delay for mixing, default for NELMDL
 entering main loop
       N       E                     dE             d eps       ncg     rms          rms(c)
DAV:   1     0.252506320674E+05    0.25251E+05   -0.42108E+05  1608   0.253E+03
DAV:   2     0.949426077499E+04   -0.15756E+05   -0.14517E+05  1432   0.711E+02
DAV:   3     0.271924749433E+04   -0.67750E+04   -0.61828E+04  1512   0.356E+02
DAV:   4    -0.323912036144E+03   -0.30432E+04   -0.28378E+04  2040   0.222E+02
DAV:   5    -0.138623354402E+04   -0.10623E+04   -0.10176E+04  2544   0.141E+02    0.116E+02
DAV:   6    -0.129424927641E+04    0.91984E+02   -0.15278E+03  2448   0.668E+01    0.504E+01
DAV:   7    -0.131734587950E+04   -0.23097E+02   -0.43348E+02  2552   0.349E+01    0.273E+01
DAV:   8    -0.132021873411E+04   -0.28729E+01   -0.24780E+02  2520   0.278E+01    0.232E+01
DAV:   9    -0.131725990028E+04    0.29588E+01   -0.38946E+01  2568   0.138E+01    0.771E+00
DAV:  10    -0.131777538384E+04   -0.51548E+00   -0.13123E+01  2624   0.710E+00    0.662E+00
DAV:  11    -0.131807860880E+04   -0.30322E+00   -0.53524E+00  2624   0.408E+00    0.394E+00
DAV:  12    -0.131800134826E+04    0.77261E-01   -0.17783E+00  2528   0.309E+00    0.260E+00
DAV:  13    -0.131801587091E+04   -0.14523E-01   -0.10224E+00  2520   0.177E+00    0.178E+00
DAV:  14    -0.131800462962E+04    0.11241E-01   -0.19931E-01  2576   0.978E-01    0.905E-01
DAV:  15    -0.131800640239E+04   -0.17728E-02   -0.86932E-02  2544   0.529E-01    0.558E-01
DAV:  16    -0.131800676916E+04   -0.36677E-03   -0.29445E-02  2592   0.330E-01    0.350E-01
DAV:  17    -0.131800713999E+04   -0.37084E-03   -0.16115E-02  2464   0.246E-01    0.211E-01
DAV:  18    -0.131800720915E+04   -0.69154E-04   -0.36110E-03  2520   0.127E-01    0.142E-01
DAV:  19    -0.131800705881E+04    0.15033E-03   -0.29694E-03  2480   0.103E-01    0.699E-02
DAV:  20    -0.131800710687E+04   -0.48056E-04   -0.61872E-04  2520   0.489E-02    0.284E-02
DAV:  21    -0.131800712428E+04   -0.17408E-04   -0.22557E-04  2608   0.292E-02    0.249E-02
DAV:  22    -0.131800713155E+04   -0.72715E-05   -0.81912E-05  2552   0.168E-02    0.884E-03
DAV:  23    -0.131800713429E+04   -0.27410E-05   -0.21044E-05  1792   0.959E-03    0.808E-03
DAV:  24    -0.131800713580E+04   -0.15095E-05   -0.80842E-06  1232   0.583E-03    0.399E-03
DAV:  25    -0.131800713645E+04   -0.64894E-06   -0.43263E-06  1056   0.557E-03
   1 F= -.13180071E+04 E0= -.13179982E+04  d E =-.131801E+04
 BRION: g(F)=  0.784E+02 g(S)=  0.000E+00
 bond charge predicted
       N       E                     dE             d eps       ncg     rms          rms(c)
DAV:   1    -0.125862654017E+04    0.59381E+02   -0.99344E+03  1768   0.152E+02    0.374E+01
DAV:   2    -0.134336813308E+04   -0.84742E+02   -0.96812E+02  2576   0.693E+01    0.182E+01
DAV:   3    -0.134033135719E+04    0.30368E+01   -0.58237E+01  2624   0.191E+01    0.121E+01
DAV:   4    -0.133737065071E+04    0.29607E+01   -0.22629E+01  2424   0.974E+00    0.570E+00
DAV:   5    -0.133720288993E+04    0.16776E+00   -0.65684E+00  2536   0.556E+00    0.404E+00
DAV:   6    -0.133708981617E+04    0.11307E+00   -0.42121E+00  2592   0.356E+00    0.227E+00
DAV:   7    -0.133705671988E+04    0.33096E-01   -0.62907E-01  2536   0.203E+00    0.142E+00
DAV:   8    -0.133705645489E+04    0.26499E-03   -0.67278E-01  2536   0.133E+00    0.937E-01
DAV:   9    -0.133705329316E+04    0.31617E-02   -0.10377E-01  2544   0.719E-01    0.635E-01
DAV:  10    -0.133704969643E+04    0.35967E-02   -0.52673E-02  2616   0.410E-01    0.252E-01
DAV:  11    -0.133705131840E+04   -0.16220E-02   -0.25560E-02  2592   0.276E-01    0.215E-01
DAV:  12    -0.133705084946E+04    0.46894E-03   -0.45260E-03  2584   0.152E-01    0.107E-01
DAV:  13    -0.133705090352E+04   -0.54055E-04   -0.31121E-03  2624   0.884E-02    0.351E-02
DAV:  14    -0.133705092685E+04   -0.23327E-04   -0.33886E-04  2624   0.406E-02    0.183E-02
DAV:  15    -0.133705093523E+04   -0.83799E-05   -0.11356E-04  2624   0.189E-02    0.913E-03
DAV:  16    -0.133705093816E+04   -0.29363E-05   -0.26074E-05  2016   0.113E-02    0.580E-03
DAV:  17    -0.133705093867E+04   -0.50447E-06   -0.95126E-06  1664   0.705E-03
   2 F= -.13370509E+04 E0= -.13370509E+04  d E =-.190438E+02
 BRION: g(F)=  0.999E+02 g(S)=  0.000E+00 retain N=  1 mean eig= 0.46
 eig:   0.460
 bond charge predicted
       N       E                     dE             d eps       ncg     rms          rms(c)
DAV:   1    -0.131750369058E+04    0.19547E+02   -0.37520E+03  1376   0.825E+01    0.228E+01
DAV:   2    -0.135330915080E+04   -0.35805E+02   -0.43393E+02  2528   0.379E+01    0.203E+01
DAV:   3    -0.135142120686E+04    0.18879E+01   -0.27608E+01  2584   0.129E+01    0.157E+01
DAV:   4    -0.134975316766E+04    0.16680E+01   -0.30502E+01  2136   0.785E+00    0.783E+00
DAV:   5    -0.135023820240E+04   -0.48503E+00   -0.76752E+00  2360   0.485E+00    0.857E+00
DAV:   6    -0.134899633199E+04    0.12419E+01   -0.77862E+00  2368   0.372E+00    0.218E+00
DAV:   7    -0.134903534205E+04   -0.39010E-01   -0.16512E+00  2392   0.223E+00    0.930E-01
DAV:   8    -0.134904527366E+04   -0.99316E-02   -0.20949E-01  2584   0.939E-01    0.755E-01
DAV:   9    -0.134903940629E+04    0.58674E-02   -0.57153E-02  2592   0.468E-01    0.397E-01
DAV:  10    -0.134904008297E+04   -0.67668E-03   -0.30365E-02  2536   0.294E-01    0.198E-01
DAV:  11    -0.134903985117E+04    0.23180E-03   -0.49470E-03  2552   0.159E-01    0.908E-02
DAV:  12    -0.134903993538E+04   -0.84206E-04   -0.24291E-03  2560   0.871E-02    0.576E-02
DAV:  13    -0.134903993384E+04    0.15403E-05   -0.52044E-04  2624   0.518E-02    0.310E-02
DAV:  14    -0.134903994327E+04   -0.94303E-05   -0.32324E-04  2560   0.313E-02    0.171E-02
DAV:  15    -0.134903994350E+04   -0.23018E-06   -0.65127E-05  2568   0.188E-02    0.106E-02
DAV:  16    -0.134903994473E+04   -0.12323E-05   -0.24657E-05  2488   0.954E-03    0.431E-03
DAV:  17    -0.134903994485E+04   -0.11816E-06   -0.26535E-06  1152   0.546E-03
   3 F= -.13490399E+04 E0= -.13490399E+04  d E =-.119890E+02
 BRION: g(F)=  0.924E+01 g(S)=  0.000E+00 retain N=  2 mean eig= 2.09
 eig:   0.330  3.851
 bond charge predicted
       N       E                     dE             d eps       ncg     rms          rms(c)
DAV:   1    -0.135075444802E+04   -0.17145E+01   -0.46445E+02  1400   0.314E+01    0.612E+00
DAV:   2    -0.135311682671E+04   -0.23624E+01   -0.27589E+01  2312   0.122E+01    0.294E+00
DAV:   3    -0.135316974292E+04   -0.52916E-01   -0.24747E+00  2616   0.319E+00    0.251E+00
DAV:   4    -0.135308392855E+04    0.85814E-01   -0.53673E-01  2576   0.157E+00    0.138E+00
DAV:   5    -0.135305598659E+04    0.27942E-01   -0.23228E-01  2328   0.106E+00    0.745E-01
DAV:   6    -0.135305628743E+04   -0.30083E-03   -0.14544E-01  2536   0.763E-01    0.557E-01
DAV:   7    -0.135305576289E+04    0.52454E-03   -0.72679E-02  2448   0.470E-01    0.380E-01
DAV:   8    -0.135305533576E+04    0.42713E-03   -0.15915E-02  2616   0.245E-01    0.208E-01
DAV:   9    -0.135305502598E+04    0.30978E-03   -0.45020E-03  2608   0.142E-01    0.124E-01
DAV:  10    -0.135305537967E+04   -0.35369E-03   -0.43548E-03  2248   0.109E-01    0.149E-01
DAV:  11    -0.135305503312E+04    0.34655E-03   -0.18889E-03  2528   0.840E-02    0.526E-02
DAV:  12    -0.135305506864E+04   -0.35525E-04   -0.10017E-03  2536   0.560E-02    0.382E-02
DAV:  13    -0.135305505798E+04    0.10665E-04   -0.18815E-04  2536   0.291E-02    0.169E-02
DAV:  14    -0.135305506074E+04   -0.27594E-05   -0.54326E-05  2488   0.139E-02    0.749E-03
DAV:  15    -0.135305506191E+04   -0.11773E-05   -0.12476E-05  1952   0.734E-03    0.457E-03
DAV:  16    -0.135305506192E+04   -0.92696E-08   -0.21465E-06  1080   0.446E-03
   4 F= -.13530551E+04 E0= -.13530551E+04  d E =-.401512E+01
 BRION: g(F)=  0.373E+01 g(S)=  0.000E+00 retain N=  3 mean eig= 2.20
 eig:   5.712  0.407  0.495
 bond charge predicted
       N       E                     dE             d eps       ncg     rms          rms(c)
DAV:   1    -0.135398509212E+04   -0.93003E+00   -0.22823E+02  1352   0.215E+01    0.356E+00
DAV:   2    -0.135511814570E+04   -0.11331E+01   -0.12525E+01  2304   0.821E+00    0.175E+00
DAV:   3    -0.135514717593E+04   -0.29030E-01   -0.95124E-01  2608   0.190E+00    0.145E+00
DAV:   4    -0.135511210360E+04    0.35072E-01   -0.19992E-01  2552   0.965E-01    0.789E-01
DAV:   5    -0.135510119954E+04    0.10904E-01   -0.83396E-02  2336   0.624E-01    0.443E-01
DAV:   6    -0.135510195606E+04   -0.75652E-03   -0.52765E-02  2528   0.448E-01    0.344E-01
DAV:   7    -0.135510140250E+04    0.55356E-03   -0.21616E-02  2352   0.266E-01    0.240E-01
DAV:   8    -0.135510125419E+04    0.14831E-03   -0.68981E-03  2456   0.148E-01    0.121E-01
DAV:   9    -0.135510111929E+04    0.13489E-03   -0.16052E-03  2488   0.845E-02    0.762E-02
DAV:  10    -0.135510124543E+04   -0.12613E-03   -0.16994E-03  2264   0.668E-02    0.922E-02
DAV:  11    -0.135510111804E+04    0.12739E-03   -0.68824E-04  2528   0.530E-02    0.334E-02
DAV:  12    -0.135510112935E+04   -0.11316E-04   -0.30977E-04  2520   0.326E-02    0.244E-02
DAV:  13    -0.135510112637E+04    0.29858E-05   -0.87186E-05  2560   0.182E-02    0.959E-03
DAV:  14    -0.135510112723E+04   -0.86403E-06   -0.16090E-05  1968   0.851E-03    0.580E-03
DAV:  15    -0.135510112761E+04   -0.37746E-06   -0.38415E-06  1248   0.517E-03
   5 F= -.13551011E+04 E0= -.13551011E+04  d E =-.204607E+01
 BRION: g(F)=  0.211E+01 g(S)=  0.000E+00 retain N=  4 mean eig= 1.74
 eig:   4.863  0.969  0.561  0.561
 bond charge predicted
       N       E                     dE             d eps       ncg     rms          rms(c)
DAV:   1    -0.135530231740E+04   -0.20119E+00   -0.36641E+02  1352   0.269E+01    0.374E+00
DAV:   2    -0.135722637293E+04   -0.19241E+01   -0.20371E+01  2256   0.101E+01    0.202E+00
DAV:   3    -0.135729793491E+04   -0.71562E-01   -0.15183E+00  2592   0.220E+00    0.179E+00
DAV:   4    -0.135725798377E+04    0.39951E-01   -0.22455E-01  2584   0.997E-01    0.113E+00
DAV:   5    -0.135722727016E+04    0.30714E-01   -0.14123E-01  2272   0.712E-01    0.454E-01
DAV:   6    -0.135723234851E+04   -0.50783E-02   -0.81490E-02  2464   0.525E-01    0.542E-01
DAV:   7    -0.135722912136E+04    0.32272E-02   -0.30096E-02  2536   0.338E-01    0.332E-01
DAV:   8    -0.135722835585E+04    0.76551E-03   -0.15837E-02  2536   0.215E-01    0.123E-01
DAV:   9    -0.135722841263E+04   -0.56786E-04   -0.17926E-03  2416   0.937E-02    0.873E-02
DAV:  10    -0.135722842396E+04   -0.11325E-04   -0.68874E-04  2384   0.458E-02    0.378E-02
DAV:  11    -0.135722843078E+04   -0.68232E-05   -0.13485E-04  2560   0.298E-02    0.227E-02
DAV:  12    -0.135722843679E+04   -0.60062E-05   -0.17110E-04  2400   0.209E-02    0.187E-02
DAV:  13    -0.135722843233E+04    0.44550E-05   -0.38317E-05  2336   0.139E-02    0.916E-03
DAV:  14    -0.135722843298E+04   -0.64613E-06   -0.14659E-05  1840   0.757E-03    0.590E-03
DAV:  15    -0.135722843248E+04    0.50296E-06   -0.22273E-06  1040   0.499E-03
   6 F= -.13572284E+04 E0= -.13572284E+04  d E =-.212730E+01
 BRION: g(F)=  0.880E+00 g(S)=  0.000E+00 retain N=  5 mean eig= 1.93
 eig:   5.061  1.810  1.810  0.316  0.644
 bond charge predicted
       N       E                     dE             d eps       ncg     rms          rms(c)
DAV:   1    -0.135763836901E+04   -0.40994E+00   -0.10724E+02  1384   0.148E+01    0.229E+00
DAV:   2    -0.135816278898E+04   -0.52442E+00   -0.55745E+00  2296   0.556E+00    0.106E+00
DAV:   3    -0.135818672429E+04   -0.23935E-01   -0.43566E-01  2616   0.114E+00    0.849E-01
DAV:   4    -0.135817442168E+04    0.12303E-01   -0.72056E-02  2536   0.604E-01    0.446E-01
DAV:   5    -0.135817244131E+04    0.19804E-02   -0.28424E-02  2464   0.358E-01    0.238E-01
DAV:   6    -0.135817281565E+04   -0.37434E-03   -0.12918E-02  2576   0.217E-01    0.150E-01
DAV:   7    -0.135817267250E+04    0.14315E-03   -0.34022E-03  2464   0.122E-01    0.102E-01
DAV:   8    -0.135817270527E+04   -0.32773E-04   -0.19599E-03  2496   0.759E-02    0.634E-02
DAV:   9    -0.135817265737E+04    0.47900E-04   -0.37094E-04  2576   0.443E-02    0.368E-02
DAV:  10    -0.135817266742E+04   -0.10054E-04   -0.35350E-04  2352   0.329E-02    0.279E-02
DAV:  11    -0.135817266246E+04    0.49654E-05   -0.91725E-05  2480   0.213E-02    0.126E-02
DAV:  12    -0.135817266443E+04   -0.19746E-05   -0.51217E-05  2288   0.124E-02    0.102E-02
DAV:  13    -0.135817266352E+04    0.91607E-06   -0.11852E-05  1768   0.816E-03    0.480E-03
DAV:  14    -0.135817266345E+04    0.68874E-07   -0.32192E-06  1128   0.541E-03
   7 F= -.13581727E+04 E0= -.13581727E+04  d E =-.944231E+00
 BRION: g(F)=  0.627E+00 g(S)=  0.000E+00 retain N=  6 mean eig= 2.22
 eig:   5.343  3.120  3.120  0.173  0.792  0.792
 bond charge predicted
       N       E                     dE             d eps       ncg     rms          rms(c)
DAV:   1    -0.135852642894E+04   -0.35377E+00   -0.74081E+01  1384   0.124E+01    0.164E+00
DAV:   2    -0.135890845332E+04   -0.38202E+00   -0.40622E+00  2280   0.481E+00    0.846E-01
DAV:   3    -0.135892845556E+04   -0.20002E-01   -0.32153E-01  2600   0.989E-01    0.691E-01
DAV:   4    -0.135892136395E+04    0.70916E-02   -0.42543E-02  2576   0.473E-01    0.426E-01
DAV:   5    -0.135891822322E+04    0.31407E-02   -0.20272E-02  2408   0.296E-01    0.181E-01
DAV:   6    -0.135891880221E+04   -0.57899E-03   -0.95054E-03  2552   0.189E-01    0.150E-01
DAV:   7    -0.135891867325E+04    0.12896E-03   -0.34100E-03  2528   0.117E-01    0.981E-02
DAV:   8    -0.135891866258E+04    0.10674E-04   -0.18145E-03  2560   0.767E-02    0.511E-02
DAV:   9    -0.135891864682E+04    0.15756E-04   -0.25693E-04  2528   0.374E-02    0.363E-02
DAV:  10    -0.135891864865E+04   -0.18266E-05   -0.20089E-04  2328   0.264E-02    0.205E-02
DAV:  11    -0.135891864767E+04    0.98271E-06   -0.52843E-05  2440   0.172E-02    0.902E-03
DAV:  12    -0.135891865037E+04   -0.27050E-05   -0.33416E-05  2320   0.100E-02    0.107E-02
DAV:  13    -0.135891864872E+04    0.16519E-05   -0.10127E-05  1720   0.714E-03    0.469E-03
DAV:  14    -0.135891864881E+04   -0.88592E-07   -0.60223E-06  1520   0.552E-03
   8 F= -.13589186E+04 E0= -.13589186E+04  d E =-.745985E+00
 BRION: g(F)=  0.486E+00 g(S)=  0.000E+00 retain N=  7 mean eig= 2.37
 eig:   5.289  4.188  4.188  0.977  0.977  0.178  0.815
 bond charge predicted
       N       E                     dE             d eps       ncg     rms          rms(c)
DAV:   1    -0.135915752377E+04   -0.23888E+00   -0.90086E+01  1384   0.136E+01    0.170E+00
DAV:   2    -0.135962069010E+04   -0.46317E+00   -0.48934E+00  2296   0.531E+00    0.866E-01
DAV:   3    -0.135964511150E+04   -0.24421E-01   -0.38115E-01  2616   0.103E+00    0.691E-01
DAV:   4    -0.135963713317E+04    0.79783E-02   -0.41766E-02  2584   0.490E-01    0.445E-01
DAV:   5    -0.135963238402E+04    0.47492E-02   -0.20360E-02  2368   0.303E-01    0.173E-01
DAV:   6    -0.135963303173E+04   -0.64772E-03   -0.11738E-02  2488   0.204E-01    0.146E-01
DAV:   7    -0.135963296971E+04    0.62024E-04   -0.36742E-03  2512   0.121E-01    0.106E-01
DAV:   8    -0.135963294073E+04    0.28980E-04   -0.19351E-03  2520   0.785E-02    0.527E-02
DAV:   9    -0.135963291991E+04    0.20823E-04   -0.33131E-04  2368   0.398E-02    0.371E-02
DAV:  10    -0.135963292074E+04   -0.83177E-06   -0.19681E-04  2480   0.276E-02    0.198E-02
DAV:  11    -0.135963292067E+04    0.67434E-07   -0.55290E-05  2432   0.171E-02    0.952E-03
DAV:  12    -0.135963292346E+04   -0.27906E-05   -0.34722E-05  2400   0.106E-02    0.112E-02
DAV:  13    -0.135963292171E+04    0.17529E-05   -0.11236E-05  1632   0.753E-03    0.476E-03
DAV:  14    -0.135963292204E+04   -0.33439E-06   -0.86169E-06  1704   0.623E-03
   9 F= -.13596329E+04 E0= -.13596329E+04  d E =-.714273E+00
 BRION: g(F)=  0.322E+00 g(S)=  0.000E+00 retain N=  8 mean eig= 2.84
 eig:   5.479  5.960  5.960  1.711  1.711  0.205  0.859  0.859
 bond charge predicted
       N       E                     dE             d eps       ncg     rms          rms(c)
DAV:   1    -0.135982393700E+04   -0.19102E+00   -0.71592E+01  1384   0.120E+01    0.151E+00
DAV:   2    -0.136019172445E+04   -0.36779E+00   -0.38853E+00  2296   0.485E+00    0.763E-01
DAV:   3    -0.136021010879E+04   -0.18384E-01   -0.29566E-01  2600   0.907E-01    0.611E-01
DAV:   4    -0.136020315277E+04    0.69560E-02   -0.33199E-02  2568   0.428E-01    0.387E-01
DAV:   5    -0.136019931665E+04    0.38361E-02   -0.16750E-02  2352   0.280E-01    0.147E-01
DAV:   6    -0.136019994789E+04   -0.63123E-03   -0.10032E-02  2512   0.188E-01    0.133E-01
DAV:   7    -0.136019986919E+04    0.78695E-04   -0.27946E-03  2504   0.105E-01    0.978E-02
DAV:   8    -0.136019983444E+04    0.34752E-04   -0.15576E-03  2520   0.685E-02    0.456E-02
DAV:   9    -0.136019981923E+04    0.15208E-04   -0.25207E-04  2408   0.349E-02    0.318E-02
DAV:  10    -0.136019981850E+04    0.73679E-06   -0.11903E-04  2480   0.228E-02    0.180E-02
DAV:  11    -0.136019981938E+04   -0.88115E-06   -0.45230E-05  2360   0.142E-02    0.795E-03
DAV:  12    -0.136019982065E+04   -0.12704E-05   -0.16159E-05  2040   0.857E-03    0.779E-03
DAV:  13    -0.136019982004E+04    0.60894E-06   -0.69240E-06  1552   0.627E-03
  10 F= -.13601998E+04 E0= -.13601998E+04  d E =-.566898E+00
 BRION: g(F)=  0.241E+00 g(S)=  0.000E+00 retain N=  7 mean eig= 2.51
 eig:   4.742  4.742  2.400  2.400  1.174  1.174  0.938
 bond charge predicted
       N       E                     dE             d eps       ncg     rms          rms(c)
DAV:   1    -0.136037883025E+04   -0.17901E+00   -0.37277E+01  1384   0.864E+00    0.105E+00
DAV:   2    -0.136057007933E+04   -0.19125E+00   -0.20312E+00  2304   0.349E+00    0.538E-01
DAV:   3    -0.136058033468E+04   -0.10255E-01   -0.15858E-01  2600   0.661E-01    0.443E-01
DAV:   4    -0.136057725619E+04    0.30785E-02   -0.16551E-02  2568   0.302E-01    0.293E-01
DAV:   5    -0.136057506090E+04    0.21953E-02   -0.92840E-03  2272   0.188E-01    0.113E-01
DAV:   6    -0.136057536903E+04   -0.30813E-03   -0.49648E-03  2448   0.129E-01    0.105E-01
DAV:   7    -0.136057529186E+04    0.77175E-04   -0.19054E-03  2472   0.836E-02    0.678E-02
DAV:   8    -0.136057528420E+04    0.76533E-05   -0.86387E-04  2536   0.543E-02    0.366E-02
DAV:   9    -0.136057527616E+04    0.80433E-05   -0.13889E-04  2408   0.261E-02    0.270E-02
DAV:  10    -0.136057527736E+04   -0.12031E-05   -0.77689E-05  2424   0.160E-02    0.132E-02
DAV:  11    -0.136057527748E+04   -0.11289E-06   -0.24501E-05  2256   0.114E-02    0.690E-03
DAV:  12    -0.136057527806E+04   -0.58605E-06   -0.12076E-05  1832   0.761E-03    0.720E-03
DAV:  13    -0.136057527736E+04    0.70645E-06   -0.39022E-06  1248   0.536E-03
  11 F= -.13605753E+04 E0= -.13605753E+04  d E =-.375457E+00
 BRION: g(F)=  0.209E+00 g(S)=  0.000E+00 retain N=  8 mean eig= 3.19
 eig:   7.620  7.620  2.767  2.767  1.420  1.420  0.971  0.971
 bond charge predicted
       N       E                     dE             d eps       ncg     rms          rms(c)
DAV:   1    -0.136064365861E+04   -0.68381E-01   -0.77680E+01  1392   0.125E+01    0.144E+00
DAV:   2    -0.136103806207E+04   -0.39440E+00   -0.41405E+00  2320   0.502E+00    0.757E-01
DAV:   3    -0.136105732927E+04   -0.19267E-01   -0.30110E-01  2592   0.918E-01    0.606E-01
DAV:   4    -0.136105110612E+04    0.62232E-02   -0.30506E-02  2584   0.405E-01    0.410E-01
DAV:   5    -0.136104626635E+04    0.48398E-02   -0.16302E-02  2272   0.262E-01    0.153E-01
DAV:   6    -0.136104681115E+04   -0.54481E-03   -0.10608E-02  2408   0.186E-01    0.129E-01
DAV:   7    -0.136104675794E+04    0.53212E-04   -0.32397E-03  2424   0.108E-01    0.947E-02
DAV:   8    -0.136104672710E+04    0.30844E-04   -0.15032E-03  2592   0.697E-02    0.482E-02
DAV:   9    -0.136104670994E+04    0.17162E-04   -0.28602E-04  2328   0.364E-02    0.341E-02
DAV:  10    -0.136104671158E+04   -0.16449E-05   -0.12566E-04  2408   0.219E-02    0.184E-02
DAV:  11    -0.136104671130E+04    0.27823E-06   -0.43984E-05  2416   0.143E-02    0.845E-03
DAV:  12    -0.136104671273E+04   -0.14239E-05   -0.21841E-05  2296   0.956E-03    0.871E-03
DAV:  13    -0.136104671186E+04    0.86431E-06   -0.61122E-06  1456   0.594E-03
  12 F= -.13610467E+04 E0= -.13610467E+04  d E =-.471435E+00
 BRION: g(F)=  0.160E+00 g(S)=  0.000E+00 retain N=  6 mean eig= 3.99
 eig:   7.959  7.959  2.738  2.738  1.259  1.259
 bond charge predicted
       N       E                     dE             d eps       ncg     rms          rms(c)
DAV:   1    -0.136113908853E+04   -0.92376E-01   -0.53311E+01  1392   0.103E+01    0.122E+00
DAV:   2    -0.136141152411E+04   -0.27244E+00   -0.28700E+00  2320   0.415E+00    0.632E-01
DAV:   3    -0.136142494446E+04   -0.13420E-01   -0.21462E-01  2592   0.771E-01    0.500E-01
DAV:   4    -0.136142013454E+04    0.48099E-02   -0.23433E-02  2552   0.351E-01    0.319E-01
DAV:   5    -0.136141747378E+04    0.26608E-02   -0.11911E-02  2288   0.215E-01    0.121E-01
DAV:   6    -0.136141784716E+04   -0.37338E-03   -0.59437E-03  2464   0.142E-01    0.100E-01
DAV:   7    -0.136141780144E+04    0.45715E-04   -0.20414E-03  2464   0.871E-02    0.677E-02
DAV:   8    -0.136141780296E+04   -0.15160E-05   -0.90925E-04  2600   0.552E-02    0.393E-02
DAV:   9    -0.136141779407E+04    0.88880E-05   -0.15491E-04  2512   0.277E-02    0.288E-02
DAV:  10    -0.136141779382E+04    0.24828E-06   -0.10648E-04  2512   0.188E-02    0.147E-02
DAV:  11    -0.136141779422E+04   -0.40414E-06   -0.33455E-05  2312   0.128E-02    0.702E-03
DAV:  12    -0.136141779495E+04   -0.72422E-06   -0.12681E-05  1880   0.817E-03    0.685E-03
DAV:  13    -0.136141779430E+04    0.65213E-06   -0.32734E-06  1168   0.535E-03
  13 F= -.13614178E+04 E0= -.13614178E+04  d E =-.371082E+00
 BRION: g(F)=  0.140E+00 g(S)=  0.000E+00 retain N=  4 mean eig= 3.95
 eig:   6.332  6.332  1.560  1.560
 bond charge predicted
       N       E                     dE             d eps       ncg     rms          rms(c)
DAV:   1    -0.136151103800E+04   -0.93243E-01   -0.31744E+01  1376   0.794E+00    0.908E-01
DAV:   2    -0.136166985371E+04   -0.15882E+00   -0.16650E+00  2296   0.314E+00    0.477E-01
DAV:   3    -0.136167862362E+04   -0.87699E-02   -0.12817E-01  2608   0.588E-01    0.385E-01
DAV:   4    -0.136167646748E+04    0.21561E-02   -0.11822E-02  2616   0.255E-01    0.267E-01
DAV:   5    -0.136167446512E+04    0.20024E-02   -0.64985E-03  2256   0.160E-01    0.100E-01
DAV:   6    -0.136167469423E+04   -0.22911E-03   -0.43356E-03  2424   0.117E-01    0.847E-02
DAV:   7    -0.136167465176E+04    0.42472E-04   -0.14875E-03  2400   0.710E-02    0.585E-02
DAV:   8    -0.136167464213E+04    0.96275E-05   -0.62847E-04  2560   0.470E-02    0.330E-02
DAV:   9    -0.136167463603E+04    0.61020E-05   -0.11733E-04  2360   0.234E-02    0.243E-02
DAV:  10    -0.136167463545E+04    0.58344E-06   -0.53677E-05  2440   0.136E-02    0.122E-02
DAV:  11    -0.136167463594E+04   -0.48625E-06   -0.17428E-05  2016   0.931E-03    0.622E-03
DAV:  12    -0.136167463618E+04   -0.24617E-06   -0.10112E-05  1656   0.669E-03    0.549E-03
DAV:  13    -0.136167463586E+04    0.31742E-06   -0.19458E-06   992   0.506E-03
  14 F= -.13616746E+04 E0= -.13616746E+04  d E =-.256842E+00
 BRION: g(F)=  0.118E+00 g(S)=  0.000E+00 retain N=  3 mean eig= 3.93
 eig:   5.199  5.199  1.381
 bond charge predicted
       N       E                     dE             d eps       ncg     rms          rms(c)
DAV:   1    -0.136177601419E+04   -0.10138E+00   -0.22675E+01  1376   0.677E+00    0.769E-01
DAV:   2    -0.136189035157E+04   -0.11434E+00   -0.12010E+00  2304   0.268E+00    0.403E-01
DAV:   3    -0.136189661696E+04   -0.62654E-02   -0.92712E-02  2600   0.501E-01    0.317E-01
DAV:   4    -0.136189489589E+04    0.17211E-02   -0.89685E-03  2600   0.222E-01    0.214E-01
DAV:   5    -0.136189360412E+04    0.12918E-02   -0.47443E-03  2280   0.136E-01    0.800E-02
DAV:   6    -0.136189374662E+04   -0.14251E-03   -0.27636E-03  2424   0.953E-02    0.646E-02
DAV:   7    -0.136189374081E+04    0.58183E-05   -0.97973E-04  2448   0.590E-02    0.450E-02
DAV:   8    -0.136189373599E+04    0.48119E-05   -0.35229E-04  2568   0.359E-02    0.255E-02
DAV:   9    -0.136189373262E+04    0.33768E-05   -0.74555E-05  2440   0.187E-02    0.185E-02
DAV:  10    -0.136189373303E+04   -0.40805E-06   -0.42589E-05  2480   0.122E-02    0.101E-02
DAV:  11    -0.136189373291E+04    0.11826E-06   -0.14291E-05  2032   0.874E-03    0.471E-03
DAV:  12    -0.136189373335E+04   -0.44158E-06   -0.74934E-06  1696   0.583E-03
  15 F= -.13618937E+04 E0= -.13618937E+04  d E =-.219097E+00
 BRION: g(F)=  0.110E+00 g(S)=  0.000E+00 retain N=  4 mean eig= 4.51
 eig:   7.554  7.554  1.475  1.475
 bond charge predicted
       N       E                     dE             d eps       ncg     rms          rms(c)
DAV:   1    -0.136198413813E+04   -0.90405E-01   -0.23997E+01  1376   0.695E+00    0.786E-01
DAV:   2    -0.136210500170E+04   -0.12086E+00   -0.12680E+00  2288   0.273E+00    0.410E-01
DAV:   3    -0.136211187521E+04   -0.68735E-02   -0.98822E-02  2608   0.519E-01    0.329E-01
DAV:   4    -0.136211027377E+04    0.16014E-02   -0.90212E-03  2616   0.225E-01    0.231E-01
DAV:   5    -0.136210877016E+04    0.15036E-02   -0.50534E-03  2256   0.141E-01    0.857E-02
DAV:   6    -0.136210892934E+04   -0.15917E-03   -0.32195E-03  2416   0.102E-01    0.712E-02
DAV:   7    -0.136210891708E+04    0.12257E-04   -0.11168E-03  2456   0.622E-02    0.495E-02
DAV:   8    -0.136210890692E+04    0.10160E-04   -0.40516E-04  2592   0.388E-02    0.273E-02
DAV:   9    -0.136210890318E+04    0.37368E-05   -0.85658E-05  2352   0.198E-02    0.196E-02
DAV:  10    -0.136210890381E+04   -0.62787E-06   -0.39941E-05  2416   0.120E-02    0.103E-02
DAV:  11    -0.136210890374E+04    0.73545E-07   -0.11547E-05  1864   0.819E-03    0.497E-03
DAV:  12    -0.136210890429E+04   -0.55223E-06   -0.91680E-06  1600   0.600E-03
  16 F= -.13621089E+04 E0= -.13621089E+04  d E =-.215171E+00
 BRION: g(F)=  0.956E-01 g(S)=  0.000E+00 retain N=  4 mean eig= 4.41
 eig:   7.391  7.391  1.428  1.428
 bond charge predicted
       N       E                     dE             d eps       ncg     rms          rms(c)
DAV:   1    -0.136218110198E+04   -0.72198E-01   -0.30483E+01  1384   0.779E+00    0.891E-01
DAV:   2    -0.136233480966E+04   -0.15371E+00   -0.16127E+00  2296   0.308E+00    0.462E-01
DAV:   3    -0.136234340811E+04   -0.85985E-02   -0.12463E-01  2592   0.578E-01    0.373E-01
DAV:   4    -0.136234138338E+04    0.20247E-02   -0.11532E-02  2592   0.253E-01    0.261E-01
DAV:   5    -0.136233936514E+04    0.20182E-02   -0.64009E-03  2280   0.163E-01    0.986E-02
DAV:   6    -0.136233956772E+04   -0.20259E-03   -0.45362E-03  2400   0.121E-01    0.848E-02
DAV:   7    -0.136233954791E+04    0.19814E-04   -0.15092E-03  2432   0.730E-02    0.615E-02
DAV:   8    -0.136233953073E+04    0.17182E-04   -0.58014E-04  2552   0.453E-02    0.320E-02
DAV:   9    -0.136233952169E+04    0.90373E-05   -0.14079E-04  2264   0.247E-02    0.220E-02
DAV:  10    -0.136233952333E+04   -0.16365E-05   -0.52578E-05  2352   0.142E-02    0.137E-02
DAV:  11    -0.136233952241E+04    0.91655E-06   -0.21718E-05  2184   0.102E-02    0.633E-03
DAV:  12    -0.136233952301E+04   -0.59947E-06   -0.10512E-05  1768   0.723E-03    0.623E-03
DAV:  13    -0.136233952247E+04    0.54418E-06   -0.18015E-06  1008   0.468E-03
  17 F= -.13623395E+04 E0= -.13623395E+04  d E =-.230618E+00
 BRION: g(F)=  0.862E-01 g(S)=  0.000E+00 retain N=  4 mean eig= 3.76
 eig:   6.151  6.151  1.378  1.378
 bond charge predicted
       N       E                     dE             d eps       ncg     rms          rms(c)
DAV:   1    -0.136232696782E+04    0.12555E-01   -0.53192E+01  1384   0.104E+01    0.117E+00
DAV:   2    -0.136259800182E+04   -0.27103E+00   -0.28484E+00  2296   0.412E+00    0.614E-01
DAV:   3    -0.136261316250E+04   -0.15161E-01   -0.22103E-01  2600   0.782E-01    0.493E-01
DAV:   4    -0.136260968141E+04    0.34811E-02   -0.20774E-02  2584   0.339E-01    0.347E-01
DAV:   5    -0.136260638599E+04    0.32954E-02   -0.10150E-02  2336   0.200E-01    0.144E-01
DAV:   6    -0.136260645946E+04   -0.73474E-04   -0.70009E-03  2328   0.152E-01    0.964E-02
DAV:   7    -0.136260650571E+04   -0.46246E-04   -0.31317E-03  2384   0.102E-01    0.772E-02
DAV:   8    -0.136260648839E+04    0.17320E-04   -0.10402E-03  2624   0.635E-02    0.502E-02
DAV:   9    -0.136260647082E+04    0.17572E-04   -0.30991E-04  2536   0.346E-02    0.313E-02
DAV:  10    -0.136260647344E+04   -0.26185E-05   -0.10949E-04  2568   0.199E-02    0.196E-02
DAV:  11    -0.136260647407E+04   -0.63206E-06   -0.35363E-05  2400   0.128E-02    0.122E-02
DAV:  12    -0.136260647316E+04    0.91043E-06   -0.28501E-05  2256   0.108E-02    0.934E-03
DAV:  13    -0.136260647268E+04    0.47529E-06   -0.11784E-05  1784   0.705E-03    0.563E-03
DAV:  14    -0.136260647252E+04    0.15729E-06   -0.60331E-06  1456   0.542E-03
  18 F= -.13626065E+04 E0= -.13626065E+04  d E =-.266950E+00
 BRION: g(F)=  0.670E-01 g(S)=  0.000E+00 retain N=  3 mean eig= 3.81
 eig:   5.078  5.078  1.286
 bond charge predicted
       N       E                     dE             d eps       ncg     rms          rms(c)
DAV:   1    -0.136266375049E+04   -0.57278E-01   -0.13670E+01  1384   0.526E+00    0.596E-01
DAV:   2    -0.136273381026E+04   -0.70060E-01   -0.73691E-01  2288   0.209E+00    0.306E-01
DAV:   3    -0.136273782669E+04   -0.40164E-02   -0.57617E-02  2592   0.401E-01    0.248E-01
DAV:   4    -0.136273699179E+04    0.83489E-03   -0.51293E-03  2592   0.173E-01    0.183E-01
DAV:   5    -0.136273594286E+04    0.10489E-02   -0.29603E-03  2272   0.115E-01    0.769E-02
DAV:   6    -0.136273596800E+04   -0.25132E-04   -0.25498E-03  2256   0.950E-02    0.601E-02
DAV:   7    -0.136273598407E+04   -0.16074E-04   -0.10744E-03  2400   0.594E-02    0.492E-02
DAV:   8    -0.136273597243E+04    0.11637E-04   -0.33403E-04  2560   0.356E-02    0.263E-02
DAV:   9    -0.136273596308E+04    0.93545E-05   -0.11563E-04  2296   0.210E-02    0.150E-02
DAV:  10    -0.136273596612E+04   -0.30387E-05   -0.37864E-05  2328   0.120E-02    0.127E-02
DAV:  11    -0.136273596459E+04    0.15250E-05   -0.18746E-05  1904   0.903E-03    0.695E-03
DAV:  12    -0.136273596464E+04   -0.48924E-07   -0.80534E-06  1712   0.685E-03
  19 F= -.13627360E+04 E0= -.13627360E+04  d E =-.129492E+00
 BRION: g(F)=  0.577E-01 g(S)=  0.000E+00 retain N=  3 mean eig= 3.98
 eig:   5.300  5.300  1.353
 bond charge predicted
       N       E                     dE             d eps       ncg     rms          rms(c)
DAV:   1    -0.136277673763E+04   -0.40773E-01   -0.18117E+01  1384   0.604E+00    0.695E-01
DAV:   2    -0.136287083008E+04   -0.94092E-01   -0.99034E-01  2288   0.242E+00    0.359E-01
DAV:   3    -0.136287632322E+04   -0.54931E-02   -0.78063E-02  2592   0.461E-01    0.293E-01
DAV:   4    -0.136287523776E+04    0.10855E-02   -0.72234E-03  2592   0.204E-01    0.212E-01
DAV:   5    -0.136287400930E+04    0.12285E-02   -0.37072E-03  2328   0.124E-01    0.916E-02
DAV:   6    -0.136287402572E+04   -0.16419E-04   -0.29570E-03  2288   0.101E-01    0.651E-02
DAV:   7    -0.136287403658E+04   -0.10865E-04   -0.13525E-03  2408   0.679E-02    0.542E-02
DAV:   8    -0.136287402589E+04    0.10693E-04   -0.47233E-04  2568   0.421E-02    0.342E-02
DAV:   9    -0.136287401470E+04    0.11192E-04   -0.14766E-04  2464   0.233E-02    0.197E-02
DAV:  10    -0.136287401690E+04   -0.22004E-05   -0.49591E-05  2480   0.136E-02    0.133E-02
DAV:  11    -0.136287401720E+04   -0.30680E-06   -0.14101E-05  1872   0.845E-03    0.958E-03
DAV:  12    -0.136287401634E+04    0.86537E-06   -0.15170E-05  1712   0.821E-03    0.727E-03
DAV:  13    -0.136287401615E+04    0.19254E-06   -0.79975E-06  1672   0.630E-03
  20 F= -.13628740E+04 E0= -.13628740E+04  d E =-.138052E+00
 BRION: g(F)=  0.511E-01 g(S)=  0.000E+00 retain N=  3 mean eig= 5.14
 eig:   6.909  6.909  1.616
