 running on  160 total cores
 distrk:  each k-point on  160 cores,    1 groups
 distr:  one band on   20 cores,    8 groups
 using from now: INCAR     
 vasp.5.4.4.18Apr17-6-g9f103f2a35 (build May 01 2020 14:22:42) gamma-only       
  
 POSCAR found type information on POSCAR  O  La Zr Li Al
 POSCAR found :  5 types and     186 ions
 scaLAPACK will be used
 LDA part: xc-table for Pade appr. of Perdew
 POSCAR, INCAR and KPOINTS ok, starting setup
 FFT: planning ...
 WAVECAR not read
 WARNING: random wavefunctions but no delay for mixing, default for NELMDL
 entering main loop
       N       E                     dE             d eps       ncg     rms          rms(c)
DAV:   1     0.252614672989E+05    0.25261E+05   -0.42272E+05  1640   0.253E+03
DAV:   2     0.945676961462E+04   -0.15805E+05   -0.14617E+05  1432   0.710E+02
DAV:   3     0.267328432205E+04   -0.67835E+04   -0.62026E+04  1528   0.355E+02
DAV:   4    -0.343258097817E+03   -0.30165E+04   -0.28182E+04  2048   0.225E+02
DAV:   5    -0.139232211399E+04   -0.10491E+04   -0.10091E+04  2536   0.139E+02    0.116E+02
DAV:   6    -0.128605357722E+04    0.10627E+03   -0.14608E+03  2440   0.667E+01    0.501E+01
DAV:   7    -0.130940405843E+04   -0.23350E+02   -0.41918E+02  2552   0.346E+01    0.271E+01
DAV:   8    -0.131205093415E+04   -0.26469E+01   -0.21814E+02  2560   0.263E+01    0.217E+01
DAV:   9    -0.131084748519E+04    0.12034E+01   -0.31631E+01  2560   0.130E+01    0.955E+00
DAV:  10    -0.131049705694E+04    0.35043E+00   -0.16035E+01  2528   0.686E+00    0.633E+00
DAV:  11    -0.131090105802E+04   -0.40400E+00   -0.49062E+00  2608   0.397E+00    0.500E+00
DAV:  12    -0.131095240850E+04   -0.51350E-01   -0.19769E+00  2624   0.263E+00    0.429E+00
DAV:  13    -0.131084894384E+04    0.10346E+00   -0.11238E+00  2496   0.210E+00    0.190E+00
DAV:  14    -0.131085917110E+04   -0.10227E-01   -0.36022E-01  2560   0.114E+00    0.152E+00
DAV:  15    -0.131084645779E+04    0.12713E-01   -0.86192E-02  2552   0.671E-01    0.117E+00
DAV:  16    -0.131083448918E+04    0.11969E-01   -0.46978E-02  2544   0.365E-01    0.569E-01
DAV:  17    -0.131083320685E+04    0.12823E-02   -0.15985E-02  2560   0.242E-01    0.477E-01
DAV:  18    -0.131083178694E+04    0.14199E-02   -0.53125E-03  2520   0.131E-01    0.238E-01
DAV:  19    -0.131083183334E+04   -0.46402E-04   -0.20703E-03  2560   0.980E-02    0.185E-01
DAV:  20    -0.131083156655E+04    0.26679E-03   -0.14558E-03  2384   0.639E-02    0.758E-02
DAV:  21    -0.131083155209E+04    0.14456E-04   -0.60125E-04  2544   0.474E-02    0.509E-02
DAV:  22    -0.131083154137E+04    0.10725E-04   -0.18201E-04  2608   0.254E-02    0.136E-02
DAV:  23    -0.131083154690E+04   -0.55386E-05   -0.74485E-05  2520   0.174E-02    0.217E-02
DAV:  24    -0.131083154791E+04   -0.10063E-05   -0.22870E-05  2024   0.922E-03    0.904E-03
DAV:  25    -0.131083154895E+04   -0.10412E-05   -0.51082E-06  1160   0.624E-03    0.586E-03
DAV:  26    -0.131083154884E+04    0.10889E-06   -0.98781E-06  1344   0.588E-03
   1 F= -.13108315E+04 E0= -.13107787E+04  d E =-.131083E+04
 BRION: g(F)=  0.803E+02 g(S)=  0.000E+00
 bond charge predicted
       N       E                     dE             d eps       ncg     rms          rms(c)
DAV:   1    -0.124242309354E+04    0.68408E+02   -0.10892E+04  1752   0.160E+02    0.420E+01
DAV:   2    -0.133752230487E+04   -0.95099E+02   -0.10858E+03  2544   0.724E+01    0.204E+01
DAV:   3    -0.133398965813E+04    0.35326E+01   -0.63675E+01  2624   0.202E+01    0.134E+01
DAV:   4    -0.133078013637E+04    0.32095E+01   -0.28468E+01  2360   0.111E+01    0.597E+00
DAV:   5    -0.133077470684E+04    0.54295E-02   -0.89334E+00  2544   0.621E+00    0.456E+00
DAV:   6    -0.133065762319E+04    0.11708E+00   -0.45550E+00  2600   0.363E+00    0.246E+00
DAV:   7    -0.133061830084E+04    0.39322E-01   -0.51394E-01  2544   0.200E+00    0.122E+00
DAV:   8    -0.133062847546E+04   -0.10175E-01   -0.52987E-01  2592   0.124E+00    0.903E-01
DAV:   9    -0.133062861805E+04   -0.14259E-03   -0.89356E-02  2560   0.638E-01    0.661E-01
DAV:  10    -0.133062486804E+04    0.37500E-02   -0.46627E-02  2520   0.379E-01    0.312E-01
DAV:  11    -0.133062639400E+04   -0.15260E-02   -0.35045E-02  2536   0.306E-01    0.256E-01
DAV:  12    -0.133062571833E+04    0.67567E-03   -0.60748E-03  2472   0.177E-01    0.149E-01
DAV:  13    -0.133062571782E+04    0.51527E-06   -0.46457E-03  2496   0.111E-01    0.401E-02
DAV:  14    -0.133062576087E+04   -0.43052E-04   -0.53760E-04  2608   0.511E-02    0.200E-02
DAV:  15    -0.133062577241E+04   -0.11537E-04   -0.13255E-04  2600   0.224E-02    0.119E-02
DAV:  16    -0.133062577471E+04   -0.23042E-05   -0.45078E-05  2616   0.140E-02    0.687E-03
DAV:  17    -0.133062577692E+04   -0.22118E-05   -0.18524E-05  2216   0.875E-03    0.594E-03
DAV:  18    -0.133062577670E+04    0.22163E-06   -0.32187E-06  1176   0.536E-03
   2 F= -.13306258E+04 E0= -.13306258E+04  d E =-.197942E+02
 BRION: g(F)=  0.124E+03 g(S)=  0.000E+00 retain N=  1 mean eig= 0.43
 eig:   0.430
 bond charge predicted
       N       E                     dE             d eps       ncg     rms          rms(c)
DAV:   1    -0.130499988495E+04    0.25626E+02   -0.42087E+03  1352   0.871E+01    0.259E+01
DAV:   2    -0.134644846759E+04   -0.41449E+02   -0.49649E+02  2528   0.406E+01    0.245E+01
DAV:   3    -0.134495334293E+04    0.14951E+01   -0.33641E+01  2568   0.139E+01    0.190E+01
DAV:   4    -0.134335680916E+04    0.15965E+01   -0.35276E+01  2104   0.881E+00    0.953E+00
DAV:   5    -0.134377394496E+04   -0.41714E+00   -0.92101E+00  2344   0.540E+00    0.904E+00
DAV:   6    -0.134246074544E+04    0.13132E+01   -0.12267E+01  2360   0.473E+00    0.196E+00
DAV:   7    -0.134253840065E+04   -0.77655E-01   -0.17147E+00  2408   0.276E+00    0.134E+00
DAV:   8    -0.134254275499E+04   -0.43543E-02   -0.38982E-01  2616   0.110E+00    0.758E-01
DAV:   9    -0.134254128016E+04    0.14748E-02   -0.10457E-01  2608   0.587E-01    0.502E-01
DAV:  10    -0.134254240676E+04   -0.11266E-02   -0.31659E-02  2440   0.332E-01    0.209E-01
DAV:  11    -0.134254253122E+04   -0.12447E-03   -0.94978E-03  2616   0.185E-01    0.162E-01
DAV:  12    -0.134254254287E+04   -0.11653E-04   -0.53681E-03  2616   0.127E-01    0.978E-02
DAV:  13    -0.134254250132E+04    0.41556E-04   -0.17402E-03  2560   0.813E-02    0.609E-02
DAV:  14    -0.134254251746E+04   -0.16140E-04   -0.82527E-04  2536   0.502E-02    0.404E-02
DAV:  15    -0.134254250986E+04    0.75935E-05   -0.24443E-04  2592   0.293E-02    0.180E-02
DAV:  16    -0.134254251082E+04   -0.95669E-06   -0.89612E-05  2528   0.169E-02    0.850E-03
DAV:  17    -0.134254251350E+04   -0.26832E-05   -0.22424E-05  2152   0.947E-03    0.553E-03
DAV:  18    -0.134254251370E+04   -0.19756E-06   -0.40049E-06  1112   0.452E-03
   3 F= -.13425425E+04 E0= -.13425425E+04  d E =-.119167E+02
 BRION: g(F)=  0.129E+02 g(S)=  0.000E+00 retain N=  2 mean eig= 2.45
 eig:   0.313  4.590
 bond charge predicted
       N       E                     dE             d eps       ncg     rms          rms(c)
DAV:   1    -0.134378776157E+04   -0.12452E+01   -0.60394E+02  1384   0.346E+01    0.631E+00
DAV:   2    -0.134701387432E+04   -0.32261E+01   -0.37197E+01  2360   0.136E+01    0.315E+00
DAV:   3    -0.134709588516E+04   -0.82011E-01   -0.29359E+00  2600   0.356E+00    0.272E+00
DAV:   4    -0.134699710930E+04    0.98776E-01   -0.58625E-01  2600   0.164E+00    0.156E+00
DAV:   5    -0.134696658164E+04    0.30528E-01   -0.37141E-01  2280   0.112E+00    0.958E-01
DAV:   6    -0.134696231127E+04    0.42704E-02   -0.13371E-01  2544   0.755E-01    0.806E-01
DAV:   7    -0.134695758515E+04    0.47261E-02   -0.10925E-01  2456   0.555E-01    0.390E-01
DAV:   8    -0.134695725948E+04    0.32567E-03   -0.18005E-02  2552   0.279E-01    0.238E-01
DAV:   9    -0.134695709481E+04    0.16466E-03   -0.52470E-03  2624   0.140E-01    0.120E-01
DAV:  10    -0.134695723051E+04   -0.13570E-03   -0.19431E-03  2504   0.831E-02    0.833E-02
DAV:  11    -0.134695714912E+04    0.81386E-04   -0.65374E-04  2616   0.559E-02    0.326E-02
DAV:  12    -0.134695717289E+04   -0.23763E-04   -0.38875E-04  2560   0.350E-02    0.238E-02
DAV:  13    -0.134695717162E+04    0.12664E-05   -0.51234E-05  2616   0.171E-02    0.158E-02
DAV:  14    -0.134695717096E+04    0.65984E-06   -0.42770E-05  2256   0.110E-02    0.635E-03
DAV:  15    -0.134695717157E+04   -0.60959E-06   -0.64731E-06  1520   0.694E-03
   4 F= -.13469572E+04 E0= -.13469572E+04  d E =-.441466E+01
 BRION: g(F)=  0.485E+01 g(S)=  0.000E+00 retain N=  3 mean eig= 2.75
 eig:   7.468  0.396  0.396
 bond charge predicted
       N       E                     dE             d eps       ncg     rms          rms(c)
DAV:   1    -0.134794446557E+04   -0.98729E+00   -0.25552E+02  1368   0.223E+01    0.385E+00
DAV:   2    -0.134920252491E+04   -0.12581E+01   -0.13528E+01  2288   0.845E+00    0.195E+00
DAV:   3    -0.134922660181E+04   -0.24077E-01   -0.92893E-01  2624   0.179E+00    0.156E+00
DAV:   4    -0.134918526331E+04    0.41338E-01   -0.26058E-01  2488   0.104E+00    0.717E-01
DAV:   5    -0.134918407901E+04    0.11843E-02   -0.82173E-02  2488   0.588E-01    0.509E-01
DAV:   6    -0.134918292838E+04    0.11506E-02   -0.55633E-02  2592   0.413E-01    0.221E-01
DAV:   7    -0.134918287445E+04    0.53924E-04   -0.89749E-03  2512   0.205E-01    0.168E-01
DAV:   8    -0.134918282684E+04    0.47611E-04   -0.38675E-03  2456   0.107E-01    0.728E-02
DAV:   9    -0.134918285911E+04   -0.32271E-04   -0.12236E-03  2624   0.665E-02    0.562E-02
DAV:  10    -0.134918285941E+04   -0.29498E-06   -0.35611E-04  2536   0.397E-02    0.430E-02
DAV:  11    -0.134918284893E+04    0.10481E-04   -0.32499E-04  2536   0.307E-02    0.194E-02
DAV:  12    -0.134918285001E+04   -0.10866E-05   -0.65388E-05  2456   0.174E-02    0.109E-02
DAV:  13    -0.134918285095E+04   -0.93493E-06   -0.20875E-05  2352   0.908E-03    0.632E-03
DAV:  14    -0.134918285082E+04    0.12726E-06   -0.49836E-06  1344   0.587E-03
   5 F= -.13491829E+04 E0= -.13491829E+04  d E =-.222568E+01
 BRION: g(F)=  0.266E+01 g(S)=  0.000E+00 retain N=  4 mean eig= 2.31
 eig:   7.037  1.205  0.504  0.504
 bond charge predicted
       N       E                     dE             d eps       ncg     rms          rms(c)
DAV:   1    -0.134968561229E+04   -0.50276E+00   -0.30761E+02  1360   0.245E+01    0.367E+00
DAV:   2    -0.135120245339E+04   -0.15168E+01   -0.15902E+01  2288   0.907E+00    0.186E+00
DAV:   3    -0.135124583935E+04   -0.43386E-01   -0.10810E+00  2600   0.188E+00    0.156E+00
DAV:   4    -0.135120344082E+04    0.42399E-01   -0.22413E-01  2520   0.982E-01    0.840E-01
DAV:   5    -0.135119476790E+04    0.86729E-02   -0.10768E-01  2456   0.635E-01    0.493E-01
DAV:   6    -0.135119443983E+04    0.32807E-03   -0.40974E-02  2520   0.405E-01    0.327E-01
DAV:   7    -0.135119391012E+04    0.52971E-03   -0.17850E-02  2568   0.242E-01    0.175E-01
DAV:   8    -0.135119385841E+04    0.51717E-04   -0.35123E-03  2608   0.123E-01    0.966E-02
DAV:   9    -0.135119383080E+04    0.27610E-04   -0.11061E-03  2616   0.639E-02    0.566E-02
DAV:  10    -0.135119385274E+04   -0.21937E-04   -0.49759E-04  2376   0.421E-02    0.404E-02
DAV:  11    -0.135119383527E+04    0.17465E-04   -0.19667E-04  2608   0.274E-02    0.170E-02
DAV:  12    -0.135119383878E+04   -0.35127E-05   -0.85715E-05  2504   0.174E-02    0.136E-02
DAV:  13    -0.135119383873E+04    0.57218E-07   -0.27635E-05  2312   0.104E-02    0.854E-03
DAV:  14    -0.135119383853E+04    0.19420E-06   -0.13575E-05  1728   0.679E-03    0.394E-03
DAV:  15    -0.135119383851E+04    0.20649E-07   -0.18329E-06  1064   0.480E-03
   6 F= -.13511938E+04 E0= -.13511938E+04  d E =-.201099E+01
 BRION: g(F)=  0.127E+01 g(S)=  0.000E+00 retain N=  5 mean eig= 1.97
 eig:   6.255  1.653  0.715  0.715  0.512
 bond charge predicted
       N       E                     dE             d eps       ncg     rms          rms(c)
DAV:   1    -0.135125554337E+04   -0.61705E-01   -0.22364E+02  1376   0.210E+01    0.304E+00
DAV:   2    -0.135237092715E+04   -0.11154E+01   -0.11699E+01  2280   0.763E+00    0.150E+00
DAV:   3    -0.135241683615E+04   -0.45909E-01   -0.85060E-01  2624   0.163E+00    0.119E+00
DAV:   4    -0.135239180663E+04    0.25030E-01   -0.12831E-01  2552   0.803E-01    0.657E-01
DAV:   5    -0.135238598602E+04    0.58206E-02   -0.57799E-02  2464   0.458E-01    0.305E-01
DAV:   6    -0.135238686147E+04   -0.87544E-03   -0.19924E-02  2576   0.269E-01    0.195E-01
DAV:   7    -0.135238672672E+04    0.13475E-03   -0.61336E-03  2576   0.156E-01    0.119E-01
DAV:   8    -0.135238676845E+04   -0.41731E-04   -0.22288E-03  2616   0.879E-02    0.725E-02
DAV:   9    -0.135238672888E+04    0.39566E-04   -0.57840E-04  2608   0.512E-02    0.416E-02
DAV:  10    -0.135238675234E+04   -0.23463E-04   -0.33709E-04  2592   0.329E-02    0.260E-02
DAV:  11    -0.135238674642E+04    0.59250E-05   -0.75722E-05  2624   0.201E-02    0.121E-02
DAV:  12    -0.135238674828E+04   -0.18593E-05   -0.32956E-05  2224   0.103E-02    0.922E-03
DAV:  13    -0.135238674719E+04    0.10833E-05   -0.35071E-06  1120   0.659E-03    0.529E-03
DAV:  14    -0.135238674824E+04   -0.10423E-05   -0.18777E-05  1648   0.809E-03    0.508E-03
DAV:  15    -0.135238674805E+04    0.18654E-06   -0.19870E-06  1056   0.533E-03
   7 F= -.13523867E+04 E0= -.13523867E+04  d E =-.119291E+01
 BRION: g(F)=  0.868E+00 g(S)=  0.000E+00 retain N=  5 mean eig= 1.02
 eig:   2.047  2.047  0.225  0.225  0.575
 bond charge predicted
       N       E                     dE             d eps       ncg     rms          rms(c)
DAV:   1    -0.135277329838E+04   -0.38655E+00   -0.49893E+01  1376   0.102E+01    0.156E+00
DAV:   2    -0.135302615419E+04   -0.25286E+00   -0.27086E+00  2304   0.397E+00    0.759E-01
DAV:   3    -0.135303903930E+04   -0.12885E-01   -0.21497E-01  2608   0.806E-01    0.624E-01
DAV:   4    -0.135303373136E+04    0.53079E-02   -0.33822E-02  2552   0.422E-01    0.343E-01
DAV:   5    -0.135303288834E+04    0.84303E-03   -0.16224E-02  2408   0.256E-01    0.182E-01
DAV:   6    -0.135303298146E+04   -0.93127E-04   -0.69534E-03  2568   0.167E-01    0.121E-01
DAV:   7    -0.135303294486E+04    0.36603E-04   -0.27645E-03  2528   0.993E-02    0.743E-02
DAV:   8    -0.135303293362E+04    0.11241E-04   -0.58297E-04  2608   0.519E-02    0.434E-02
DAV:   9    -0.135303292833E+04    0.52870E-05   -0.22748E-04  2600   0.295E-02    0.255E-02
DAV:  10    -0.135303293459E+04   -0.62536E-05   -0.10410E-04  2256   0.195E-02    0.189E-02
DAV:  11    -0.135303293199E+04    0.26021E-05   -0.41670E-05  2400   0.125E-02    0.907E-03
DAV:  12    -0.135303293186E+04    0.12275E-06   -0.16064E-05  1968   0.843E-03    0.632E-03
DAV:  13    -0.135303293178E+04    0.83222E-07   -0.53903E-06  1392   0.586E-03
   8 F= -.13530329E+04 E0= -.13530329E+04  d E =-.646184E+00
 BRION: g(F)=  0.567E+00 g(S)=  0.000E+00 retain N=  6 mean eig= 1.48
 eig:   3.485  3.485  0.458  0.458  0.492  0.492
 bond charge predicted
       N       E                     dE             d eps       ncg     rms          rms(c)
DAV:   1    -0.135328203213E+04   -0.24910E+00   -0.11559E+02  1384   0.155E+01    0.192E+00
DAV:   2    -0.135387136904E+04   -0.58934E+00   -0.62218E+00  2288   0.590E+00    0.974E-01
DAV:   3    -0.135390650845E+04   -0.35139E-01   -0.49343E-01  2616   0.122E+00    0.794E-01
DAV:   4    -0.135389862198E+04    0.78865E-02   -0.51511E-02  2616   0.559E-01    0.544E-01
DAV:   5    -0.135389231932E+04    0.63027E-02   -0.32449E-02  2304   0.368E-01    0.201E-01
DAV:   6    -0.135389368039E+04   -0.13611E-02   -0.18289E-02  2512   0.256E-01    0.210E-01
DAV:   7    -0.135389341087E+04    0.26952E-03   -0.60009E-03  2544   0.147E-01    0.133E-01
DAV:   8    -0.135389328460E+04    0.12627E-03   -0.21805E-03  2584   0.902E-02    0.620E-02
DAV:   9    -0.135389327126E+04    0.13338E-04   -0.32354E-04  2440   0.408E-02    0.434E-02
DAV:  10    -0.135389327562E+04   -0.43517E-05   -0.18005E-04  2408   0.256E-02    0.178E-02
DAV:  11    -0.135389327705E+04   -0.14369E-05   -0.41051E-05  2544   0.163E-02    0.921E-03
DAV:  12    -0.135389328006E+04   -0.30064E-05   -0.33022E-05  2432   0.978E-03    0.108E-02
DAV:  13    -0.135389327810E+04    0.19577E-05   -0.60611E-06  1344   0.671E-03    0.557E-03
DAV:  14    -0.135389327876E+04   -0.66076E-06   -0.14360E-05  1776   0.726E-03    0.394E-03
DAV:  15    -0.135389327847E+04    0.28964E-06   -0.11191E-06   984   0.458E-03
   9 F= -.13538933E+04 E0= -.13538933E+04  d E =-.860347E+00
 BRION: g(F)=  0.422E+00 g(S)=  0.000E+00 retain N=  7 mean eig= 2.18
 eig:   5.374  5.374  1.314  1.314  0.616  0.616  0.661
 bond charge predicted
       N       E                     dE             d eps       ncg     rms          rms(c)
DAV:   1    -0.135416848768E+04   -0.27521E+00   -0.78217E+01  1384   0.127E+01    0.153E+00
DAV:   2    -0.135457456726E+04   -0.40608E+00   -0.43036E+00  2280   0.495E+00    0.782E-01
DAV:   3    -0.135459772409E+04   -0.23157E-01   -0.34050E-01  2616   0.991E-01    0.639E-01
DAV:   4    -0.135459217099E+04    0.55531E-02   -0.34901E-02  2616   0.461E-01    0.438E-01
DAV:   5    -0.135458769004E+04    0.44809E-02   -0.20060E-02  2328   0.275E-01    0.167E-01
DAV:   6    -0.135458828881E+04   -0.59877E-03   -0.10645E-02  2504   0.194E-01    0.149E-01
DAV:   7    -0.135458819840E+04    0.90412E-04   -0.43032E-03  2496   0.124E-01    0.943E-02
DAV:   8    -0.135458817432E+04    0.24083E-04   -0.14738E-03  2592   0.758E-02    0.516E-02
DAV:   9    -0.135458816406E+04    0.10261E-04   -0.26095E-04  2488   0.353E-02    0.378E-02
DAV:  10    -0.135458816820E+04   -0.41395E-05   -0.14233E-04  2528   0.218E-02    0.194E-02
DAV:  11    -0.135458816859E+04   -0.39412E-06   -0.52435E-05  2488   0.164E-02    0.875E-03
DAV:  12    -0.135458816987E+04   -0.12825E-05   -0.20591E-05  2352   0.102E-02    0.915E-03
DAV:  13    -0.135458816904E+04    0.83809E-06   -0.91278E-06  1608   0.631E-03
  10 F= -.13545882E+04 E0= -.13545882E+04  d E =-.694891E+00
 BRION: g(F)=  0.305E+00 g(S)=  0.000E+00 retain N=  8 mean eig= 2.64
 eig:   6.693  6.693  2.525  2.525  0.751  0.751  0.579  0.579
 bond charge predicted
       N       E                     dE             d eps       ncg     rms          rms(c)
DAV:   1    -0.135482412905E+04   -0.23596E+00   -0.78002E+01  1376   0.125E+01    0.153E+00
DAV:   2    -0.135522794097E+04   -0.40381E+00   -0.42622E+00  2296   0.495E+00    0.770E-01
DAV:   3    -0.135524938787E+04   -0.21447E-01   -0.32263E-01  2608   0.953E-01    0.624E-01
DAV:   4    -0.135524343414E+04    0.59537E-02   -0.33613E-02  2608   0.438E-01    0.422E-01
DAV:   5    -0.135523872875E+04    0.47054E-02   -0.19094E-02  2320   0.276E-01    0.153E-01
DAV:   6    -0.135523943993E+04   -0.71118E-03   -0.10657E-02  2520   0.187E-01    0.143E-01
DAV:   7    -0.135523933375E+04    0.10618E-03   -0.32796E-03  2560   0.109E-01    0.933E-02
DAV:   8    -0.135523929682E+04    0.36927E-04   -0.13344E-03  2584   0.687E-02    0.471E-02
DAV:   9    -0.135523928894E+04    0.78887E-05   -0.22221E-04  2432   0.327E-02    0.342E-02
DAV:  10    -0.135523929274E+04   -0.38078E-05   -0.11750E-04  2464   0.207E-02    0.155E-02
DAV:  11    -0.135523929348E+04   -0.73592E-06   -0.33045E-05  2472   0.135E-02    0.731E-03
DAV:  12    -0.135523929543E+04   -0.19479E-05   -0.21472E-05  2336   0.864E-03    0.899E-03
DAV:  13    -0.135523929414E+04    0.12885E-05   -0.35401E-06  1200   0.556E-03    0.517E-03
DAV:  14    -0.135523929503E+04   -0.89538E-06   -0.16635E-05  1672   0.722E-03    0.531E-03
DAV:  15    -0.135523929442E+04    0.61466E-06   -0.12708E-06   976   0.484E-03
  11 F= -.13552393E+04 E0= -.13552393E+04  d E =-.651125E+00
 BRION: g(F)=  0.263E+00 g(S)=  0.000E+00 retain N=  8 mean eig= 2.46
 eig:   4.699  4.699  3.053  3.053  1.145  1.145  0.926  0.926
 bond charge predicted
       N       E                     dE             d eps       ncg     rms          rms(c)
DAV:   1    -0.135548041423E+04   -0.24112E+00   -0.28440E+01  1376   0.753E+00    0.931E-01
DAV:   2    -0.135562790967E+04   -0.14750E+00   -0.15560E+00  2272   0.298E+00    0.475E-01
DAV:   3    -0.135563522228E+04   -0.73126E-02   -0.11806E-01  2616   0.597E-01    0.384E-01
DAV:   4    -0.135563260815E+04    0.26141E-02   -0.13402E-02  2608   0.269E-01    0.247E-01
DAV:   5    -0.135563090369E+04    0.17045E-02   -0.64005E-03  2312   0.163E-01    0.948E-02
DAV:   6    -0.135563107809E+04   -0.17440E-03   -0.37815E-03  2472   0.113E-01    0.760E-02
DAV:   7    -0.135563106310E+04    0.14991E-04   -0.12015E-03  2448   0.661E-02    0.541E-02
DAV:   8    -0.135563106322E+04   -0.11775E-06   -0.53182E-04  2592   0.409E-02    0.294E-02
DAV:   9    -0.135563105826E+04    0.49557E-05   -0.97331E-05  2536   0.216E-02    0.219E-02
DAV:  10    -0.135563105791E+04    0.35691E-06   -0.53322E-05  2528   0.139E-02    0.117E-02
DAV:  11    -0.135563105790E+04    0.26484E-08   -0.21394E-05  2248   0.982E-03    0.528E-03
DAV:  12    -0.135563105811E+04   -0.21035E-06   -0.52522E-06  1408   0.614E-03
  12 F= -.13556311E+04 E0= -.13556311E+04  d E =-.391764E+00
 BRION: g(F)=  0.253E+00 g(S)=  0.000E+00 retain N=  9 mean eig= 3.07
 eig:   7.379  7.379  3.558  3.558  1.508  1.508  0.927  0.927  0.841
 bond charge predicted
       N       E                     dE             d eps       ncg     rms          rms(c)
DAV:   1    -0.135585248805E+04   -0.22143E+00   -0.67502E+01  1392   0.116E+01    0.139E+00
DAV:   2    -0.135620040687E+04   -0.34792E+00   -0.36641E+00  2304   0.465E+00    0.716E-01
DAV:   3    -0.135621845642E+04   -0.18050E-01   -0.27951E-01  2608   0.877E-01    0.585E-01
DAV:   4    -0.135621310951E+04    0.53469E-02   -0.28876E-02  2600   0.397E-01    0.401E-01
DAV:   5    -0.135620834935E+04    0.47602E-02   -0.16179E-02  2312   0.249E-01    0.152E-01
DAV:   6    -0.135620884954E+04   -0.50019E-03   -0.10126E-02  2448   0.180E-01    0.133E-01
DAV:   7    -0.135620872168E+04    0.12786E-03   -0.33746E-03  2432   0.111E-01    0.905E-02
DAV:   8    -0.135620870871E+04    0.12975E-04   -0.15593E-03  2552   0.716E-02    0.494E-02
DAV:   9    -0.135620869617E+04    0.12538E-04   -0.25769E-04  2448   0.350E-02    0.359E-02
DAV:  10    -0.135620869575E+04    0.41604E-06   -0.10786E-04  2448   0.194E-02    0.188E-02
DAV:  11    -0.135620869690E+04   -0.11471E-05   -0.39966E-05  2456   0.133E-02    0.968E-03
DAV:  12    -0.135620869749E+04   -0.58532E-06   -0.20867E-05  2256   0.968E-03    0.841E-03
DAV:  13    -0.135620869709E+04    0.39201E-06   -0.91795E-06  1704   0.635E-03
  13 F= -.13562087E+04 E0= -.13562087E+04  d E =-.577639E+00
 BRION: g(F)=  0.214E+00 g(S)=  0.000E+00 retain N=  6 mean eig= 3.77
 eig:   7.814  7.814  2.394  2.394  1.095  1.095
 bond charge predicted
       N       E                     dE             d eps       ncg     rms          rms(c)
DAV:   1    -0.135644690812E+04   -0.23821E+00   -0.21875E+01  1384   0.662E+00    0.804E-01
DAV:   2    -0.135656015526E+04   -0.11325E+00   -0.11961E+00  2304   0.263E+00    0.407E-01
DAV:   3    -0.135656608103E+04   -0.59258E-02   -0.92880E-02  2600   0.512E-01    0.326E-01
DAV:   4    -0.135656414074E+04    0.19403E-02   -0.10092E-02  2576   0.233E-01    0.212E-01
DAV:   5    -0.135656287767E+04    0.12631E-02   -0.51759E-03  2296   0.141E-01    0.811E-02
DAV:   6    -0.135656301738E+04   -0.13971E-03   -0.26575E-03  2464   0.950E-02    0.677E-02
DAV:   7    -0.135656299578E+04    0.21604E-04   -0.93212E-04  2472   0.583E-02    0.449E-02
DAV:   8    -0.135656299742E+04   -0.16441E-05   -0.39904E-04  2584   0.365E-02    0.258E-02
DAV:   9    -0.135656299427E+04    0.31504E-05   -0.66898E-05  2512   0.182E-02    0.191E-02
DAV:  10    -0.135656299419E+04    0.76951E-07   -0.43878E-05  2488   0.121E-02    0.102E-02
DAV:  11    -0.135656299423E+04   -0.37980E-07   -0.16557E-05  2144   0.889E-03    0.465E-03
DAV:  12    -0.135656299438E+04   -0.14824E-06   -0.38831E-06  1264   0.565E-03
  14 F= -.13565630E+04 E0= -.13565630E+04  d E =-.354297E+00
 BRION: g(F)=  0.210E+00 g(S)=  0.000E+00 retain N=  4 mean eig= 3.47
 eig:   5.665  5.665  1.280  1.280
 bond charge predicted
       N       E                     dE             d eps       ncg     rms          rms(c)
DAV:   1    -0.135672969233E+04   -0.16670E+00   -0.10182E+01  1392   0.449E+00    0.531E-01
DAV:   2    -0.135678037843E+04   -0.50686E-01   -0.53241E-01  2304   0.175E+00    0.274E-01
DAV:   3    -0.135678325744E+04   -0.28790E-02   -0.42419E-02  2600   0.335E-01    0.226E-01
DAV:   4    -0.135678255255E+04    0.70488E-03   -0.39721E-03  2600   0.147E-01    0.160E-01
DAV:   5    -0.135678178569E+04    0.76687E-03   -0.24662E-03  2176   0.989E-02    0.592E-02
DAV:   6    -0.135678188279E+04   -0.97109E-04   -0.17642E-03  2408   0.736E-02    0.594E-02
DAV:   7    -0.135678185352E+04    0.29274E-04   -0.52466E-04  2440   0.439E-02    0.405E-02
DAV:   8    -0.135678184247E+04    0.11052E-04   -0.25742E-04  2504   0.293E-02    0.190E-02
DAV:   9    -0.135678184157E+04    0.90057E-06   -0.41605E-05  2248   0.139E-02    0.132E-02
DAV:  10    -0.135678184155E+04    0.20897E-07   -0.12526E-05  1880   0.752E-03    0.673E-03
DAV:  11    -0.135678184140E+04    0.14812E-06   -0.21969E-06  1000   0.536E-03
  15 F= -.13567818E+04 E0= -.13567818E+04  d E =-.218847E+00
 BRION: g(F)=  0.204E+00 g(S)=  0.000E+00 retain N=  5 mean eig= 3.68
 eig:   7.087  7.087  1.550  1.550  1.129
 bond charge predicted
       N       E                     dE             d eps       ncg     rms          rms(c)
DAV:   1    -0.135699275097E+04   -0.21091E+00   -0.19349E+01  1384   0.617E+00    0.707E-01
DAV:   2    -0.135708919172E+04   -0.96441E-01   -0.10103E+00  2304   0.240E+00    0.363E-01
DAV:   3    -0.135709492005E+04   -0.57283E-02   -0.81445E-02  2600   0.458E-01    0.295E-01
DAV:   4    -0.135709373731E+04    0.11827E-02   -0.70002E-03  2600   0.198E-01    0.215E-01
DAV:   5    -0.135709222773E+04    0.15096E-02   -0.39980E-03  2208   0.128E-01    0.840E-02
DAV:   6    -0.135709231981E+04   -0.92084E-04   -0.32679E-03  2312   0.100E-01    0.667E-02
DAV:   7    -0.135709231271E+04    0.71066E-05   -0.98297E-04  2376   0.586E-02    0.507E-02
DAV:   8    -0.135709230022E+04    0.12487E-04   -0.40051E-04  2536   0.365E-02    0.265E-02
DAV:   9    -0.135709229397E+04    0.62515E-05   -0.96685E-05  2288   0.203E-02    0.171E-02
DAV:  10    -0.135709229512E+04   -0.11525E-05   -0.30024E-05  2368   0.106E-02    0.107E-02
DAV:  11    -0.135709229430E+04    0.82359E-06   -0.83269E-06  1624   0.686E-03
  16 F= -.13570923E+04 E0= -.13570923E+04  d E =-.310453E+00
 BRION: g(F)=  0.205E+00 g(S)=  0.000E+00 retain N=  5 mean eig= 2.31
 eig:   4.236  4.236  0.906  1.080  1.080
 bond charge predicted
       N       E                     dE             d eps       ncg     rms          rms(c)
DAV:   1    -0.135717148147E+04   -0.79186E-01   -0.10671E+00  1392   0.146E+00    0.179E-01
DAV:   2    -0.135717707497E+04   -0.55935E-02   -0.59306E-02  2304   0.581E-01    0.918E-02
DAV:   3    -0.135717736149E+04   -0.28653E-03   -0.46398E-03  2600   0.116E-01    0.723E-02
DAV:   4    -0.135717725505E+04    0.10644E-03   -0.53291E-04  2576   0.534E-02    0.446E-02
DAV:   5    -0.135717720598E+04    0.49078E-04   -0.25279E-04  2384   0.306E-02    0.177E-02
DAV:   6    -0.135717721130E+04   -0.53222E-05   -0.10655E-04  2512   0.192E-02    0.123E-02
DAV:   7    -0.135717721137E+04   -0.72498E-07   -0.35246E-05  2480   0.119E-02    0.827E-03
DAV:   8    -0.135717721142E+04   -0.47759E-07   -0.11715E-05  1992   0.701E-03    0.492E-03
DAV:   9    -0.135717721119E+04    0.22871E-06   -0.12692E-06   984   0.457E-03
  17 F= -.13571772E+04 E0= -.13571772E+04  d E =-.849169E-01
 BRION: g(F)=  0.203E+00 g(S)=  0.000E+00 retain N=  6 mean eig= 2.48
 eig:   5.213  5.213  1.359  1.359  0.965  0.777
 bond charge predicted
       N       E                     dE             d eps       ncg     rms          rms(c)
DAV:   1    -0.135724579730E+04   -0.68586E-01   -0.11691E+00  1400   0.154E+00    0.184E-01
DAV:   2    -0.135725188174E+04   -0.60844E-02   -0.64387E-02  2296   0.604E-01    0.934E-02
DAV:   3    -0.135725227529E+04   -0.39355E-03   -0.53817E-03  2608   0.120E-01    0.769E-02
DAV:   4    -0.135725220370E+04    0.71596E-04   -0.47784E-04  2608   0.537E-02    0.556E-02
DAV:   5    -0.135725211955E+04    0.84145E-04   -0.27957E-04  2288   0.348E-02    0.211E-02
DAV:   6    -0.135725212876E+04   -0.92053E-05   -0.20820E-04  2392   0.269E-02    0.197E-02
DAV:   7    -0.135725212701E+04    0.17512E-05   -0.70253E-05  2424   0.160E-02    0.137E-02
DAV:   8    -0.135725212606E+04    0.94977E-06   -0.28156E-05  2440   0.100E-02    0.662E-03
DAV:   9    -0.135725212549E+04    0.56565E-06   -0.28208E-06  1080   0.521E-03
  18 F= -.13572521E+04 E0= -.13572521E+04  d E =-.749143E-01
 BRION: g(F)=  0.205E+00 g(S)=  0.000E+00 retain N=  7 mean eig= 2.52
 eig:   5.303  5.303  2.525  1.386  1.386  1.284  0.441
 bond charge predicted
       N       E                     dE             d eps       ncg     rms          rms(c)
DAV:   1    -0.135734855408E+04   -0.96428E-01   -0.13110E+00  1416   0.162E+00    0.192E-01
DAV:   2    -0.135735551333E+04   -0.69593E-02   -0.73661E-02  2296   0.646E-01    0.974E-02
DAV:   3    -0.135735595735E+04   -0.44403E-03   -0.62330E-03  2584   0.128E-01    0.776E-02
DAV:   4    -0.135735586668E+04    0.90671E-04   -0.57787E-04  2584   0.582E-02    0.544E-02
DAV:   5    -0.135735578202E+04    0.84664E-04   -0.29679E-04  2328   0.343E-02    0.211E-02
DAV:   6    -0.135735578748E+04   -0.54580E-05   -0.18156E-04  2432   0.247E-02    0.162E-02
DAV:   7    -0.135735578764E+04   -0.15974E-06   -0.64533E-05  2448   0.154E-02    0.114E-02
DAV:   8    -0.135735578729E+04    0.34750E-06   -0.24499E-05  2464   0.962E-03    0.669E-03
DAV:   9    -0.135735578679E+04    0.49424E-06   -0.24297E-06  1048   0.515E-03
  19 F= -.13573558E+04 E0= -.13573558E+04  d E =-.103661E+00
 BRION: g(F)=  0.206E+00 g(S)=  0.000E+00 retain N=  8 mean eig= 2.62
 eig:   6.289  6.289  1.748  1.214  1.214  0.928  1.633  1.633
 bond charge predicted
       N       E                     dE             d eps       ncg     rms          rms(c)
DAV:   1    -0.135678825670E+04    0.56753E+00   -0.24080E+01  1392   0.693E+00    0.832E-01
DAV:   2    -0.135691638191E+04   -0.12813E+00   -0.13522E+00  2296   0.277E+00    0.414E-01
DAV:   3    -0.135692442496E+04   -0.80430E-02   -0.11341E-01  2600   0.547E-01    0.330E-01
DAV:   4    -0.135692264516E+04    0.17798E-02   -0.10334E-02  2600   0.246E-01    0.229E-01
DAV:   5    -0.135692104541E+04    0.15998E-02   -0.54843E-03  2320   0.146E-01    0.857E-02
DAV:   6    -0.135692117424E+04   -0.12883E-03   -0.32678E-03  2448   0.103E-01    0.684E-02
DAV:   7    -0.135692116660E+04    0.76366E-05   -0.10532E-03  2488   0.627E-02    0.468E-02
DAV:   8    -0.135692116168E+04    0.49231E-05   -0.40677E-04  2544   0.386E-02    0.267E-02
DAV:   9    -0.135692115894E+04    0.27358E-05   -0.83554E-05  2488   0.197E-02    0.189E-02
DAV:  10    -0.135692115914E+04   -0.19642E-06   -0.29436E-05  2552   0.110E-02    0.982E-03
DAV:  11    -0.135692115911E+04    0.33528E-07   -0.10526E-05  1832   0.746E-03    0.464E-03
DAV:  12    -0.135692115914E+04   -0.32887E-07   -0.52231E-06  1312   0.567E-03
  20 F= -.13569212E+04 E0= -.13569212E+04  d E =0.434628E+00
 BRION: g(F)=  0.204E+00 g(S)=  0.000E+00 retain N=  9 mean eig= 3.61
 eig:   7.115  7.115  4.606  5.192  5.192  1.172  1.172  0.909  0.007
