 running on  160 total cores
 distrk:  each k-point on  160 cores,    1 groups
 distr:  one band on   20 cores,    8 groups
 using from now: INCAR     
 vasp.5.4.4.18Apr17-6-g9f103f2a35 (build May 01 2020 14:22:42) gamma-only       
  
 POSCAR found type information on POSCAR  O  La Zr Li Al
 POSCAR found :  5 types and     186 ions
 scaLAPACK will be used
 LDA part: xc-table for Pade appr. of Perdew
 POSCAR, INCAR and KPOINTS ok, starting setup
 FFT: planning ...
 WAVECAR not read
 WARNING: random wavefunctions but no delay for mixing, default for NELMDL
 entering main loop
       N       E                     dE             d eps       ncg     rms          rms(c)
DAV:   1     0.253314576455E+05    0.25331E+05   -0.42043E+05  1560   0.253E+03
DAV:   2     0.940064689936E+04   -0.15931E+05   -0.14737E+05  1424   0.706E+02
DAV:   3     0.265090782552E+04   -0.67497E+04   -0.61566E+04  1520   0.355E+02
DAV:   4    -0.377388704131E+03   -0.30283E+04   -0.28249E+04  2040   0.225E+02
DAV:   5    -0.140041855070E+04   -0.10230E+04   -0.98582E+03  2536   0.140E+02    0.116E+02
DAV:   6    -0.129449833248E+04    0.10592E+03   -0.14777E+03  2432   0.658E+01    0.502E+01
DAV:   7    -0.131664849214E+04   -0.22150E+02   -0.38100E+02  2576   0.341E+01    0.249E+01
DAV:   8    -0.132336909974E+04   -0.67206E+01   -0.23606E+02  2528   0.260E+01    0.243E+01
DAV:   9    -0.131844707448E+04    0.49220E+01   -0.45305E+01  2544   0.141E+01    0.800E+00
DAV:  10    -0.131916402760E+04   -0.71695E+00   -0.16822E+01  2624   0.770E+00    0.712E+00
DAV:  11    -0.131953871574E+04   -0.37469E+00   -0.51788E+00  2624   0.406E+00    0.438E+00
DAV:  12    -0.131937445834E+04    0.16426E+00   -0.23099E+00  2560   0.333E+00    0.297E+00
DAV:  13    -0.131942284820E+04   -0.48390E-01   -0.91324E-01  2560   0.178E+00    0.200E+00
DAV:  14    -0.131941183770E+04    0.11011E-01   -0.25380E-01  2616   0.103E+00    0.118E+00
DAV:  15    -0.131941784107E+04   -0.60034E-02   -0.82600E-02  2568   0.559E-01    0.860E-01
DAV:  16    -0.131941850047E+04   -0.65941E-03   -0.26576E-02  2624   0.303E-01    0.560E-01
DAV:  17    -0.131941833739E+04    0.16309E-03   -0.19879E-02  2424   0.268E-01    0.313E-01
DAV:  18    -0.131941857826E+04   -0.24088E-03   -0.43094E-03  2432   0.137E-01    0.151E-01
DAV:  19    -0.131941855945E+04    0.18817E-04   -0.22443E-03  2504   0.931E-02    0.108E-01
DAV:  20    -0.131941861363E+04   -0.54185E-04   -0.62156E-04  2552   0.422E-02    0.485E-02
DAV:  21    -0.131941864227E+04   -0.28642E-04   -0.19594E-04  2560   0.274E-02    0.371E-02
DAV:  22    -0.131941865033E+04   -0.80538E-05   -0.73037E-05  2408   0.138E-02    0.155E-02
DAV:  23    -0.131941865192E+04   -0.15944E-05   -0.31503E-05  1872   0.109E-02    0.101E-02
DAV:  24    -0.131941865466E+04   -0.27391E-05   -0.14160E-05  1600   0.725E-03    0.285E-03
DAV:  25    -0.131941865514E+04   -0.48117E-06   -0.42677E-06  1048   0.541E-03
   1 F= -.13194187E+04 E0= -.13194187E+04  d E =-.131942E+04
 BRION: g(F)=  0.776E+02 g(S)=  0.000E+00
 bond charge predicted
       N       E                     dE             d eps       ncg     rms          rms(c)
DAV:   1    -0.127999349067E+04    0.39425E+02   -0.81384E+03  1720   0.135E+02    0.285E+01
DAV:   2    -0.134023074677E+04   -0.60237E+02   -0.68932E+02  2584   0.586E+01    0.161E+01
DAV:   3    -0.133750403964E+04    0.27267E+01   -0.39305E+01  2616   0.161E+01    0.107E+01
DAV:   4    -0.133508787413E+04    0.24162E+01   -0.15997E+01  2328   0.777E+00    0.499E+00
DAV:   5    -0.133484148927E+04    0.24638E+00   -0.40981E+00  2528   0.443E+00    0.347E+00
DAV:   6    -0.133470073557E+04    0.14075E+00   -0.31746E+00  2520   0.320E+00    0.181E+00
DAV:   7    -0.133469914804E+04    0.15875E-02   -0.63898E-01  2536   0.185E+00    0.146E+00
DAV:   8    -0.133468220270E+04    0.16945E-01   -0.46703E-01  2600   0.114E+00    0.643E-01
DAV:   9    -0.133468491957E+04   -0.27169E-02   -0.73329E-02  2544   0.607E-01    0.533E-01
DAV:  10    -0.133468179676E+04    0.31228E-02   -0.31645E-02  2600   0.349E-01    0.236E-01
DAV:  11    -0.133468292200E+04   -0.11252E-02   -0.23277E-02  2576   0.261E-01    0.193E-01
DAV:  12    -0.133468277760E+04    0.14440E-03   -0.33857E-03  2600   0.127E-01    0.118E-01
DAV:  13    -0.133468265562E+04    0.12198E-03   -0.18073E-03  2616   0.744E-02    0.324E-02
DAV:  14    -0.133468268423E+04   -0.28610E-04   -0.30000E-04  2568   0.357E-02    0.134E-02
DAV:  15    -0.133468269356E+04   -0.93226E-05   -0.91292E-05  2608   0.197E-02    0.120E-02
DAV:  16    -0.133468269285E+04    0.70618E-06   -0.30930E-05  2592   0.131E-02    0.710E-03
DAV:  17    -0.133468269415E+04   -0.13044E-05   -0.16865E-05  2368   0.829E-03    0.364E-03
DAV:  18    -0.133468269422E+04   -0.63737E-07   -0.11539E-06  1016   0.404E-03
   2 F= -.13346827E+04 E0= -.13346827E+04  d E =-.152640E+02
 BRION: g(F)=  0.217E+03 g(S)=  0.000E+00 retain N=  1 mean eig= 0.33
 eig:   0.330
 bond charge predicted
       N       E                     dE             d eps       ncg     rms          rms(c)
DAV:   1    -0.131846591032E+04    0.16217E+02   -0.27549E+03  1312   0.594E+01    0.235E+01
DAV:   2    -0.135446306129E+04   -0.35997E+02   -0.48338E+02  2504   0.362E+01    0.215E+01
DAV:   3    -0.135037980703E+04    0.40833E+01   -0.57755E+01  2480   0.150E+01    0.146E+01
DAV:   4    -0.134667469841E+04    0.37051E+01   -0.27102E+01  2240   0.621E+00    0.512E+00
DAV:   5    -0.134746030506E+04   -0.78561E+00   -0.10893E+01  2512   0.525E+00    0.603E+00
DAV:   6    -0.134679603594E+04    0.66427E+00   -0.25793E+00  2480   0.305E+00    0.334E+00
DAV:   7    -0.134681425248E+04   -0.18217E-01   -0.34932E+00  2352   0.256E+00    0.194E+00
DAV:   8    -0.134674948071E+04    0.64772E-01   -0.56979E-01  2464   0.150E+00    0.854E-01
DAV:   9    -0.134675780429E+04   -0.83236E-02   -0.32810E-01  2552   0.930E-01    0.623E-01
DAV:  10    -0.134675258893E+04    0.52154E-02   -0.61938E-02  2496   0.490E-01    0.147E-01
DAV:  11    -0.134675483158E+04   -0.22426E-02   -0.20977E-02  2608   0.247E-01    0.286E-01
DAV:  12    -0.134675324369E+04    0.15879E-02   -0.39778E-03  2600   0.145E-01    0.162E-01
DAV:  13    -0.134675308873E+04    0.15497E-03   -0.65738E-03  2336   0.116E-01    0.485E-02
DAV:  14    -0.134675321835E+04   -0.12962E-03   -0.96171E-04  2488   0.600E-02    0.679E-02
DAV:  15    -0.134675319489E+04    0.23462E-04   -0.13739E-04  2560   0.264E-02    0.674E-02
DAV:  16    -0.134675312464E+04    0.70250E-04   -0.26475E-04  2192   0.254E-02    0.246E-02
DAV:  17    -0.134675312347E+04    0.11694E-05   -0.12516E-04  2312   0.180E-02    0.312E-03
DAV:  18    -0.134675312488E+04   -0.14143E-05   -0.13015E-05  2016   0.821E-03    0.481E-03
DAV:  19    -0.134675312481E+04    0.75626E-07   -0.11657E-06  1104   0.390E-03
   3 F= -.13467531E+04 E0= -.13467531E+04  d E =-.120704E+02
 BRION: g(F)=  0.168E+02 g(S)=  0.000E+00 retain N=  2 mean eig= 2.54
 eig:   0.197  4.880
 bond charge predicted
       N       E                     dE             d eps       ncg     rms          rms(c)
DAV:   1    -0.134675684827E+04   -0.37234E-02   -0.84848E+02  1408   0.403E+01    0.803E+00
DAV:   2    -0.135157813737E+04   -0.48213E+01   -0.56670E+01  2336   0.169E+01    0.426E+00
DAV:   3    -0.135162346444E+04   -0.45327E-01   -0.45267E+00  2584   0.503E+00    0.356E+00
DAV:   4    -0.135145122817E+04    0.17224E+00   -0.11456E+00  2472   0.215E+00    0.192E+00
DAV:   5    -0.135140304439E+04    0.48184E-01   -0.49376E-01  2288   0.147E+00    0.124E+00
DAV:   6    -0.135139360598E+04    0.94384E-02   -0.29068E-01  2512   0.109E+00    0.856E-01
DAV:   7    -0.135139160505E+04    0.20009E-02   -0.15008E-01  2496   0.683E-01    0.529E-01
DAV:   8    -0.135139032253E+04    0.12825E-02   -0.26656E-02  2576   0.336E-01    0.290E-01
DAV:   9    -0.135138989859E+04    0.42394E-03   -0.10642E-02  2584   0.199E-01    0.153E-01
DAV:  10    -0.135139024985E+04   -0.35126E-03   -0.53522E-03  2240   0.136E-01    0.146E-01
DAV:  11    -0.135138997740E+04    0.27246E-03   -0.18824E-03  2560   0.851E-02    0.612E-02
DAV:  12    -0.135138999195E+04   -0.14556E-04   -0.93210E-04  2520   0.567E-02    0.368E-02
DAV:  13    -0.135138999593E+04   -0.39828E-05   -0.22755E-04  2576   0.307E-02    0.193E-02
DAV:  14    -0.135138999808E+04   -0.21432E-05   -0.57047E-05  2400   0.155E-02    0.113E-02
DAV:  15    -0.135138999905E+04   -0.97690E-06   -0.31867E-05  2368   0.998E-03    0.665E-03
DAV:  16    -0.135138999932E+04   -0.26936E-06   -0.86627E-06  1736   0.634E-03
   4 F= -.13513900E+04 E0= -.13513900E+04  d E =-.463687E+01
 BRION: g(F)=  0.581E+01 g(S)=  0.000E+00 retain N=  2 mean eig= 0.37
 eig:   0.370  0.370
 bond charge predicted
       N       E                     dE             d eps       ncg     rms          rms(c)
DAV:   1    -0.135243100708E+04   -0.10410E+01   -0.27160E+02  1352   0.233E+01    0.400E+00
DAV:   2    -0.135378121724E+04   -0.13502E+01   -0.14728E+01  2280   0.865E+00    0.200E+00
DAV:   3    -0.135380188028E+04   -0.20663E-01   -0.11012E+00  2616   0.201E+00    0.166E+00
DAV:   4    -0.135374689879E+04    0.54981E-01   -0.31020E-01  2480   0.115E+00    0.776E-01
DAV:   5    -0.135374226781E+04    0.46310E-02   -0.10871E-01  2464   0.704E-01    0.575E-01
DAV:   6    -0.135374088808E+04    0.13797E-02   -0.89727E-02  2520   0.540E-01    0.287E-01
DAV:   7    -0.135374108539E+04   -0.19731E-03   -0.17520E-02  2448   0.273E-01    0.255E-01
DAV:   8    -0.135374065809E+04    0.42729E-03   -0.63056E-03  2344   0.136E-01    0.114E-01
DAV:   9    -0.135374068943E+04   -0.31337E-04   -0.32948E-03  2424   0.949E-02    0.799E-02
DAV:  10    -0.135374073560E+04   -0.46165E-04   -0.10131E-03  2280   0.622E-02    0.775E-02
DAV:  11    -0.135374067046E+04    0.65141E-04   -0.46043E-04  2368   0.405E-02    0.386E-02
DAV:  12    -0.135374066663E+04    0.38219E-05   -0.34913E-04  2456   0.319E-02    0.196E-02
DAV:  13    -0.135374066927E+04   -0.26402E-05   -0.69791E-05  2336   0.182E-02    0.133E-02
DAV:  14    -0.135374066872E+04    0.55578E-06   -0.24782E-05  2032   0.864E-03    0.544E-03
DAV:  15    -0.135374066844E+04    0.27807E-06   -0.30000E-06  1104   0.594E-03
   5 F= -.13537407E+04 E0= -.13537407E+04  d E =-.235067E+01
 BRION: g(F)=  0.320E+01 g(S)=  0.000E+00 retain N=  3 mean eig= 0.36
 eig:   0.502  0.286  0.286
 bond charge predicted
       N       E                     dE             d eps       ncg     rms          rms(c)
DAV:   1    -0.135456339969E+04   -0.82273E+00   -0.21111E+02  1360   0.206E+01    0.288E+00
DAV:   2    -0.135558275974E+04   -0.10194E+01   -0.10901E+01  2288   0.758E+00    0.150E+00
DAV:   3    -0.135561933892E+04   -0.36579E-01   -0.81460E-01  2592   0.167E+00    0.130E+00
DAV:   4    -0.135559377224E+04    0.25567E-01   -0.12262E-01  2544   0.762E-01    0.804E-01
DAV:   5    -0.135558018844E+04    0.13584E-01   -0.84289E-02  2240   0.552E-01    0.367E-01
DAV:   6    -0.135558193091E+04   -0.17425E-02   -0.39059E-02  2512   0.382E-01    0.373E-01
DAV:   7    -0.135558049807E+04    0.14328E-02   -0.20124E-02  2504   0.256E-01    0.204E-01
DAV:   8    -0.135558037515E+04    0.12292E-03   -0.53060E-03  2552   0.139E-01    0.988E-02
DAV:   9    -0.135558034917E+04    0.25979E-04   -0.82696E-04  2592   0.613E-02    0.680E-02
DAV:  10    -0.135558039009E+04   -0.40924E-04   -0.70678E-04  2288   0.421E-02    0.499E-02
DAV:  11    -0.135558034407E+04    0.46019E-04   -0.20635E-04  2528   0.334E-02    0.202E-02
DAV:  12    -0.135558035794E+04   -0.13870E-04   -0.25350E-04  2456   0.256E-02    0.238E-02
DAV:  13    -0.135558034896E+04    0.89863E-05   -0.59147E-05  2248   0.152E-02    0.888E-03
DAV:  14    -0.135558034953E+04   -0.56933E-06   -0.15220E-05  1848   0.786E-03    0.354E-03
DAV:  15    -0.135558034960E+04   -0.76427E-07   -0.11374E-06  1008   0.380E-03
   6 F= -.13555803E+04 E0= -.13555803E+04  d E =-.183968E+01
 BRION: g(F)=  0.231E+01 g(S)=  0.000E+00 retain N=  4 mean eig= 0.36
 eig:   0.472  0.527  0.395  0.032
 bond charge predicted
       N       E                     dE             d eps       ncg     rms          rms(c)
DAV:   1    -0.135606182564E+04   -0.48148E+00   -0.25627E+02  1352   0.224E+01    0.298E+00
DAV:   2    -0.135737253541E+04   -0.13107E+01   -0.13724E+01  2280   0.826E+00    0.161E+00
DAV:   3    -0.135742331757E+04   -0.50782E-01   -0.99963E-01  2584   0.181E+00    0.141E+00
DAV:   4    -0.135739879674E+04    0.24521E-01   -0.13864E-01  2560   0.785E-01    0.930E-01
DAV:   5    -0.135737621529E+04    0.22581E-01   -0.84969E-02  2208   0.576E-01    0.354E-01
DAV:   6    -0.135738014413E+04   -0.39288E-02   -0.61295E-02  2392   0.441E-01    0.428E-01
DAV:   7    -0.135737837260E+04    0.17715E-02   -0.18391E-02  2488   0.261E-01    0.290E-01
DAV:   8    -0.135737763101E+04    0.74159E-03   -0.92544E-03  2528   0.165E-01    0.113E-01
DAV:   9    -0.135737759463E+04    0.36381E-04   -0.13787E-03  2312   0.760E-02    0.734E-02
DAV:  10    -0.135737761401E+04   -0.19383E-04   -0.60188E-04  2336   0.408E-02    0.349E-02
DAV:  11    -0.135737761371E+04    0.30316E-06   -0.12748E-04  2584   0.264E-02    0.260E-02
DAV:  12    -0.135737761256E+04    0.11465E-05   -0.13525E-04  2488   0.204E-02    0.219E-02
DAV:  13    -0.135737760828E+04    0.42833E-05   -0.39836E-05  2200   0.123E-02    0.113E-02
DAV:  14    -0.135737760796E+04    0.31917E-06   -0.17358E-05  2072   0.773E-03    0.498E-03
DAV:  15    -0.135737760795E+04    0.15178E-07   -0.18323E-06  1088   0.501E-03
   7 F= -.13573776E+04 E0= -.13573776E+04  d E =-.179726E+01
 BRION: g(F)=  0.111E+01 g(S)=  0.000E+00 retain N=  5 mean eig= 0.89
 eig:   1.455  1.455  0.580  0.580  0.371
 bond charge predicted
       N       E                     dE             d eps       ncg     rms          rms(c)
DAV:   1    -0.135757744598E+04   -0.19984E+00   -0.16326E+02  1376   0.178E+01    0.233E+00
DAV:   2    -0.135842025378E+04   -0.84281E+00   -0.88103E+00  2288   0.656E+00    0.124E+00
DAV:   3    -0.135845705786E+04   -0.36804E-01   -0.66449E-01  2600   0.140E+00    0.102E+00
DAV:   4    -0.135844003395E+04    0.17024E-01   -0.88366E-02  2544   0.650E-01    0.636E-01
DAV:   5    -0.135843038065E+04    0.96533E-02   -0.39390E-02  2416   0.394E-01    0.258E-01
DAV:   6    -0.135843126693E+04   -0.88629E-03   -0.21992E-02  2456   0.274E-01    0.204E-01
DAV:   7    -0.135843099769E+04    0.26925E-03   -0.74097E-03  2400   0.171E-01    0.148E-01
DAV:   8    -0.135843097364E+04    0.24052E-04   -0.41772E-03  2424   0.107E-01    0.770E-02
DAV:   9    -0.135843093471E+04    0.38922E-04   -0.72167E-04  2368   0.548E-02    0.560E-02
DAV:  10    -0.135843093176E+04    0.29502E-05   -0.44185E-04  2472   0.369E-02    0.333E-02
DAV:  11    -0.135843092630E+04    0.54662E-05   -0.16019E-04  2472   0.263E-02    0.136E-02
DAV:  12    -0.135843093032E+04   -0.40252E-05   -0.58700E-05  2400   0.157E-02    0.139E-02
DAV:  13    -0.135843092858E+04    0.17473E-05   -0.29985E-05  2056   0.103E-02    0.661E-03
DAV:  14    -0.135843092904E+04   -0.46524E-06   -0.10659E-05  1792   0.644E-03    0.497E-03
DAV:  15    -0.135843092894E+04    0.99433E-07   -0.95821E-07  1016   0.375E-03
   8 F= -.13584309E+04 E0= -.13584309E+04  d E =-.105332E+01
 BRION: g(F)=  0.503E+00 g(S)=  0.000E+00 retain N=  6 mean eig= 1.19
 eig:   2.792  2.792  0.268  0.153  0.577  0.577
 bond charge predicted
       N       E                     dE             d eps       ncg     rms          rms(c)
DAV:   1    -0.135864755965E+04   -0.21663E+00   -0.81302E+01  1368   0.128E+01    0.162E+00
DAV:   2    -0.135905530385E+04   -0.40774E+00   -0.42981E+00  2280   0.484E+00    0.837E-01
DAV:   3    -0.135907611571E+04   -0.20812E-01   -0.33084E-01  2600   0.984E-01    0.689E-01
DAV:   4    -0.135906893483E+04    0.71809E-02   -0.38340E-02  2576   0.455E-01    0.446E-01
DAV:   5    -0.135906448552E+04    0.44493E-02   -0.19808E-02  2352   0.294E-01    0.174E-01
DAV:   6    -0.135906510580E+04   -0.62028E-03   -0.11420E-02  2496   0.203E-01    0.153E-01
DAV:   7    -0.135906499092E+04    0.11488E-03   -0.38943E-03  2488   0.122E-01    0.107E-01
DAV:   8    -0.135906495495E+04    0.35976E-04   -0.19761E-03  2592   0.788E-02    0.524E-02
DAV:   9    -0.135906493592E+04    0.19021E-04   -0.31636E-04  2432   0.398E-02    0.384E-02
DAV:  10    -0.135906493727E+04   -0.13444E-05   -0.21192E-04  2384   0.266E-02    0.222E-02
DAV:  11    -0.135906493546E+04    0.18120E-05   -0.61859E-05  2384   0.179E-02    0.100E-02
DAV:  12    -0.135906493827E+04   -0.28086E-05   -0.37276E-05  2352   0.114E-02    0.113E-02
DAV:  13    -0.135906493650E+04    0.17684E-05   -0.13138E-05  1744   0.774E-03    0.476E-03
DAV:  14    -0.135906493645E+04    0.48312E-07   -0.34786E-06  1184   0.549E-03
   9 F= -.13590649E+04 E0= -.13590649E+04  d E =-.634008E+00
 BRION: g(F)=  0.468E+00 g(S)=  0.000E+00 retain N=  7 mean eig= 1.54
 eig:   3.946  3.946  0.964  0.612  0.612  0.140  0.544
 bond charge predicted
       N       E                     dE             d eps       ncg     rms          rms(c)
DAV:   1    -0.135927788285E+04   -0.21295E+00   -0.67934E+01  1384   0.118E+01    0.142E+00
DAV:   2    -0.135962456673E+04   -0.34668E+00   -0.36512E+00  2272   0.448E+00    0.723E-01
DAV:   3    -0.135964475746E+04   -0.20191E-01   -0.28887E-01  2616   0.920E-01    0.591E-01
DAV:   4    -0.135964013893E+04    0.46185E-02   -0.28631E-02  2616   0.410E-01    0.409E-01
DAV:   5    -0.135963611849E+04    0.40204E-02   -0.14828E-02  2336   0.260E-01    0.157E-01
DAV:   6    -0.135963664630E+04   -0.52780E-03   -0.10277E-02  2464   0.189E-01    0.135E-01
DAV:   7    -0.135963660196E+04    0.44332E-04   -0.33717E-03  2456   0.112E-01    0.987E-02
DAV:   8    -0.135963655913E+04    0.42838E-04   -0.15127E-03  2584   0.713E-02    0.490E-02
DAV:   9    -0.135963653909E+04    0.20035E-04   -0.29659E-04  2352   0.368E-02    0.337E-02
DAV:  10    -0.135963654160E+04   -0.25123E-05   -0.11912E-04  2424   0.214E-02    0.192E-02
DAV:  11    -0.135963654136E+04    0.23899E-06   -0.42720E-05  2456   0.140E-02    0.939E-03
DAV:  12    -0.135963654262E+04   -0.12547E-05   -0.19874E-05  2232   0.953E-03    0.924E-03
DAV:  13    -0.135963654179E+04    0.83125E-06   -0.97464E-06  1632   0.643E-03
  10 F= -.13596365E+04 E0= -.13596365E+04  d E =-.571605E+00
 BRION: g(F)=  0.338E+00 g(S)=  0.000E+00 retain N=  8 mean eig= 1.83
 eig:   4.583  4.583  1.540  1.540  0.647  0.647  0.347  0.716
 bond charge predicted
       N       E                     dE             d eps       ncg     rms          rms(c)
DAV:   1    -0.135972118196E+04   -0.84639E-01   -0.10073E+02  1384   0.145E+01    0.176E+00
DAV:   2    -0.136025059150E+04   -0.52941E+00   -0.56176E+00  2296   0.564E+00    0.891E-01
DAV:   3    -0.136028259808E+04   -0.32007E-01   -0.45407E-01  2608   0.113E+00    0.740E-01
DAV:   4    -0.136027608374E+04    0.65143E-02   -0.45267E-02  2608   0.519E-01    0.521E-01
DAV:   5    -0.136027010257E+04    0.59812E-02   -0.23774E-02  2344   0.312E-01    0.213E-01
DAV:   6    -0.136027067435E+04   -0.57179E-03   -0.15469E-02  2464   0.234E-01    0.170E-01
DAV:   7    -0.136027060493E+04    0.69420E-04   -0.63483E-03  2440   0.153E-01    0.121E-01
DAV:   8    -0.136027057516E+04    0.29772E-04   -0.27554E-03  2560   0.978E-02    0.668E-02
DAV:   9    -0.136027054434E+04    0.30818E-04   -0.52054E-04  2448   0.491E-02    0.465E-02
DAV:  10    -0.136027054830E+04   -0.39581E-05   -0.22836E-04  2480   0.277E-02    0.258E-02
DAV:  11    -0.136027055165E+04   -0.33506E-05   -0.83495E-05  2440   0.190E-02    0.162E-02
DAV:  12    -0.136027055041E+04    0.12376E-05   -0.36749E-05  2360   0.141E-02    0.130E-02
DAV:  13    -0.136027054962E+04    0.79286E-06   -0.32625E-05  2136   0.987E-03    0.685E-03
DAV:  14    -0.136027054938E+04    0.24287E-06   -0.46833E-06  1280   0.563E-03
  11 F= -.13602705E+04 E0= -.13602705E+04  d E =-.634008E+00
 BRION: g(F)=  0.231E+00 g(S)=  0.000E+00 retain N=  9 mean eig= 2.65
 eig:   6.711  6.711  3.423  3.423  0.691  0.691  0.932  0.932  0.339
 bond charge predicted
       N       E                     dE             d eps       ncg     rms          rms(c)
DAV:   1    -0.136043874276E+04   -0.16819E+00   -0.41866E+01  1392   0.934E+00    0.115E+00
DAV:   2    -0.136066783893E+04   -0.22910E+00   -0.24296E+00  2272   0.379E+00    0.585E-01
DAV:   3    -0.136068125128E+04   -0.13412E-01   -0.19514E-01  2616   0.752E-01    0.483E-01
DAV:   4    -0.136067810148E+04    0.31498E-02   -0.19454E-02  2624   0.342E-01    0.341E-01
DAV:   5    -0.136067507925E+04    0.30222E-02   -0.10004E-02  2344   0.214E-01    0.136E-01
DAV:   6    -0.136067532859E+04   -0.24934E-03   -0.79170E-03  2416   0.169E-01    0.110E-01
DAV:   7    -0.136067532754E+04    0.10494E-05   -0.30705E-03  2424   0.104E-01    0.856E-02
DAV:   8    -0.136067530740E+04    0.20137E-04   -0.11104E-03  2616   0.623E-02    0.441E-02
DAV:   9    -0.136067528754E+04    0.19868E-04   -0.26365E-04  2440   0.334E-02    0.287E-02
DAV:  10    -0.136067529213E+04   -0.45988E-05   -0.10541E-04  2440   0.197E-02    0.186E-02
DAV:  11    -0.136067529162E+04    0.51163E-06   -0.44362E-05  2376   0.138E-02    0.108E-02
DAV:  12    -0.136067529175E+04   -0.12408E-06   -0.19461E-05  2216   0.101E-02    0.996E-03
DAV:  13    -0.136067529082E+04    0.92633E-06   -0.14844E-05  1776   0.724E-03    0.477E-03
DAV:  14    -0.136067529063E+04    0.19379E-06   -0.24893E-06  1056   0.499E-03
  12 F= -.13606753E+04 E0= -.13606753E+04  d E =-.404741E+00
 BRION: g(F)=  0.168E+00 g(S)=  0.000E+00 retain N=  9 mean eig= 2.28
 eig:   4.517  4.517  3.192  3.192  1.415  1.415  0.736  0.736  0.777
 bond charge predicted
       N       E                     dE             d eps       ncg     rms          rms(c)
DAV:   1    -0.136083502759E+04   -0.15974E+00   -0.14917E+01  1392   0.557E+00    0.689E-01
DAV:   2    -0.136091826985E+04   -0.83242E-01   -0.88963E-01  2304   0.230E+00    0.352E-01
DAV:   3    -0.136092321795E+04   -0.49481E-02   -0.71889E-02  2600   0.447E-01    0.293E-01
DAV:   4    -0.136092209225E+04    0.11257E-02   -0.72079E-03  2616   0.207E-01    0.207E-01
DAV:   5    -0.136092103259E+04    0.10597E-02   -0.40967E-03  2288   0.130E-01    0.820E-02
DAV:   6    -0.136092115905E+04   -0.12646E-03   -0.27605E-03  2440   0.986E-02    0.733E-02
DAV:   7    -0.136092113540E+04    0.23654E-04   -0.10985E-03  2432   0.613E-02    0.514E-02
DAV:   8    -0.136092112899E+04    0.64041E-05   -0.44186E-04  2552   0.395E-02    0.261E-02
DAV:   9    -0.136092112245E+04    0.65466E-05   -0.87376E-05  2256   0.198E-02    0.181E-02
DAV:  10    -0.136092112371E+04   -0.12586E-05   -0.36573E-05  2360   0.114E-02    0.106E-02
DAV:  11    -0.136092112346E+04    0.24842E-06   -0.11938E-05  1832   0.812E-03    0.599E-03
DAV:  12    -0.136092112391E+04   -0.45002E-06   -0.87213E-06  1664   0.654E-03
  13 F= -.13609211E+04 E0= -.13609211E+04  d E =-.245833E+00
 BRION: g(F)=  0.155E+00 g(S)=  0.000E+00 retain N= 10 mean eig= 2.78
 eig:   6.895  6.895  3.132  3.132  2.293  2.293  0.728  0.728  0.876  0.876
 bond charge predicted
       N       E                     dE             d eps       ncg     rms          rms(c)
DAV:   1    -0.136106441448E+04   -0.14329E+00   -0.44417E+01  1392   0.957E+00    0.115E+00
DAV:   2    -0.136131282144E+04   -0.24841E+00   -0.26339E+00  2328   0.399E+00    0.586E-01
DAV:   3    -0.136132717643E+04   -0.14355E-01   -0.20633E-01  2608   0.766E-01    0.481E-01
DAV:   4    -0.136132409829E+04    0.30781E-02   -0.19335E-02  2624   0.340E-01    0.347E-01
DAV:   5    -0.136132102353E+04    0.30748E-02   -0.10730E-02  2312   0.206E-01    0.137E-01
DAV:   6    -0.136132129953E+04   -0.27600E-03   -0.73642E-03  2408   0.155E-01    0.110E-01
DAV:   7    -0.136132126328E+04    0.36256E-04   -0.30099E-03  2432   0.100E-01    0.784E-02
DAV:   8    -0.136132125489E+04    0.83862E-05   -0.11252E-03  2600   0.651E-02    0.445E-02
DAV:   9    -0.136132124097E+04    0.13924E-04   -0.23762E-04  2416   0.317E-02    0.299E-02
DAV:  10    -0.136132124453E+04   -0.35669E-05   -0.88025E-05  2480   0.178E-02    0.165E-02
DAV:  11    -0.136132124606E+04   -0.15290E-05   -0.37334E-05  2384   0.127E-02    0.109E-02
DAV:  12    -0.136132124534E+04    0.72448E-06   -0.16560E-05  2184   0.969E-03    0.899E-03
DAV:  13    -0.136132124490E+04    0.44188E-06   -0.12916E-05  1808   0.655E-03    0.496E-03
DAV:  14    -0.136132124459E+04    0.30018E-06   -0.16532E-06   960   0.447E-03
  14 F= -.13613212E+04 E0= -.13613212E+04  d E =-.400121E+00
 BRION: g(F)=  0.137E+00 g(S)=  0.000E+00 retain N=  7 mean eig= 3.75
 eig:   7.941  7.941  3.502  3.502  0.852  1.266  1.266
 bond charge predicted
       N       E                     dE             d eps       ncg     rms          rms(c)
DAV:   1    -0.136146430625E+04   -0.14306E+00   -0.23951E+01  1384   0.697E+00    0.841E-01
DAV:   2    -0.136159539849E+04   -0.13109E+00   -0.13857E+00  2288   0.286E+00    0.421E-01
DAV:   3    -0.136160301432E+04   -0.76158E-02   -0.11027E-01  2592   0.555E-01    0.347E-01
DAV:   4    -0.136160129094E+04    0.17234E-02   -0.10258E-02  2600   0.246E-01    0.252E-01
DAV:   5    -0.136159944851E+04    0.18424E-02   -0.54636E-03  2320   0.156E-01    0.105E-01
DAV:   6    -0.136159953128E+04   -0.82769E-04   -0.47601E-03  2336   0.130E-01    0.785E-02
DAV:   7    -0.136159955234E+04   -0.21064E-04   -0.19781E-03  2384   0.808E-02    0.652E-02
DAV:   8    -0.136159954193E+04    0.10416E-04   -0.59163E-04  2592   0.467E-02    0.358E-02
DAV:   9    -0.136159952383E+04    0.18094E-04   -0.19418E-04  2472   0.273E-02    0.213E-02
DAV:  10    -0.136159952783E+04   -0.40028E-05   -0.67700E-05  2496   0.161E-02    0.156E-02
DAV:  11    -0.136159952707E+04    0.75992E-06   -0.34204E-05  2240   0.115E-02    0.947E-03
DAV:  12    -0.136159952677E+04    0.30921E-06   -0.12751E-05  1904   0.896E-03    0.837E-03
DAV:  13    -0.136159952631E+04    0.46048E-06   -0.12477E-05  1696   0.657E-03    0.429E-03
DAV:  14    -0.136159952605E+04    0.25198E-06   -0.19298E-06  1008   0.484E-03
  15 F= -.13615995E+04 E0= -.13615995E+04  d E =-.278281E+00
 BRION: g(F)=  0.124E+00 g(S)=  0.000E+00 retain N=  5 mean eig= 4.28
 eig:   7.945  7.945  2.077  2.077  1.343
 bond charge predicted
       N       E                     dE             d eps       ncg     rms          rms(c)
DAV:   1    -0.136172293283E+04   -0.12341E+00   -0.14299E+01  1384   0.538E+00    0.622E-01
DAV:   2    -0.136179956011E+04   -0.76627E-01   -0.80733E-01  2304   0.219E+00    0.315E-01
DAV:   3    -0.136180427371E+04   -0.47136E-02   -0.64530E-02  2600   0.415E-01    0.260E-01
DAV:   4    -0.136180346016E+04    0.81355E-03   -0.55193E-03  2616   0.181E-01    0.193E-01
DAV:   5    -0.136180248180E+04    0.97836E-03   -0.31955E-03  2296   0.110E-01    0.787E-02
DAV:   6    -0.136180255977E+04   -0.77966E-04   -0.23704E-03  2336   0.869E-02    0.620E-02
DAV:   7    -0.136180254672E+04    0.13045E-04   -0.10296E-03  2424   0.573E-02    0.457E-02
DAV:   8    -0.136180253908E+04    0.76388E-05   -0.36103E-04  2512   0.374E-02    0.261E-02
DAV:   9    -0.136180253385E+04    0.52372E-05   -0.83923E-05  2408   0.185E-02    0.169E-02
DAV:  10    -0.136180253474E+04   -0.89167E-06   -0.23401E-05  2376   0.952E-03    0.972E-03
DAV:  11    -0.136180253488E+04   -0.14494E-06   -0.76212E-06  1648   0.653E-03
  16 F= -.13618025E+04 E0= -.13618025E+04  d E =-.203009E+00
 BRION: g(F)=  0.119E+00 g(S)=  0.000E+00 retain N=  4 mean eig= 3.61
 eig:   5.796  5.796  1.419  1.419
 bond charge predicted
       N       E                     dE             d eps       ncg     rms          rms(c)
DAV:   1    -0.136191435676E+04   -0.11182E+00   -0.10175E+01  1384   0.453E+00    0.513E-01
DAV:   2    -0.136196723309E+04   -0.52876E-01   -0.55389E-01  2296   0.179E+00    0.258E-01
DAV:   3    -0.136197049618E+04   -0.32631E-02   -0.44297E-02  2584   0.345E-01    0.210E-01
DAV:   4    -0.136196993827E+04    0.55791E-03   -0.37019E-03  2584   0.146E-01    0.157E-01
DAV:   5    -0.136196920165E+04    0.73661E-03   -0.21582E-03  2240   0.942E-02    0.618E-02
DAV:   6    -0.136196926081E+04   -0.59158E-04   -0.17600E-03  2312   0.754E-02    0.482E-02
DAV:   7    -0.136196926272E+04   -0.19071E-05   -0.63410E-04  2408   0.446E-02    0.373E-02
DAV:   8    -0.136196925677E+04    0.59517E-05   -0.19798E-04  2552   0.277E-02    0.200E-02
DAV:   9    -0.136196925146E+04    0.53049E-05   -0.56589E-05  2264   0.152E-02    0.126E-02
DAV:  10    -0.136196925230E+04   -0.84055E-06   -0.16399E-05  2112   0.801E-03    0.784E-03
DAV:  11    -0.136196925174E+04    0.56534E-06   -0.35056E-06  1168   0.550E-03
  17 F= -.13619693E+04 E0= -.13619693E+04  d E =-.166717E+00
 BRION: g(F)=  0.118E+00 g(S)=  0.000E+00 retain N=  5 mean eig= 3.58
 eig:   6.832  6.832  1.582  1.582  1.095
 bond charge predicted
       N       E                     dE             d eps       ncg     rms          rms(c)
DAV:   1    -0.136208814860E+04   -0.11890E+00   -0.28453E+01  1384   0.754E+00    0.840E-01
DAV:   2    -0.136223601359E+04   -0.14786E+00   -0.15469E+00  2296   0.299E+00    0.428E-01
DAV:   3    -0.136224518430E+04   -0.91707E-02   -0.12341E-01  2576   0.565E-01    0.351E-01
DAV:   4    -0.136224384076E+04    0.13435E-02   -0.10219E-02  2584   0.241E-01    0.268E-01
DAV:   5    -0.136224182934E+04    0.20114E-02   -0.54051E-03  2280   0.146E-01    0.117E-01
DAV:   6    -0.136224184843E+04   -0.19089E-04   -0.48449E-03  2288   0.124E-01    0.743E-02
DAV:   7    -0.136224188187E+04   -0.33439E-04   -0.21163E-03  2408   0.808E-02    0.628E-02
DAV:   8    -0.136224186146E+04    0.20405E-04   -0.57239E-04  2560   0.494E-02    0.369E-02
DAV:   9    -0.136224184884E+04    0.12619E-04   -0.19450E-04  2464   0.267E-02    0.216E-02
DAV:  10    -0.136224185194E+04   -0.31020E-05   -0.51371E-05  2520   0.143E-02    0.142E-02
DAV:  11    -0.136224185219E+04   -0.24731E-06   -0.21421E-05  2112   0.958E-03    0.942E-03
DAV:  12    -0.136224185163E+04    0.56268E-06   -0.14571E-05  1936   0.844E-03    0.746E-03
DAV:  13    -0.136224185142E+04    0.21057E-06   -0.81030E-06  1736   0.579E-03
  18 F= -.13622419E+04 E0= -.13622419E+04  d E =-.272600E+00
 BRION: g(F)=  0.114E+00 g(S)=  0.000E+00 retain N=  5 mean eig= 3.63
 eig:   6.255  6.255  2.160  2.160  1.339
 bond charge predicted
       N       E                     dE             d eps       ncg     rms          rms(c)
DAV:   1    -0.136236842849E+04   -0.12658E+00   -0.12972E+01  1384   0.510E+00    0.578E-01
DAV:   2    -0.136243656321E+04   -0.68135E-01   -0.71412E-01  2288   0.202E+00    0.291E-01
DAV:   3    -0.136244086470E+04   -0.43015E-02   -0.57897E-02  2576   0.388E-01    0.237E-01
DAV:   4    -0.136244018801E+04    0.67669E-03   -0.49767E-03  2600   0.167E-01    0.175E-01
DAV:   5    -0.136243933352E+04    0.85449E-03   -0.24471E-03  2320   0.988E-02    0.744E-02
DAV:   6    -0.136243935287E+04   -0.19353E-04   -0.19869E-03  2312   0.799E-02    0.479E-02
DAV:   7    -0.136243936551E+04   -0.12642E-04   -0.87074E-04  2440   0.524E-02    0.397E-02
DAV:   8    -0.136243935844E+04    0.70709E-05   -0.24123E-04  2528   0.319E-02    0.240E-02
DAV:   9    -0.136243935428E+04    0.41626E-05   -0.77167E-05  2488   0.170E-02    0.145E-02
DAV:  10    -0.136243935528E+04   -0.10045E-05   -0.21798E-05  2344   0.931E-03    0.907E-03
DAV:  11    -0.136243935518E+04    0.10335E-06   -0.45014E-06  1240   0.633E-03
  19 F= -.13624394E+04 E0= -.13624394E+04  d E =-.197504E+00
 BRION: g(F)=  0.111E+00 g(S)=  0.000E+00 retain N=  6 mean eig= 4.10
 eig:   7.952  7.952  2.891  2.891  1.445  1.445
 bond charge predicted
       N       E                     dE             d eps       ncg     rms          rms(c)
DAV:   1    -0.136255450144E+04   -0.11515E+00   -0.11264E+01  1376   0.473E+00    0.535E-01
DAV:   2    -0.136261209664E+04   -0.57595E-01   -0.60289E-01  2296   0.184E+00    0.270E-01
DAV:   3    -0.136261568618E+04   -0.35895E-02   -0.48803E-02  2568   0.354E-01    0.216E-01
DAV:   4    -0.136261501375E+04    0.67243E-03   -0.43099E-03  2584   0.153E-01    0.154E-01
DAV:   5    -0.136261433155E+04    0.68219E-03   -0.22954E-03  2280   0.937E-02    0.557E-02
DAV:   6    -0.136261440301E+04   -0.71457E-04   -0.14454E-03  2432   0.665E-02    0.442E-02
DAV:   7    -0.136261440209E+04    0.92285E-06   -0.47819E-04  2456   0.406E-02    0.306E-02
DAV:   8    -0.136261439946E+04    0.26286E-05   -0.15157E-04  2544   0.242E-02    0.171E-02
DAV:   9    -0.136261439813E+04    0.13303E-05   -0.34274E-05  2328   0.124E-02    0.122E-02
DAV:  10    -0.136261439839E+04   -0.25997E-06   -0.13143E-05  1912   0.756E-03    0.587E-03
DAV:  11    -0.136261439830E+04    0.84241E-07   -0.20461E-06  1024   0.534E-03
  20 F= -.13626144E+04 E0= -.13626144E+04  d E =-.175043E+00
 BRION: g(F)=  0.111E+00 g(S)=  0.000E+00 retain N=  5 mean eig= 4.01
 eig:   7.600  7.600  2.108  1.359  1.359
