 running on  160 total cores
 distrk:  each k-point on  160 cores,    1 groups
 distr:  one band on   20 cores,    8 groups
 using from now: INCAR     
 vasp.5.4.4.18Apr17-6-g9f103f2a35 (build May 01 2020 14:22:42) gamma-only       
  
 POSCAR found type information on POSCAR  O  La Zr Li Al
 POSCAR found :  5 types and     186 ions
 scaLAPACK will be used
 LDA part: xc-table for Pade appr. of Perdew
 POSCAR, INCAR and KPOINTS ok, starting setup
 FFT: planning ...
 WAVECAR not read
 WARNING: random wavefunctions but no delay for mixing, default for NELMDL
 entering main loop
       N       E                     dE             d eps       ncg     rms          rms(c)
DAV:   1     0.252564846122E+05    0.25256E+05   -0.42164E+05  1608   0.253E+03
DAV:   2     0.952243572454E+04   -0.15734E+05   -0.14552E+05  1440   0.712E+02
DAV:   3     0.274412424684E+04   -0.67783E+04   -0.61783E+04  1528   0.356E+02
DAV:   4    -0.340324343545E+03   -0.30844E+04   -0.28732E+04  2040   0.222E+02
DAV:   5    -0.140066405108E+04   -0.10603E+04   -0.10171E+04  2536   0.142E+02    0.116E+02
DAV:   6    -0.129959681752E+04    0.10107E+03   -0.14902E+03  2424   0.655E+01    0.502E+01
DAV:   7    -0.132089808285E+04   -0.21301E+02   -0.38583E+02  2552   0.340E+01    0.252E+01
DAV:   8    -0.132928287618E+04   -0.83848E+01   -0.26812E+02  2512   0.271E+01    0.263E+01
DAV:   9    -0.132185019032E+04    0.74327E+01   -0.58089E+01  2496   0.153E+01    0.735E+00
DAV:  10    -0.132295135703E+04   -0.11012E+01   -0.14820E+01  2624   0.821E+00    0.741E+00
DAV:  11    -0.132317371424E+04   -0.22236E+00   -0.69913E+00  2624   0.454E+00    0.398E+00
DAV:  12    -0.132300068986E+04    0.17302E+00   -0.26097E+00  2552   0.364E+00    0.255E+00
DAV:  13    -0.132307234679E+04   -0.71657E-01   -0.82653E-01  2560   0.172E+00    0.181E+00
DAV:  14    -0.132305746288E+04    0.14884E-01   -0.29108E-01  2624   0.111E+00    0.102E+00
DAV:  15    -0.132306569790E+04   -0.82350E-02   -0.89613E-02  2560   0.612E-01    0.891E-01
DAV:  16    -0.132306538460E+04    0.31330E-03   -0.32979E-02  2624   0.342E-01    0.563E-01
DAV:  17    -0.132306209595E+04    0.32887E-02   -0.26108E-02  2456   0.312E-01    0.253E-01
DAV:  18    -0.132306252850E+04   -0.43255E-03   -0.55391E-03  2536   0.162E-01    0.137E-01
DAV:  19    -0.132306245796E+04    0.70538E-04   -0.18964E-03  2568   0.885E-02    0.913E-02
DAV:  20    -0.132306249112E+04   -0.33162E-04   -0.55995E-04  2624   0.473E-02    0.320E-02
DAV:  21    -0.132306250102E+04   -0.98980E-05   -0.13686E-04  2624   0.251E-02    0.280E-02
DAV:  22    -0.132306251458E+04   -0.13558E-04   -0.49517E-05  2456   0.150E-02    0.137E-02
DAV:  23    -0.132306251294E+04    0.16390E-05   -0.15578E-05  1544   0.828E-03    0.108E-02
DAV:  24    -0.132306251644E+04   -0.35043E-05   -0.75772E-06  1320   0.663E-03    0.407E-03
DAV:  25    -0.132306251597E+04    0.47244E-06   -0.27924E-06  1008   0.454E-03
   1 F= -.13230625E+04 E0= -.13230625E+04  d E =-.132306E+04
 BRION: g(F)=  0.746E+02 g(S)=  0.000E+00
 bond charge predicted
       N       E                     dE             d eps       ncg     rms          rms(c)
DAV:   1    -0.128316992712E+04    0.39893E+02   -0.73083E+03  1720   0.126E+02    0.284E+01
DAV:   2    -0.133968525732E+04   -0.56515E+02   -0.64514E+02  2576   0.581E+01    0.157E+01
DAV:   3    -0.133678188088E+04    0.29034E+01   -0.36507E+01  2592   0.153E+01    0.103E+01
DAV:   4    -0.133440312020E+04    0.23788E+01   -0.15849E+01  2360   0.805E+00    0.476E+00
DAV:   5    -0.133426810703E+04    0.13501E+00   -0.43979E+00  2512   0.455E+00    0.334E+00
DAV:   6    -0.133415633705E+04    0.11177E+00   -0.27874E+00  2544   0.287E+00    0.195E+00
DAV:   7    -0.133411790038E+04    0.38437E-01   -0.45064E-01  2552   0.175E+00    0.132E+00
DAV:   8    -0.133411416535E+04    0.37350E-02   -0.59223E-01  2360   0.126E+00    0.807E-01
DAV:   9    -0.133411352602E+04    0.63933E-03   -0.94889E-02  2536   0.661E-01    0.630E-01
DAV:  10    -0.133410979807E+04    0.37280E-02   -0.37772E-02  2616   0.347E-01    0.268E-01
DAV:  11    -0.133411048852E+04   -0.69045E-03   -0.22588E-02  2616   0.250E-01    0.172E-01
DAV:  12    -0.133411030561E+04    0.18291E-03   -0.33173E-03  2560   0.135E-01    0.991E-02
DAV:  13    -0.133411030037E+04    0.52410E-05   -0.16707E-03  2624   0.682E-02    0.335E-02
DAV:  14    -0.133411030869E+04   -0.83232E-05   -0.21246E-04  2616   0.319E-02    0.188E-02
DAV:  15    -0.133411031387E+04   -0.51764E-05   -0.83071E-05  2624   0.166E-02    0.765E-03
DAV:  16    -0.133411031551E+04   -0.16424E-05   -0.14504E-05  1888   0.937E-03    0.504E-03
DAV:  17    -0.133411031611E+04   -0.60257E-06   -0.10280E-05  1808   0.626E-03    0.445E-03
DAV:  18    -0.133411031593E+04    0.18388E-06   -0.16197E-06  1048   0.472E-03
   2 F= -.13341103E+04 E0= -.13341103E+04  d E =-.110478E+02
 BRION: g(F)=  0.251E+03 g(S)=  0.000E+00 retain N=  1 mean eig= 0.31
 eig:   0.305
 bond charge predicted
       N       E                     dE             d eps       ncg     rms          rms(c)
DAV:   1    -0.132081622483E+04    0.13294E+02   -0.29573E+03  1328   0.631E+01    0.237E+01
DAV:   2    -0.135576836733E+04   -0.34952E+02   -0.46388E+02  2496   0.328E+01    0.207E+01
DAV:   3    -0.135104180474E+04    0.47266E+01   -0.44782E+01  2432   0.133E+01    0.142E+01
DAV:   4    -0.134796898317E+04    0.30728E+01   -0.35222E+01  2120   0.705E+00    0.545E+00
DAV:   5    -0.134867245616E+04   -0.70347E+00   -0.82125E+00  2504   0.449E+00    0.685E+00
DAV:   6    -0.134779318862E+04    0.87927E+00   -0.64246E+00  2528   0.336E+00    0.139E+00
DAV:   7    -0.134792094222E+04   -0.12775E+00   -0.14664E+00  2544   0.227E+00    0.176E+00
DAV:   8    -0.134786711193E+04    0.53830E-01   -0.25390E-01  2536   0.107E+00    0.973E-01
DAV:   9    -0.134786172433E+04    0.53876E-02   -0.16039E-01  2480   0.639E-01    0.269E-01
DAV:  10    -0.134786333323E+04   -0.16089E-02   -0.17845E-02  2528   0.297E-01    0.160E-01
DAV:  11    -0.134786314595E+04    0.18728E-03   -0.43412E-03  2624   0.129E-01    0.110E-01
DAV:  12    -0.134786327273E+04   -0.12677E-03   -0.47339E-03  2624   0.109E-01    0.873E-02
DAV:  13    -0.134786324447E+04    0.28257E-04   -0.62664E-04  2568   0.568E-02    0.676E-02
DAV:  14    -0.134786319553E+04    0.48942E-04   -0.54822E-04  2536   0.372E-02    0.250E-02
DAV:  15    -0.134786320082E+04   -0.52946E-05   -0.17427E-04  2504   0.240E-02    0.142E-02
DAV:  16    -0.134786319931E+04    0.15123E-05   -0.27334E-05  2440   0.117E-02    0.725E-03
DAV:  17    -0.134786319951E+04   -0.19472E-06   -0.11827E-05  1952   0.641E-03    0.303E-03
DAV:  18    -0.134786319945E+04    0.54322E-07   -0.87416E-07  1008   0.364E-03
   3 F= -.13478632E+04 E0= -.13478632E+04  d E =-.137529E+02
 BRION: g(F)=  0.173E+02 g(S)=  0.000E+00 retain N=  2 mean eig= 3.03
 eig:   0.190  5.864
 bond charge predicted
       N       E                     dE             d eps       ncg     rms          rms(c)
DAV:   1    -0.134824611256E+04   -0.38291E+00   -0.75458E+02  1400   0.384E+01    0.728E+00
DAV:   2    -0.135254925577E+04   -0.43031E+01   -0.50562E+01  2272   0.158E+01    0.407E+00
DAV:   3    -0.135264619253E+04   -0.96937E-01   -0.43535E+00  2608   0.444E+00    0.349E+00
DAV:   4    -0.135248892183E+04    0.15727E+00   -0.90170E-01  2520   0.200E+00    0.195E+00
DAV:   5    -0.135243794313E+04    0.50979E-01   -0.51638E-01  2232   0.145E+00    0.121E+00
DAV:   6    -0.135242937709E+04    0.85660E-02   -0.26918E-01  2488   0.103E+00    0.911E-01
DAV:   7    -0.135242534540E+04    0.40317E-02   -0.16004E-01  2464   0.695E-01    0.500E-01
DAV:   8    -0.135242405190E+04    0.12935E-02   -0.20133E-02  2592   0.320E-01    0.312E-01
DAV:   9    -0.135242374728E+04    0.30461E-03   -0.11245E-02  2576   0.190E-01    0.155E-01
DAV:  10    -0.135242385675E+04   -0.10947E-03   -0.27861E-03  2248   0.114E-01    0.118E-01
DAV:  11    -0.135242372001E+04    0.13674E-03   -0.20123E-03  2512   0.779E-02    0.423E-02
DAV:  12    -0.135242373532E+04   -0.15316E-04   -0.46568E-04  2488   0.471E-02    0.311E-02
DAV:  13    -0.135242374037E+04   -0.50486E-05   -0.21126E-04  2528   0.260E-02    0.200E-02
DAV:  14    -0.135242373953E+04    0.84155E-06   -0.84513E-05  2496   0.171E-02    0.121E-02
DAV:  15    -0.135242373981E+04   -0.27705E-06   -0.33527E-05  2416   0.109E-02    0.678E-03
DAV:  16    -0.135242373948E+04    0.32508E-06   -0.42092E-06  1200   0.610E-03
   4 F= -.13524237E+04 E0= -.13524237E+04  d E =-.456054E+01
 BRION: g(F)=  0.606E+01 g(S)=  0.000E+00 retain N=  2 mean eig= 0.36
 eig:   0.357  0.357
 bond charge predicted
       N       E                     dE             d eps       ncg     rms          rms(c)
DAV:   1    -0.135347515964E+04   -0.10514E+01   -0.27496E+02  1376   0.230E+01    0.389E+00
DAV:   2    -0.135483790711E+04   -0.13627E+01   -0.14704E+01  2304   0.853E+00    0.194E+00
DAV:   3    -0.135485398248E+04   -0.16075E-01   -0.10174E+00  2616   0.186E+00    0.157E+00
DAV:   4    -0.135479989289E+04    0.54090E-01   -0.27211E-01  2488   0.107E+00    0.724E-01
DAV:   5    -0.135479665768E+04    0.32352E-02   -0.98749E-02  2464   0.648E-01    0.505E-01
DAV:   6    -0.135479620187E+04    0.45581E-03   -0.73946E-02  2544   0.482E-01    0.265E-01
DAV:   7    -0.135479616033E+04    0.41539E-04   -0.12620E-02  2472   0.241E-01    0.226E-01
DAV:   8    -0.135479583521E+04    0.32512E-03   -0.54826E-03  2424   0.125E-01    0.888E-02
DAV:   9    -0.135479591951E+04   -0.84308E-04   -0.21755E-03  2584   0.802E-02    0.730E-02
DAV:  10    -0.135479592337E+04   -0.38595E-05   -0.54998E-04  2280   0.469E-02    0.625E-02
DAV:  11    -0.135479588865E+04    0.34719E-04   -0.44499E-04  2352   0.360E-02    0.276E-02
DAV:  12    -0.135479588768E+04    0.97313E-06   -0.16834E-04  2512   0.239E-02    0.150E-02
DAV:  13    -0.135479588958E+04   -0.18982E-05   -0.37524E-05  2344   0.130E-02    0.100E-02
DAV:  14    -0.135479588928E+04    0.30032E-06   -0.15589E-05  1736   0.722E-03    0.419E-03
DAV:  15    -0.135479588919E+04    0.88185E-07   -0.26375E-06  1064   0.564E-03
   5 F= -.13547959E+04 E0= -.13547959E+04  d E =-.237215E+01
 BRION: g(F)=  0.350E+01 g(S)=  0.000E+00 retain N=  3 mean eig= 0.33
 eig:   0.472  0.261  0.261
 bond charge predicted
       N       E                     dE             d eps       ncg     rms          rms(c)
DAV:   1    -0.135560469740E+04   -0.80881E+00   -0.21894E+02  1360   0.209E+01    0.287E+00
DAV:   2    -0.135670129986E+04   -0.10966E+01   -0.11587E+01  2304   0.773E+00    0.148E+00
DAV:   3    -0.135673810367E+04   -0.36804E-01   -0.81720E-01  2600   0.162E+00    0.128E+00
DAV:   4    -0.135671163008E+04    0.26474E-01   -0.12037E-01  2584   0.757E-01    0.797E-01
DAV:   5    -0.135669532578E+04    0.16304E-01   -0.72870E-02  2280   0.539E-01    0.336E-01
DAV:   6    -0.135669773984E+04   -0.24141E-02   -0.44371E-02  2488   0.393E-01    0.361E-01
DAV:   7    -0.135669633464E+04    0.14052E-02   -0.17819E-02  2448   0.247E-01    0.218E-01
DAV:   8    -0.135669622593E+04    0.10871E-03   -0.71355E-03  2528   0.150E-01    0.958E-02
DAV:   9    -0.135669617702E+04    0.48909E-04   -0.99487E-04  2464   0.694E-02    0.727E-02
DAV:  10    -0.135669620879E+04   -0.31769E-04   -0.74743E-04  2304   0.448E-02    0.511E-02
DAV:  11    -0.135669616006E+04    0.48722E-04   -0.24774E-04  2520   0.363E-02    0.224E-02
DAV:  12    -0.135669617524E+04   -0.15173E-04   -0.27244E-04  2488   0.277E-02    0.264E-02
DAV:  13    -0.135669616466E+04    0.10579E-04   -0.83732E-05  2280   0.175E-02    0.918E-03
DAV:  14    -0.135669616555E+04   -0.89378E-06   -0.13731E-05  1760   0.904E-03    0.553E-03
DAV:  15    -0.135669616534E+04    0.21193E-06   -0.25732E-06  1048   0.467E-03
   6 F= -.13566962E+04 E0= -.13566962E+04  d E =-.190028E+01
 BRION: g(F)=  0.235E+01 g(S)=  0.000E+00 retain N=  4 mean eig= 0.37
 eig:   0.501  0.587  0.345  0.035
 bond charge predicted
       N       E                     dE             d eps       ncg     rms          rms(c)
DAV:   1    -0.135696822102E+04   -0.27206E+00   -0.30521E+02  1368   0.242E+01    0.321E+00
DAV:   2    -0.135852241354E+04   -0.15542E+01   -0.16189E+01  2280   0.907E+00    0.174E+00
DAV:   3    -0.135857563345E+04   -0.53220E-01   -0.11375E+00  2616   0.183E+00    0.147E+00
DAV:   4    -0.135853950301E+04    0.36130E-01   -0.17193E-01  2560   0.863E-01    0.872E-01
DAV:   5    -0.135852101718E+04    0.18486E-01   -0.77597E-02  2368   0.550E-01    0.359E-01
DAV:   6    -0.135852319215E+04   -0.21750E-02   -0.40917E-02  2480   0.371E-01    0.315E-01
DAV:   7    -0.135852218512E+04    0.10070E-02   -0.12944E-02  2464   0.227E-01    0.206E-01
DAV:   8    -0.135852214830E+04    0.36820E-04   -0.78935E-03  2488   0.146E-01    0.956E-02
DAV:   9    -0.135852208808E+04    0.60218E-04   -0.12217E-03  2320   0.716E-02    0.709E-02
DAV:  10    -0.135852207832E+04    0.97563E-05   -0.47704E-04  2392   0.412E-02    0.394E-02
DAV:  11    -0.135852207574E+04    0.25808E-05   -0.17433E-04  2592   0.273E-02    0.182E-02
DAV:  12    -0.135852208001E+04   -0.42676E-05   -0.84400E-05  2416   0.176E-02    0.163E-02
DAV:  13    -0.135852207837E+04    0.16331E-05   -0.35074E-05  2224   0.115E-02    0.827E-03
DAV:  14    -0.135852207849E+04   -0.11135E-06   -0.76112E-06  1512   0.649E-03
   7 F= -.13585221E+04 E0= -.13585221E+04  d E =-.182591E+01
 BRION: g(F)=  0.886E+00 g(S)=  0.000E+00 retain N=  5 mean eig= 0.90
 eig:   1.626  1.626  0.452  0.452  0.368
 bond charge predicted
       N       E                     dE             d eps       ncg     rms          rms(c)
DAV:   1    -0.135878637569E+04   -0.26430E+00   -0.99107E+01  1376   0.140E+01    0.190E+00
DAV:   2    -0.135928146997E+04   -0.49509E+00   -0.52072E+00  2296   0.527E+00    0.994E-01
DAV:   3    -0.135929915781E+04   -0.17688E-01   -0.37196E-01  2616   0.105E+00    0.783E-01
DAV:   4    -0.135928604935E+04    0.13108E-01   -0.63058E-02  2520   0.540E-01    0.404E-01
DAV:   5    -0.135928387722E+04    0.21721E-02   -0.23768E-02  2472   0.316E-01    0.203E-01
DAV:   6    -0.135928426778E+04   -0.39056E-03   -0.10413E-02  2584   0.186E-01    0.113E-01
DAV:   7    -0.135928420588E+04    0.61896E-04   -0.24651E-03  2264   0.106E-01    0.814E-02
DAV:   8    -0.135928424383E+04   -0.37950E-04   -0.12543E-03  2336   0.589E-02    0.434E-02
DAV:   9    -0.135928423131E+04    0.12520E-04   -0.20609E-04  2600   0.338E-02    0.287E-02
DAV:  10    -0.135928423448E+04   -0.31739E-05   -0.22501E-04  2544   0.266E-02    0.209E-02
DAV:  11    -0.135928423194E+04    0.25454E-05   -0.62454E-05  2448   0.167E-02    0.928E-03
DAV:  12    -0.135928423323E+04   -0.12866E-05   -0.25462E-05  2216   0.987E-03    0.628E-03
DAV:  13    -0.135928423274E+04    0.48724E-06   -0.22986E-06  1024   0.570E-03
   8 F= -.13592842E+04 E0= -.13592842E+04  d E =-.762154E+00
 BRION: g(F)=  0.457E+00 g(S)=  0.000E+00 retain N=  6 mean eig= 1.19
 eig:   2.896  2.896  0.148  0.148  0.537  0.537
 bond charge predicted
       N       E                     dE             d eps       ncg     rms          rms(c)
DAV:   1    -0.135936715087E+04   -0.82918E-01   -0.12172E+02  1376   0.156E+01    0.189E+00
DAV:   2    -0.135996979214E+04   -0.60264E+00   -0.63372E+00  2280   0.598E+00    0.977E-01
DAV:   3    -0.136000101989E+04   -0.31228E-01   -0.47825E-01  2592   0.115E+00    0.793E-01
DAV:   4    -0.135999127306E+04    0.97468E-02   -0.53322E-02  2560   0.522E-01    0.499E-01
DAV:   5    -0.135998601894E+04    0.52541E-02   -0.25999E-02  2344   0.321E-01    0.187E-01
DAV:   6    -0.135998694983E+04   -0.93089E-03   -0.12670E-02  2488   0.207E-01    0.160E-01
DAV:   7    -0.135998680685E+04    0.14298E-03   -0.42716E-03  2520   0.129E-01    0.105E-01
DAV:   8    -0.135998680624E+04    0.61614E-06   -0.20884E-03  2624   0.828E-02    0.581E-02
DAV:   9    -0.135998678575E+04    0.20488E-04   -0.32152E-04  2512   0.410E-02    0.440E-02
DAV:  10    -0.135998678690E+04   -0.11533E-05   -0.23931E-04  2504   0.274E-02    0.221E-02
DAV:  11    -0.135998678696E+04   -0.61671E-07   -0.69010E-05  2448   0.185E-02    0.109E-02
DAV:  12    -0.135998678816E+04   -0.11959E-05   -0.23436E-05  2304   0.109E-02    0.102E-02
DAV:  13    -0.135998678717E+04    0.98467E-06   -0.13352E-05  1704   0.736E-03    0.468E-03
DAV:  14    -0.135998678711E+04    0.66080E-07   -0.27697E-06  1104   0.559E-03
   9 F= -.13599868E+04 E0= -.13599868E+04  d E =-.702554E+00
 BRION: g(F)=  0.483E+00 g(S)=  0.000E+00 retain N=  7 mean eig= 1.45
 eig:   3.437  3.437  0.914  0.914  0.476  0.476  0.500
 bond charge predicted
       N       E                     dE             d eps       ncg     rms          rms(c)
DAV:   1    -0.136011605372E+04   -0.12927E+00   -0.86397E+01  1376   0.132E+01    0.156E+00
DAV:   2    -0.136054478257E+04   -0.42873E+00   -0.45151E+00  2288   0.503E+00    0.806E-01
DAV:   3    -0.136056676245E+04   -0.21980E-01   -0.33699E-01  2584   0.984E-01    0.648E-01
DAV:   4    -0.136055981359E+04    0.69489E-02   -0.38628E-02  2552   0.446E-01    0.405E-01
DAV:   5    -0.136055613300E+04    0.36806E-02   -0.17478E-02  2384   0.274E-01    0.157E-01
DAV:   6    -0.136055676622E+04   -0.63322E-03   -0.95443E-03  2472   0.182E-01    0.130E-01
DAV:   7    -0.136055670484E+04    0.61376E-04   -0.32340E-03  2456   0.113E-01    0.915E-02
DAV:   8    -0.136055671007E+04   -0.52312E-05   -0.14948E-03  2568   0.687E-02    0.489E-02
DAV:   9    -0.136055669169E+04    0.18387E-04   -0.27848E-04  2448   0.367E-02    0.361E-02
DAV:  10    -0.136055669416E+04   -0.24793E-05   -0.18697E-04  2472   0.251E-02    0.225E-02
DAV:  11    -0.136055669248E+04    0.16897E-05   -0.65431E-05  2432   0.174E-02    0.109E-02
DAV:  12    -0.136055669393E+04   -0.14589E-05   -0.25570E-05  2296   0.108E-02    0.110E-02
DAV:  13    -0.136055669250E+04    0.14304E-05   -0.15694E-05  1776   0.783E-03    0.466E-03
DAV:  14    -0.136055669248E+04    0.25218E-07   -0.37768E-06  1208   0.560E-03
  10 F= -.13605567E+04 E0= -.13605567E+04  d E =-.569905E+00
 BRION: g(F)=  0.298E+00 g(S)=  0.000E+00 retain N=  8 mean eig= 1.86
 eig:   3.776  3.776  2.443  2.443  0.680  0.680  0.308  0.749
 bond charge predicted
       N       E                     dE             d eps       ncg     rms          rms(c)
DAV:   1    -0.136065836949E+04   -0.10168E+00   -0.69439E+01  1384   0.118E+01    0.138E+00
DAV:   2    -0.136100903755E+04   -0.35067E+00   -0.37006E+00  2288   0.456E+00    0.711E-01
DAV:   3    -0.136102846352E+04   -0.19426E-01   -0.28459E-01  2600   0.870E-01    0.571E-01
DAV:   4    -0.136102341794E+04    0.50456E-02   -0.29230E-02  2576   0.397E-01    0.369E-01
DAV:   5    -0.136102032290E+04    0.30950E-02   -0.12613E-02  2376   0.228E-01    0.139E-01
DAV:   6    -0.136102070577E+04   -0.38287E-03   -0.70789E-03  2432   0.153E-01    0.101E-01
DAV:   7    -0.136102071989E+04   -0.14118E-04   -0.25164E-03  2472   0.975E-02    0.723E-02
DAV:   8    -0.136102072956E+04   -0.96736E-05   -0.92676E-04  2608   0.572E-02    0.415E-02
DAV:   9    -0.136102071920E+04    0.10362E-04   -0.21881E-04  2416   0.316E-02    0.306E-02
DAV:  10    -0.136102072226E+04   -0.30575E-05   -0.12477E-04  2456   0.207E-02    0.191E-02
DAV:  11    -0.136102072106E+04    0.11991E-05   -0.48749E-05  2368   0.148E-02    0.943E-03
DAV:  12    -0.136102072154E+04   -0.48138E-06   -0.18592E-05  2128   0.980E-03    0.818E-03
DAV:  13    -0.136102072093E+04    0.61294E-06   -0.92752E-06  1616   0.635E-03
  11 F= -.13610207E+04 E0= -.13610207E+04  d E =-.464028E+00
 BRION: g(F)=  0.191E+00 g(S)=  0.000E+00 retain N=  9 mean eig= 2.33
 eig:   5.025  5.025  3.737  3.737  0.657  0.657  0.303  0.895  0.895
 bond charge predicted
       N       E                     dE             d eps       ncg     rms          rms(c)
DAV:   1    -0.136109708855E+04   -0.76367E-01   -0.54985E+01  1376   0.106E+01    0.121E+00
DAV:   2    -0.136137844971E+04   -0.28136E+00   -0.29771E+00  2296   0.412E+00    0.635E-01
DAV:   3    -0.136139441456E+04   -0.15965E-01   -0.23052E-01  2584   0.794E-01    0.512E-01
DAV:   4    -0.136139082501E+04    0.35895E-02   -0.23425E-02  2576   0.359E-01    0.349E-01
DAV:   5    -0.136138798529E+04    0.28397E-02   -0.98601E-03  2376   0.207E-01    0.141E-01
DAV:   6    -0.136138814312E+04   -0.15783E-03   -0.66312E-03  2392   0.153E-01    0.905E-02
DAV:   7    -0.136138822379E+04   -0.80667E-04   -0.28131E-03  2424   0.997E-02    0.738E-02
DAV:   8    -0.136138821689E+04    0.69011E-05   -0.84922E-04  2624   0.567E-02    0.430E-02
DAV:   9    -0.136138820561E+04    0.11278E-04   -0.26319E-04  2584   0.329E-02    0.285E-02
DAV:  10    -0.136138821180E+04   -0.61906E-05   -0.11196E-04  2560   0.205E-02    0.204E-02
DAV:  11    -0.136138820998E+04    0.18144E-05   -0.52548E-05  2344   0.147E-02    0.109E-02
DAV:  12    -0.136138820959E+04    0.39025E-06   -0.22159E-05  2272   0.107E-02    0.846E-03
DAV:  13    -0.136138820923E+04    0.36354E-06   -0.11960E-05  1792   0.666E-03    0.429E-03
DAV:  14    -0.136138820911E+04    0.12442E-06   -0.27837E-06  1104   0.499E-03
  12 F= -.13613882E+04 E0= -.13613882E+04  d E =-.367488E+00
 BRION: g(F)=  0.148E+00 g(S)=  0.000E+00 retain N= 10 mean eig= 2.65
 eig:   6.868  6.868  3.853  3.853  1.409  1.409  0.588  0.588  0.305  0.776
 bond charge predicted
       N       E                     dE             d eps       ncg     rms          rms(c)
DAV:   1    -0.136139308978E+04   -0.48805E-02   -0.67419E+01  1384   0.118E+01    0.131E+00
DAV:   2    -0.136173931289E+04   -0.34622E+00   -0.36633E+00  2296   0.461E+00    0.686E-01
DAV:   3    -0.136176023599E+04   -0.20923E-01   -0.28837E-01  2584   0.885E-01    0.549E-01
DAV:   4    -0.136175652181E+04    0.37142E-02   -0.26944E-02  2584   0.394E-01    0.390E-01
DAV:   5    -0.136175299544E+04    0.35264E-02   -0.11820E-02  2376   0.225E-01    0.161E-01
DAV:   6    -0.136175314037E+04   -0.14493E-03   -0.83708E-03  2392   0.170E-01    0.101E-01
DAV:   7    -0.136175325318E+04   -0.11281E-03   -0.36332E-03  2480   0.113E-01    0.806E-02
DAV:   8    -0.136175324152E+04    0.11664E-04   -0.10241E-03  2608   0.652E-02    0.488E-02
DAV:   9    -0.136175322580E+04    0.15719E-04   -0.32709E-04  2496   0.363E-02    0.307E-02
DAV:  10    -0.136175323358E+04   -0.77772E-05   -0.13146E-04  2536   0.224E-02    0.205E-02
DAV:  11    -0.136175323290E+04    0.67256E-06   -0.50891E-05  2416   0.150E-02    0.117E-02
DAV:  12    -0.136175323239E+04    0.51118E-06   -0.25170E-05  2256   0.111E-02    0.925E-03
DAV:  13    -0.136175323187E+04    0.52786E-06   -0.13540E-05  1840   0.714E-03    0.486E-03
DAV:  14    -0.136175323179E+04    0.78435E-07   -0.44009E-06  1288   0.526E-03
  13 F= -.13617532E+04 E0= -.13617532E+04  d E =-.365023E+00
 BRION: g(F)=  0.113E+00 g(S)=  0.000E+00 retain N= 10 mean eig= 2.56
 eig:   6.580  6.580  1.811  1.811  2.442  2.442  0.911  0.911  1.149  0.920
 bond charge predicted
       N       E                     dE             d eps       ncg     rms          rms(c)
DAV:   1    -0.136178308289E+04   -0.29851E-01   -0.45645E+01  1392   0.973E+00    0.112E+00
DAV:   2    -0.136201986054E+04   -0.23678E+00   -0.25082E+00  2296   0.384E+00    0.563E-01
DAV:   3    -0.136203480202E+04   -0.14941E-01   -0.20091E-01  2584   0.737E-01    0.454E-01
DAV:   4    -0.136203244099E+04    0.23610E-02   -0.18100E-02  2592   0.331E-01    0.327E-01
DAV:   5    -0.136203002766E+04    0.24133E-02   -0.88194E-03  2368   0.195E-01    0.133E-01
DAV:   6    -0.136203021031E+04   -0.18265E-03   -0.61297E-03  2392   0.148E-01    0.976E-02
DAV:   7    -0.136203024235E+04   -0.32043E-04   -0.27499E-03  2472   0.976E-02    0.728E-02
DAV:   8    -0.136203023053E+04    0.11816E-04   -0.87819E-04  2600   0.590E-02    0.435E-02
DAV:   9    -0.136203021545E+04    0.15088E-04   -0.23952E-04  2424   0.313E-02    0.279E-02
DAV:  10    -0.136203021998E+04   -0.45325E-05   -0.10423E-04  2456   0.194E-02    0.173E-02
DAV:  11    -0.136203022028E+04   -0.30114E-06   -0.37458E-05  2336   0.134E-02    0.105E-02
DAV:  12    -0.136203021990E+04    0.38365E-06   -0.18712E-05  2184   0.991E-03    0.882E-03
DAV:  13    -0.136203021931E+04    0.58961E-06   -0.12192E-05  1760   0.680E-03    0.443E-03
DAV:  14    -0.136203021911E+04    0.19681E-06   -0.21062E-06   992   0.492E-03
  14 F= -.13620302E+04 E0= -.13620302E+04  d E =-.276987E+00
 BRION: g(F)=  0.900E-01 g(S)=  0.000E+00 retain N=  9 mean eig= 3.38
 eig:   7.650  7.650  4.272  4.272  1.451  1.451  1.063  1.318  1.318
 bond charge predicted
       N       E                     dE             d eps       ncg     rms          rms(c)
DAV:   1    -0.136209037401E+04   -0.60155E-01   -0.15765E+01  1392   0.575E+00    0.650E-01
DAV:   2    -0.136217213978E+04   -0.81766E-01   -0.86671E-01  2304   0.227E+00    0.327E-01
DAV:   3    -0.136217746441E+04   -0.53246E-02   -0.69831E-02  2568   0.439E-01    0.269E-01
DAV:   4    -0.136217680579E+04    0.65862E-03   -0.62407E-03  2592   0.193E-01    0.204E-01
DAV:   5    -0.136217587575E+04    0.93004E-03   -0.33435E-03  2344   0.118E-01    0.880E-02
DAV:   6    -0.136217591709E+04   -0.41340E-04   -0.25232E-03  2320   0.959E-02    0.662E-02
DAV:   7    -0.136217592449E+04   -0.73990E-05   -0.12269E-03  2512   0.650E-02    0.489E-02
DAV:   8    -0.136217591616E+04    0.83216E-05   -0.38077E-04  2536   0.395E-02    0.282E-02
DAV:   9    -0.136217590950E+04    0.66692E-05   -0.98473E-05  2392   0.199E-02    0.175E-02
DAV:  10    -0.136217591109E+04   -0.15950E-05   -0.38042E-05  2464   0.117E-02    0.104E-02
DAV:  11    -0.136217591146E+04   -0.37144E-06   -0.11750E-05  1784   0.800E-03    0.726E-03
DAV:  12    -0.136217591124E+04    0.22211E-06   -0.75748E-06  1520   0.689E-03
  15 F= -.13621759E+04 E0= -.13621759E+04  d E =-.145692E+00
 BRION: g(F)=  0.825E-01 g(S)=  0.000E+00 retain N=  7 mean eig= 4.08
 eig:   7.818  7.818  4.223  4.223  1.609  1.609  1.240
 bond charge predicted
       N       E                     dE             d eps       ncg     rms          rms(c)
DAV:   1    -0.136224633487E+04   -0.70423E-01   -0.12494E+01  1384   0.510E+00    0.571E-01
DAV:   2    -0.136231162371E+04   -0.65289E-01   -0.68753E-01  2304   0.203E+00    0.284E-01
DAV:   3    -0.136231583822E+04   -0.42145E-02   -0.54335E-02  2584   0.385E-01    0.233E-01
DAV:   4    -0.136231535789E+04    0.48033E-03   -0.45035E-03  2616   0.166E-01    0.180E-01
DAV:   5    -0.136231457540E+04    0.78249E-03   -0.24532E-03  2336   0.108E-01    0.796E-02
DAV:   6    -0.136231460940E+04   -0.33998E-04   -0.22377E-03  2328   0.902E-02    0.599E-02
DAV:   7    -0.136231461197E+04   -0.25647E-05   -0.97432E-04  2472   0.580E-02    0.458E-02
DAV:   8    -0.136231460500E+04    0.69664E-05   -0.29729E-04  2520   0.354E-02    0.262E-02
DAV:   9    -0.136231459603E+04    0.89694E-05   -0.95298E-05  2272   0.187E-02    0.147E-02
DAV:  10    -0.136231459838E+04   -0.23518E-05   -0.36692E-05  2344   0.115E-02    0.998E-03
DAV:  11    -0.136231459776E+04    0.62166E-06   -0.76347E-06  1456   0.744E-03
  16 F= -.13623146E+04 E0= -.13623146E+04  d E =-.138687E+00
 BRION: g(F)=  0.773E-01 g(S)=  0.000E+00 retain N=  4 mean eig= 4.04
 eig:   6.305  6.305  1.778  1.778
 bond charge predicted
       N       E                     dE             d eps       ncg     rms          rms(c)
DAV:   1    -0.136238004465E+04   -0.65446E-01   -0.16915E+01  1384   0.591E+00    0.647E-01
DAV:   2    -0.136246730977E+04   -0.87265E-01   -0.91711E-01  2296   0.233E+00    0.319E-01
DAV:   3    -0.136247311040E+04   -0.58006E-02   -0.73372E-02  2568   0.449E-01    0.264E-01
DAV:   4    -0.136247262168E+04    0.48872E-03   -0.60364E-03  2608   0.189E-01    0.210E-01
DAV:   5    -0.136247157552E+04    0.10462E-02   -0.29612E-03  2376   0.119E-01    0.102E-01
DAV:   6    -0.136247151730E+04    0.58216E-04   -0.30889E-03  2240   0.108E-01    0.649E-02
DAV:   7    -0.136247154763E+04   -0.30332E-04   -0.15607E-03  2416   0.721E-02    0.549E-02
DAV:   8    -0.136247154093E+04    0.67029E-05   -0.38218E-04  2488   0.423E-02    0.367E-02
DAV:   9    -0.136247152223E+04    0.18700E-04   -0.15842E-04  2368   0.237E-02    0.186E-02
DAV:  10    -0.136247152690E+04   -0.46742E-05   -0.71468E-05  2432   0.158E-02    0.122E-02
DAV:  11    -0.136247152736E+04   -0.45927E-06   -0.17617E-05  1808   0.917E-03    0.100E-02
DAV:  12    -0.136247152683E+04    0.53408E-06   -0.13266E-05  1872   0.865E-03    0.913E-03
DAV:  13    -0.136247152593E+04    0.89915E-06   -0.10712E-05  1664   0.664E-03    0.486E-03
DAV:  14    -0.136247152570E+04    0.23244E-06   -0.15048E-06   944   0.454E-03
  17 F= -.13624715E+04 E0= -.13624715E+04  d E =-.156928E+00
 BRION: g(F)=  0.752E-01 g(S)=  0.000E+00 retain N=  4 mean eig= 4.40
 eig:   7.385  7.385  1.418  1.418
 bond charge predicted
       N       E                     dE             d eps       ncg     rms          rms(c)
DAV:   1    -0.136253734164E+04   -0.65816E-01   -0.73814E+00  1384   0.391E+00    0.429E-01
DAV:   2    -0.136257546141E+04   -0.38120E-01   -0.40055E-01  2304   0.154E+00    0.214E-01
DAV:   3    -0.136257794578E+04   -0.24844E-02   -0.31902E-02  2568   0.298E-01    0.176E-01
DAV:   4    -0.136257770039E+04    0.24539E-03   -0.26780E-03  2616   0.125E-01    0.138E-01
DAV:   5    -0.136257724204E+04    0.45834E-03   -0.13738E-03  2360   0.805E-02    0.644E-02
DAV:   6    -0.136257723327E+04    0.87729E-05   -0.13130E-03  2248   0.699E-02    0.444E-02
DAV:   7    -0.136257724260E+04   -0.93289E-05   -0.64267E-04  2440   0.466E-02    0.368E-02
DAV:   8    -0.136257723716E+04    0.54390E-05   -0.17485E-04  2480   0.280E-02    0.229E-02
DAV:   9    -0.136257723046E+04    0.66955E-05   -0.66026E-05  2288   0.152E-02    0.119E-02
DAV:  10    -0.136257723226E+04   -0.17988E-05   -0.27726E-05  2208   0.993E-03    0.786E-03
DAV:  11    -0.136257723205E+04    0.20866E-06   -0.43907E-06  1216   0.638E-03
  18 F= -.13625772E+04 E0= -.13625772E+04  d E =-.105706E+00
 BRION: g(F)=  0.734E-01 g(S)=  0.000E+00 retain N=  4 mean eig= 2.97
 eig:   4.830  4.830  1.106  1.106
 bond charge predicted
       N       E                     dE             d eps       ncg     rms          rms(c)
DAV:   1    -0.136264300731E+04   -0.65775E-01   -0.59476E+00  1376   0.349E+00    0.389E-01
DAV:   2    -0.136267343251E+04   -0.30425E-01   -0.31945E-01  2296   0.137E+00    0.191E-01
DAV:   3    -0.136267540022E+04   -0.19677E-02   -0.25379E-02  2552   0.264E-01    0.155E-01
DAV:   4    -0.136267518024E+04    0.21997E-03   -0.22106E-03  2600   0.112E-01    0.119E-01
DAV:   5    -0.136267482251E+04    0.35774E-03   -0.11265E-03  2352   0.748E-02    0.509E-02
DAV:   6    -0.136267484090E+04   -0.18395E-04   -0.98685E-04  2336   0.599E-02    0.387E-02
DAV:   7    -0.136267484461E+04   -0.37118E-05   -0.39675E-04  2448   0.373E-02    0.298E-02
DAV:   8    -0.136267484160E+04    0.30123E-05   -0.12214E-04  2520   0.224E-02    0.162E-02
DAV:   9    -0.136267483794E+04    0.36580E-05   -0.40356E-05  2200   0.125E-02    0.908E-03
DAV:  10    -0.136267483882E+04   -0.88035E-06   -0.12867E-05  1928   0.741E-03    0.655E-03
DAV:  11    -0.136267483813E+04    0.69416E-06   -0.12764E-06   984   0.533E-03
  19 F= -.13626748E+04 E0= -.13626748E+04  d E =-.976061E-01
 BRION: g(F)=  0.722E-01 g(S)=  0.000E+00 retain N=  4 mean eig= 2.65
 eig:   4.115  4.115  1.180  1.180
 bond charge predicted
       N       E                     dE             d eps       ncg     rms          rms(c)
DAV:   1    -0.136274772119E+04   -0.72882E-01   -0.84896E+00  1376   0.418E+00    0.455E-01
DAV:   2    -0.136279112445E+04   -0.43403E-01   -0.45535E-01  2296   0.164E+00    0.224E-01
DAV:   3    -0.136279401894E+04   -0.28945E-02   -0.36648E-02  2568   0.316E-01    0.183E-01
DAV:   4    -0.136279374903E+04    0.26992E-03   -0.29642E-03  2608   0.132E-01    0.143E-01
DAV:   5    -0.136279324727E+04    0.50176E-03   -0.15146E-03  2376   0.847E-02    0.668E-02
DAV:   6    -0.136279323877E+04    0.84965E-05   -0.14161E-03  2264   0.725E-02    0.461E-02
DAV:   7    -0.136279324760E+04   -0.88324E-05   -0.68117E-04  2456   0.481E-02    0.373E-02
DAV:   8    -0.136279324336E+04    0.42387E-05   -0.18939E-04  2488   0.288E-02    0.231E-02
DAV:   9    -0.136279323644E+04    0.69232E-05   -0.70362E-05  2336   0.157E-02    0.120E-02
DAV:  10    -0.136279323850E+04   -0.20549E-05   -0.28380E-05  2296   0.101E-02    0.857E-03
DAV:  11    -0.136279323804E+04    0.45997E-06   -0.44417E-06  1240   0.627E-03
  20 F= -.13627932E+04 E0= -.13627932E+04  d E =-.118400E+00
 BRION: g(F)=  0.714E-01 g(S)=  0.000E+00 retain N=  4 mean eig= 3.53
 eig:   5.831  5.831  1.226  1.226
