 running on  160 total cores
 distrk:  each k-point on  160 cores,    1 groups
 distr:  one band on   20 cores,    8 groups
 using from now: INCAR     
 vasp.5.4.4.18Apr17-6-g9f103f2a35 (build May 01 2020 14:22:42) gamma-only       
  
 POSCAR found type information on POSCAR  O  La Zr Li Al
 POSCAR found :  5 types and     186 ions
 scaLAPACK will be used
 LDA part: xc-table for Pade appr. of Perdew
 POSCAR, INCAR and KPOINTS ok, starting setup
 FFT: planning ...
 WAVECAR not read
 WARNING: random wavefunctions but no delay for mixing, default for NELMDL
 entering main loop
       N       E                     dE             d eps       ncg     rms          rms(c)
DAV:   1     0.252526779316E+05    0.25253E+05   -0.42308E+05  1632   0.253E+03
DAV:   2     0.963687027182E+04   -0.15616E+05   -0.14295E+05  1408   0.717E+02
DAV:   3     0.283409952636E+04   -0.68028E+04   -0.61966E+04  1512   0.357E+02
DAV:   4    -0.279642444974E+03   -0.31137E+04   -0.28956E+04  2024   0.221E+02
DAV:   5    -0.136755934874E+04   -0.10879E+04   -0.10423E+04  2536   0.146E+02    0.115E+02
DAV:   6    -0.128372927993E+04    0.83830E+02   -0.15551E+03  2440   0.677E+01    0.506E+01
DAV:   7    -0.131007907167E+04   -0.26350E+02   -0.46194E+02  2552   0.354E+01    0.336E+01
DAV:   8    -0.130721927207E+04    0.28598E+01   -0.14432E+02  2552   0.235E+01    0.204E+01
DAV:   9    -0.131226199521E+04   -0.50427E+01   -0.83904E+01  2584   0.153E+01    0.189E+01
DAV:  10    -0.130799093734E+04    0.42711E+01   -0.27939E+01  2504   0.994E+00    0.779E+00
DAV:  11    -0.130748096466E+04    0.50997E+00   -0.10020E+01  2576   0.582E+00    0.536E+00
DAV:  12    -0.130775671744E+04   -0.27575E+00   -0.54107E+00  2544   0.385E+00    0.945E+00
DAV:  13    -0.130756698792E+04    0.18973E+00   -0.99203E-01  2488   0.213E+00    0.683E+00
DAV:  14    -0.130731629422E+04    0.25069E+00   -0.55655E-01  2584   0.126E+00    0.463E+00
DAV:  15    -0.130716693183E+04    0.14936E+00   -0.79262E-01  2440   0.118E+00    0.942E-01
DAV:  16    -0.130717567965E+04   -0.87478E-02   -0.10017E-01  2512   0.690E-01    0.605E-01
DAV:  17    -0.130717277328E+04    0.29064E-02   -0.21481E-02  2584   0.292E-01    0.249E-01
DAV:  18    -0.130717277527E+04   -0.19867E-05   -0.67436E-03  2608   0.161E-01    0.142E-01
DAV:  19    -0.130717309423E+04   -0.31897E-03   -0.26920E-03  2608   0.100E-01    0.168E-01
DAV:  20    -0.130717293464E+04    0.15960E-03   -0.71394E-04  2584   0.535E-02    0.845E-02
DAV:  21    -0.130717290016E+04    0.34479E-04   -0.39198E-04  2608   0.349E-02    0.361E-02
DAV:  22    -0.130717289911E+04    0.10452E-05   -0.11335E-04  2624   0.185E-02    0.135E-02
DAV:  23    -0.130717290258E+04   -0.34666E-05   -0.30271E-05  2296   0.115E-02    0.617E-03
DAV:  24    -0.130717290517E+04   -0.25869E-05   -0.57185E-06  1232   0.537E-03    0.575E-03
DAV:  25    -0.130717290489E+04    0.27819E-06   -0.32277E-06  1064   0.516E-03
   1 F= -.13071729E+04 E0= -.13070926E+04  d E =-.130717E+04
 BRION: g(F)=  0.920E+02 g(S)=  0.000E+00
 bond charge predicted
       N       E                     dE             d eps       ncg     rms          rms(c)
DAV:   1    -0.125002284513E+04    0.57150E+02   -0.10342E+04  1768   0.156E+02    0.368E+01
DAV:   2    -0.133576185428E+04   -0.85739E+02   -0.96881E+02  2576   0.705E+01    0.183E+01
DAV:   3    -0.133268191591E+04    0.30799E+01   -0.53725E+01  2624   0.185E+01    0.117E+01
DAV:   4    -0.133005831067E+04    0.26236E+01   -0.22383E+01  2424   0.956E+00    0.546E+00
DAV:   5    -0.132993285185E+04    0.12546E+00   -0.59031E+00  2544   0.536E+00    0.377E+00
DAV:   6    -0.132981603399E+04    0.11682E+00   -0.32768E+00  2608   0.317E+00    0.195E+00
DAV:   7    -0.132979679908E+04    0.19235E-01   -0.55049E-01  2568   0.192E+00    0.131E+00
DAV:   8    -0.132979661878E+04    0.18031E-03   -0.57118E-01  2504   0.130E+00    0.887E-01
DAV:   9    -0.132979508079E+04    0.15380E-02   -0.10400E-01  2544   0.708E-01    0.667E-01
DAV:  10    -0.132979097294E+04    0.41078E-02   -0.50500E-02  2624   0.402E-01    0.278E-01
DAV:  11    -0.132979207034E+04   -0.10974E-02   -0.26009E-02  2616   0.281E-01    0.199E-01
DAV:  12    -0.132979173044E+04    0.33990E-03   -0.45735E-03  2568   0.162E-01    0.840E-02
DAV:  13    -0.132979184899E+04   -0.11855E-03   -0.24060E-03  2624   0.831E-02    0.409E-02
DAV:  14    -0.132979186494E+04   -0.15944E-04   -0.33549E-04  2624   0.401E-02    0.151E-02
DAV:  15    -0.132979187272E+04   -0.77817E-05   -0.10906E-04  2624   0.205E-02    0.997E-03
DAV:  16    -0.132979187493E+04   -0.22109E-05   -0.27001E-05  2352   0.124E-02    0.767E-03
DAV:  17    -0.132979187570E+04   -0.77016E-06   -0.11143E-05  1984   0.633E-03    0.378E-03
DAV:  18    -0.132979187588E+04   -0.18170E-06   -0.20102E-06  1120   0.455E-03
   2 F= -.13297919E+04 E0= -.13297919E+04  d E =-.226190E+02
 BRION: g(F)=  0.221E+03 g(S)=  0.000E+00 retain N=  1 mean eig= 0.35
 eig:   0.352
 bond charge predicted
       N       E                     dE             d eps       ncg     rms          rms(c)
DAV:   1    -0.130355640174E+04    0.26235E+02   -0.31299E+03  1328   0.660E+01    0.270E+01
DAV:   2    -0.134697141231E+04   -0.43415E+02   -0.59507E+02  2568   0.429E+01    0.253E+01
DAV:   3    -0.134313486818E+04    0.38365E+01   -0.81805E+01  2552   0.185E+01    0.179E+01
DAV:   4    -0.133818668380E+04    0.49482E+01   -0.43120E+01  2224   0.745E+00    0.701E+00
DAV:   5    -0.133994237610E+04   -0.17557E+01   -0.18022E+01  2464   0.624E+00    0.883E+00
DAV:   6    -0.133839169485E+04    0.15507E+01   -0.60471E+00  2488   0.410E+00    0.393E+00
DAV:   7    -0.133842021419E+04   -0.28519E-01   -0.43699E+00  2472   0.313E+00    0.191E+00
DAV:   8    -0.133835776866E+04    0.62446E-01   -0.79734E-01  2432   0.173E+00    0.644E-01
DAV:   9    -0.133837032168E+04   -0.12553E-01   -0.19892E-01  2584   0.870E-01    0.651E-01
DAV:  10    -0.133836554630E+04    0.47754E-02   -0.51617E-02  2552   0.450E-01    0.189E-01
DAV:  11    -0.133836859728E+04   -0.30510E-02   -0.23547E-02  2488   0.253E-01    0.383E-01
DAV:  12    -0.133836567357E+04    0.29237E-02   -0.73287E-03  2528   0.171E-01    0.204E-01
DAV:  13    -0.133836544603E+04    0.22755E-03   -0.10459E-02  2488   0.149E-01    0.648E-02
DAV:  14    -0.133836548658E+04   -0.40549E-04   -0.98730E-04  2504   0.702E-02    0.374E-02
DAV:  15    -0.133836550477E+04   -0.18198E-04   -0.14482E-04  2624   0.242E-02    0.362E-02
DAV:  16    -0.133836549374E+04    0.11030E-04   -0.46161E-05  2600   0.150E-02    0.261E-02
DAV:  17    -0.133836548796E+04    0.57877E-05   -0.47732E-05  2424   0.110E-02    0.848E-03
DAV:  18    -0.133836548699E+04    0.96172E-06   -0.16559E-05  2080   0.770E-03    0.214E-03
DAV:  19    -0.133836548734E+04   -0.34433E-06   -0.39179E-06  1448   0.511E-03
   3 F= -.13383655E+04 E0= -.13383655E+04  d E =-.857361E+01
 BRION: g(F)=  0.864E+02 g(S)=  0.000E+00 retain N=  2 mean eig= 1.05
 eig:   0.180  1.917
 bond charge predicted
       N       E                     dE             d eps       ncg     rms          rms(c)
DAV:   1    -0.133260873999E+04    0.57567E+01   -0.12620E+03  1360   0.362E+01    0.142E+01
DAV:   2    -0.134731403990E+04   -0.14705E+02   -0.18540E+02  2528   0.214E+01    0.122E+01
DAV:   3    -0.134529000290E+04    0.20240E+01   -0.16564E+01  2392   0.704E+00    0.801E+00
DAV:   4    -0.134423906101E+04    0.10509E+01   -0.10782E+01  2168   0.403E+00    0.258E+00
DAV:   5    -0.134438524161E+04   -0.14618E+00   -0.22307E+00  2392   0.258E+00    0.336E+00
DAV:   6    -0.134418214201E+04    0.20310E+00   -0.11503E+00  2504   0.186E+00    0.887E-01
DAV:   7    -0.134420800702E+04   -0.25865E-01   -0.42929E-01  2464   0.108E+00    0.981E-01
DAV:   8    -0.134419564560E+04    0.12361E-01   -0.77968E-02  2536   0.552E-01    0.542E-01
DAV:   9    -0.134419376036E+04    0.18852E-02   -0.38493E-02  2440   0.316E-01    0.186E-01
DAV:  10    -0.134419409635E+04   -0.33600E-03   -0.79491E-03  2560   0.162E-01    0.802E-02
DAV:  11    -0.134419415753E+04   -0.61178E-04   -0.14392E-03  2592   0.828E-02    0.598E-02
DAV:  12    -0.134419415137E+04    0.61625E-05   -0.77872E-04  2448   0.466E-02    0.273E-02
DAV:  13    -0.134419416643E+04   -0.15059E-04   -0.17510E-04  2520   0.289E-02    0.252E-02
DAV:  14    -0.134419416210E+04    0.43300E-05   -0.68955E-05  2576   0.152E-02    0.131E-02
DAV:  15    -0.134419416167E+04    0.42586E-06   -0.30100E-05  2384   0.113E-02    0.426E-03
DAV:  16    -0.134419416207E+04   -0.39852E-06   -0.73513E-06  1784   0.583E-03
   4 F= -.13441942E+04 E0= -.13441942E+04  d E =-.582867E+01
 BRION: g(F)=  0.120E+02 g(S)=  0.000E+00 retain N=  2 mean eig= 0.17
 eig:   0.168  0.168
 bond charge predicted
       N       E                     dE             d eps       ncg     rms          rms(c)
DAV:   1    -0.134613836451E+04   -0.19442E+01   -0.42866E+02  1400   0.287E+01    0.527E+00
DAV:   2    -0.134844211066E+04   -0.23037E+01   -0.25362E+01  2296   0.111E+01    0.282E+00
DAV:   3    -0.134851311970E+04   -0.71009E-01   -0.19709E+00  2616   0.262E+00    0.229E+00
DAV:   4    -0.134844494046E+04    0.68179E-01   -0.43195E-01  2584   0.139E+00    0.120E+00
DAV:   5    -0.134843685651E+04    0.80840E-02   -0.16608E-01  2408   0.849E-01    0.700E-01
DAV:   6    -0.134843490275E+04    0.19538E-02   -0.93698E-02  2576   0.583E-01    0.409E-01
DAV:   7    -0.134843476518E+04    0.13757E-03   -0.30464E-02  2520   0.329E-01    0.285E-01
DAV:   8    -0.134843433219E+04    0.43299E-03   -0.63128E-03  2608   0.161E-01    0.162E-01
DAV:   9    -0.134843428249E+04    0.49703E-04   -0.35864E-03  2600   0.109E-01    0.906E-02
DAV:  10    -0.134843430191E+04   -0.19419E-04   -0.11529E-03  2232   0.723E-02    0.762E-02
DAV:  11    -0.134843427842E+04    0.23489E-04   -0.85845E-04  2312   0.462E-02    0.350E-02
DAV:  12    -0.134843427199E+04    0.64337E-05   -0.16693E-04  2544   0.262E-02    0.220E-02
DAV:  13    -0.134843427389E+04   -0.19024E-05   -0.97231E-05  2536   0.173E-02    0.117E-02
DAV:  14    -0.134843427437E+04   -0.47998E-06   -0.23026E-05  2320   0.907E-03    0.848E-03
DAV:  15    -0.134843427426E+04    0.10518E-06   -0.10078E-05  1736   0.619E-03    0.383E-03
DAV:  16    -0.134843427413E+04    0.13488E-06   -0.14690E-06  1056   0.427E-03
   5 F= -.13484343E+04 E0= -.13484343E+04  d E =-.424011E+01
 BRION: g(F)=  0.542E+01 g(S)=  0.000E+00 retain N=  3 mean eig= 0.37
 eig:   0.462  0.064  0.576
 bond charge predicted
       N       E                     dE             d eps       ncg     rms          rms(c)
DAV:   1    -0.134942239025E+04   -0.98812E+00   -0.22093E+02  1384   0.196E+01    0.348E+00
DAV:   2    -0.135050694348E+04   -0.10846E+01   -0.11522E+01  2272   0.721E+00    0.183E+00
DAV:   3    -0.135051524539E+04   -0.83019E-02   -0.70492E-01  2600   0.153E+00    0.152E+00
DAV:   4    -0.135047352269E+04    0.41723E-01   -0.27619E-01  2472   0.992E-01    0.663E-01
DAV:   5    -0.135047611989E+04   -0.25972E-02   -0.95111E-02  2480   0.586E-01    0.640E-01
DAV:   6    -0.135047120279E+04    0.49171E-02   -0.64874E-02  2520   0.429E-01    0.215E-01
DAV:   7    -0.135047136277E+04   -0.15998E-03   -0.13432E-02  2488   0.226E-01    0.169E-01
DAV:   8    -0.135047120535E+04    0.15742E-03   -0.33441E-03  2432   0.106E-01    0.801E-02
DAV:   9    -0.135047121988E+04   -0.14536E-04   -0.19283E-03  2480   0.707E-02    0.546E-02
DAV:  10    -0.135047121542E+04    0.44612E-05   -0.35774E-04  2440   0.378E-02    0.355E-02
DAV:  11    -0.135047120716E+04    0.82583E-05   -0.19128E-04  2464   0.242E-02    0.147E-02
DAV:  12    -0.135047121045E+04   -0.32858E-05   -0.57493E-05  2496   0.138E-02    0.103E-02
DAV:  13    -0.135047121003E+04    0.41448E-06   -0.93422E-06  1776   0.766E-03
   6 F= -.13504712E+04 E0= -.13504712E+04  d E =-.203694E+01
 BRION: g(F)=  0.353E+01 g(S)=  0.000E+00 retain N=  4 mean eig= 0.84
 eig:   1.757  0.149  0.731  0.731
 bond charge predicted
       N       E                     dE             d eps       ncg     rms          rms(c)
DAV:   1    -0.135055887609E+04   -0.87666E-01   -0.48789E+02  1376   0.298E+01    0.440E+00
DAV:   2    -0.135314222512E+04   -0.25833E+01   -0.27058E+01  2312   0.108E+01    0.245E+00
DAV:   3    -0.135316858931E+04   -0.26364E-01   -0.16258E+00  2592   0.242E+00    0.211E+00
DAV:   4    -0.135309009050E+04    0.78499E-01   -0.38453E-01  2504   0.119E+00    0.114E+00
DAV:   5    -0.135306238929E+04    0.27701E-01   -0.18531E-01  2432   0.788E-01    0.595E-01
DAV:   6    -0.135306279284E+04   -0.40355E-03   -0.72627E-02  2552   0.513E-01    0.489E-01
DAV:   7    -0.135306062692E+04    0.21659E-02   -0.33177E-02  2512   0.324E-01    0.248E-01
DAV:   8    -0.135306071254E+04   -0.85621E-04   -0.10515E-02  2552   0.181E-01    0.120E-01
DAV:   9    -0.135306062682E+04    0.85717E-04   -0.17092E-03  2600   0.836E-02    0.735E-02
DAV:  10    -0.135306069141E+04   -0.64585E-04   -0.10539E-03  2320   0.561E-02    0.487E-02
DAV:  11    -0.135306066297E+04    0.28437E-04   -0.27541E-04  2592   0.358E-02    0.269E-02
DAV:  12    -0.135306066998E+04   -0.70103E-05   -0.25994E-04  2528   0.251E-02    0.190E-02
DAV:  13    -0.135306066502E+04    0.49550E-05   -0.52318E-05  2408   0.151E-02    0.782E-03
DAV:  14    -0.135306066610E+04   -0.10757E-05   -0.21168E-05  2104   0.854E-03    0.527E-03
DAV:  15    -0.135306066612E+04   -0.17026E-07   -0.22564E-06  1088   0.465E-03
   7 F= -.13530607E+04 E0= -.13530607E+04  d E =-.258946E+01
 BRION: g(F)=  0.198E+01 g(S)=  0.000E+00 retain N=  5 mean eig= 0.75
 eig:   1.420  0.000  0.726  0.726  0.895
 bond charge predicted
       N       E                     dE             d eps       ncg     rms          rms(c)
DAV:   1    -0.135332626583E+04   -0.26560E+00   -0.20303E+02  1392   0.196E+01    0.278E+00
DAV:   2    -0.135433770737E+04   -0.10114E+01   -0.10584E+01  2296   0.722E+00    0.145E+00
DAV:   3    -0.135437127231E+04   -0.33565E-01   -0.72982E-01  2616   0.148E+00    0.119E+00
DAV:   4    -0.135434574890E+04    0.25523E-01   -0.12286E-01  2552   0.744E-01    0.669E-01
DAV:   5    -0.135433819619E+04    0.75527E-02   -0.57217E-02  2464   0.450E-01    0.326E-01
DAV:   6    -0.135433884156E+04   -0.64537E-03   -0.20622E-02  2552   0.273E-01    0.224E-01
DAV:   7    -0.135433847204E+04    0.36952E-03   -0.76568E-03  2544   0.169E-01    0.127E-01
DAV:   8    -0.135433853962E+04   -0.67578E-04   -0.31214E-03  2584   0.992E-02    0.766E-02
DAV:   9    -0.135433848527E+04    0.54354E-04   -0.59537E-04  2608   0.512E-02    0.465E-02
DAV:  10    -0.135433851197E+04   -0.26706E-04   -0.46282E-04  2480   0.359E-02    0.313E-02
DAV:  11    -0.135433849931E+04    0.12657E-04   -0.12378E-04  2488   0.251E-02    0.116E-02
DAV:  12    -0.135433850428E+04   -0.49678E-05   -0.65082E-05  2424   0.146E-02    0.120E-02
DAV:  13    -0.135433850250E+04    0.17782E-05   -0.14121E-05  1864   0.832E-03    0.501E-03
DAV:  14    -0.135433850275E+04   -0.24679E-06   -0.59759E-06  1464   0.563E-03
   8 F= -.13543385E+04 E0= -.13543385E+04  d E =-.127784E+01
 BRION: g(F)=  0.132E+01 g(S)=  0.000E+00 retain N=  6 mean eig= 1.23
 eig:   3.104  1.212  1.212  0.183  0.833  0.833
 bond charge predicted
       N       E                     dE             d eps       ncg     rms          rms(c)
DAV:   1    -0.135462890439E+04   -0.29040E+00   -0.12071E+02  1400   0.154E+01    0.208E+00
DAV:   2    -0.135522734356E+04   -0.59844E+00   -0.62895E+00  2288   0.573E+00    0.108E+00
DAV:   3    -0.135525303092E+04   -0.25687E-01   -0.46955E-01  2624   0.118E+00    0.869E-01
DAV:   4    -0.135523964519E+04    0.13386E-01   -0.68641E-02  2544   0.583E-01    0.479E-01
DAV:   5    -0.135523620624E+04    0.34389E-02   -0.28080E-02  2424   0.334E-01    0.216E-01
DAV:   6    -0.135523674903E+04   -0.54278E-03   -0.11864E-02  2560   0.207E-01    0.140E-01
DAV:   7    -0.135523666261E+04    0.86416E-04   -0.35115E-03  2328   0.120E-01    0.936E-02
DAV:   8    -0.135523670475E+04   -0.42142E-04   -0.16036E-03  2392   0.686E-02    0.560E-02
DAV:   9    -0.135523667913E+04    0.25621E-04   -0.29635E-04  2624   0.381E-02    0.388E-02
DAV:  10    -0.135523668338E+04   -0.42498E-05   -0.35383E-04  2496   0.323E-02    0.265E-02
DAV:  11    -0.135523667814E+04    0.52418E-05   -0.10524E-04  2464   0.217E-02    0.976E-03
DAV:  12    -0.135523668074E+04   -0.25984E-05   -0.34802E-05  2304   0.119E-02    0.857E-03
DAV:  13    -0.135523668008E+04    0.65776E-06   -0.92915E-06  1632   0.698E-03
   9 F= -.13552367E+04 E0= -.13552367E+04  d E =-.898177E+00
 BRION: g(F)=  0.776E+00 g(S)=  0.000E+00 retain N=  7 mean eig= 1.68
 eig:   4.807  2.386  2.386  0.188  0.572  0.572  0.816
 bond charge predicted
       N       E                     dE             d eps       ncg     rms          rms(c)
DAV:   1    -0.135552570500E+04   -0.28902E+00   -0.56513E+01  1400   0.107E+01    0.142E+00
DAV:   2    -0.135580975497E+04   -0.28405E+00   -0.30260E+00  2288   0.401E+00    0.714E-01
DAV:   3    -0.135582411996E+04   -0.14365E-01   -0.23970E-01  2616   0.841E-01    0.576E-01
DAV:   4    -0.135581884373E+04    0.52762E-02   -0.29022E-02  2600   0.396E-01    0.354E-01
DAV:   5    -0.135581646284E+04    0.23809E-02   -0.14801E-02  2352   0.238E-01    0.148E-01
DAV:   6    -0.135581680843E+04   -0.34559E-03   -0.68285E-03  2536   0.160E-01    0.121E-01
DAV:   7    -0.135581675688E+04    0.51555E-04   -0.28087E-03  2488   0.993E-02    0.793E-02
DAV:   8    -0.135581674963E+04    0.72498E-05   -0.94716E-04  2608   0.580E-02    0.454E-02
DAV:   9    -0.135581673608E+04    0.13548E-04   -0.17716E-04  2568   0.293E-02    0.321E-02
DAV:  10    -0.135581674314E+04   -0.70632E-05   -0.19907E-04  2240   0.235E-02    0.232E-02
DAV:  11    -0.135581673712E+04    0.60245E-05   -0.54684E-05  2424   0.174E-02    0.967E-03
DAV:  12    -0.135581673971E+04   -0.25938E-05   -0.41098E-05  2264   0.108E-02    0.978E-03
DAV:  13    -0.135581673816E+04    0.15539E-05   -0.74381E-06  1544   0.677E-03    0.400E-03
DAV:  14    -0.135581673836E+04   -0.20512E-06   -0.47147E-06  1248   0.555E-03
  10 F= -.13558167E+04 E0= -.13558167E+04  d E =-.580058E+00
 BRION: g(F)=  0.510E+00 g(S)=  0.000E+00 retain N=  8 mean eig= 1.44
 eig:   4.760  2.051  1.400  1.400  0.223  0.417  0.642  0.642
 bond charge predicted
       N       E                     dE             d eps       ncg     rms          rms(c)
DAV:   1    -0.135601519873E+04   -0.19846E+00   -0.89638E+01  1408   0.136E+01    0.160E+00
DAV:   2    -0.135647616394E+04   -0.46097E+00   -0.48826E+00  2304   0.525E+00    0.825E-01
DAV:   3    -0.135650394233E+04   -0.27778E-01   -0.39342E-01  2592   0.105E+00    0.678E-01
DAV:   4    -0.135649869698E+04    0.52454E-02   -0.38910E-02  2600   0.476E-01    0.477E-01
DAV:   5    -0.135649389413E+04    0.48028E-02   -0.19968E-02  2344   0.283E-01    0.196E-01
DAV:   6    -0.135649430570E+04   -0.41156E-03   -0.12611E-02  2432   0.214E-01    0.156E-01
DAV:   7    -0.135649426478E+04    0.40920E-04   -0.58444E-03  2472   0.145E-01    0.112E-01
DAV:   8    -0.135649424411E+04    0.20671E-04   -0.22426E-03  2568   0.890E-02    0.649E-02
DAV:   9    -0.135649420935E+04    0.34757E-04   -0.46998E-04  2408   0.456E-02    0.450E-02
DAV:  10    -0.135649421142E+04   -0.20665E-05   -0.24326E-04  2424   0.278E-02    0.251E-02
DAV:  11    -0.135649421419E+04   -0.27774E-05   -0.90798E-05  2448   0.205E-02    0.149E-02
DAV:  12    -0.135649421401E+04    0.18645E-06   -0.38311E-05  2328   0.141E-02    0.140E-02
DAV:  13    -0.135649421232E+04    0.16816E-05   -0.31248E-05  2104   0.991E-03    0.696E-03
DAV:  14    -0.135649421225E+04    0.79715E-07   -0.86875E-06  1744   0.612E-03
  11 F= -.13564942E+04 E0= -.13564942E+04  d E =-.677474E+00
 BRION: g(F)=  0.396E+00 g(S)=  0.000E+00 retain N=  8 mean eig= 1.41
 eig:   4.336  1.795  1.795  0.721  0.735  0.735  0.775  0.355
 bond charge predicted
       N       E                     dE             d eps       ncg     rms          rms(c)
DAV:   1    -0.135662004285E+04   -0.12583E+00   -0.77790E+01  1408   0.126E+01    0.157E+00
DAV:   2    -0.135703142241E+04   -0.41138E+00   -0.43691E+00  2304   0.496E+00    0.849E-01
DAV:   3    -0.135705357192E+04   -0.22150E-01   -0.34578E-01  2616   0.995E-01    0.674E-01
DAV:   4    -0.135704636666E+04    0.72053E-02   -0.37868E-02  2584   0.468E-01    0.430E-01
DAV:   5    -0.135704273135E+04    0.36353E-02   -0.20366E-02  2344   0.280E-01    0.168E-01
DAV:   6    -0.135704338191E+04   -0.65056E-03   -0.98908E-03  2496   0.183E-01    0.133E-01
DAV:   7    -0.135704333341E+04    0.48498E-04   -0.31112E-03  2528   0.108E-01    0.870E-02
DAV:   8    -0.135704331988E+04    0.13535E-04   -0.11140E-03  2608   0.633E-02    0.468E-02
DAV:   9    -0.135704330651E+04    0.13372E-04   -0.21030E-04  2528   0.324E-02    0.326E-02
DAV:  10    -0.135704331356E+04   -0.70489E-05   -0.16660E-04  2528   0.233E-02    0.185E-02
DAV:  11    -0.135704331120E+04    0.23506E-05   -0.52932E-05  2448   0.163E-02    0.694E-03
DAV:  12    -0.135704331306E+04   -0.18521E-05   -0.18377E-05  2128   0.934E-03    0.767E-03
DAV:  13    -0.135704331206E+04    0.10004E-05   -0.38450E-06  1232   0.568E-03    0.358E-03
DAV:  14    -0.135704331272E+04   -0.66243E-06   -0.99120E-06  1600   0.634E-03
  12 F= -.13570433E+04 E0= -.13570433E+04  d E =-.549100E+00
 BRION: g(F)=  0.291E+00 g(S)=  0.000E+00 retain N=  8 mean eig= 0.96
 eig:   1.709  1.709  0.890  0.890  0.879  0.723  0.723  0.140
 bond charge predicted
       N       E                     dE             d eps       ncg     rms          rms(c)
DAV:   1    -0.135720498776E+04   -0.16168E+00   -0.31263E+01  1400   0.794E+00    0.103E+00
DAV:   2    -0.135736637761E+04   -0.16139E+00   -0.17182E+00  2304   0.300E+00    0.535E-01
DAV:   3    -0.135737472636E+04   -0.83487E-02   -0.13614E-01  2608   0.627E-01    0.442E-01
DAV:   4    -0.135737192312E+04    0.28032E-02   -0.17021E-02  2576   0.301E-01    0.272E-01
DAV:   5    -0.135737050024E+04    0.14229E-02   -0.74487E-03  2392   0.172E-01    0.114E-01
DAV:   6    -0.135737065081E+04   -0.15057E-03   -0.37015E-03  2456   0.117E-01    0.861E-02
DAV:   7    -0.135737062282E+04    0.27996E-04   -0.15489E-03  2488   0.774E-02    0.581E-02
DAV:   8    -0.135737063552E+04   -0.12706E-04   -0.70917E-04  2552   0.472E-02    0.356E-02
DAV:   9    -0.135737062630E+04    0.92218E-05   -0.12526E-04  2512   0.243E-02    0.268E-02
DAV:  10    -0.135737062520E+04    0.10971E-05   -0.10083E-04  2480   0.174E-02    0.150E-02
DAV:  11    -0.135737062471E+04    0.49011E-06   -0.34698E-05  2288   0.128E-02    0.630E-03
DAV:  12    -0.135737062524E+04   -0.52819E-06   -0.99520E-06  1816   0.792E-03
  13 F= -.13573706E+04 E0= -.13573706E+04  d E =-.327313E+00
 BRION: g(F)=  0.199E+00 g(S)=  0.000E+00 retain N=  9 mean eig= 1.92
 eig:   5.628  5.628  0.576  0.576  1.121  1.121  0.904  0.843  0.843
 bond charge predicted
       N       E                     dE             d eps       ncg     rms          rms(c)
DAV:   1    -0.135751518355E+04   -0.14456E+00   -0.37499E+01  1408   0.880E+00    0.101E+00
DAV:   2    -0.135771261240E+04   -0.19743E+00   -0.20911E+00  2296   0.341E+00    0.517E-01
DAV:   3    -0.135772532700E+04   -0.12715E-01   -0.17234E-01  2592   0.693E-01    0.424E-01
DAV:   4    -0.135772332318E+04    0.20038E-02   -0.15832E-02  2592   0.311E-01    0.309E-01
DAV:   5    -0.135772115011E+04    0.21731E-02   -0.80133E-03  2360   0.177E-01    0.129E-01
DAV:   6    -0.135772124257E+04   -0.92454E-04   -0.53423E-03  2384   0.136E-01    0.915E-02
DAV:   7    -0.135772127442E+04   -0.31851E-04   -0.25457E-03  2472   0.930E-02    0.672E-02
DAV:   8    -0.135772126343E+04    0.10991E-04   -0.77725E-04  2600   0.559E-02    0.405E-02
DAV:   9    -0.135772125194E+04    0.11482E-04   -0.19840E-04  2488   0.287E-02    0.268E-02
DAV:  10    -0.135772125401E+04   -0.20651E-05   -0.81617E-05  2528   0.166E-02    0.154E-02
DAV:  11    -0.135772125550E+04   -0.14891E-05   -0.35455E-05  2384   0.125E-02    0.100E-02
DAV:  12    -0.135772125489E+04    0.60332E-06   -0.13893E-05  2072   0.935E-03    0.863E-03
DAV:  13    -0.135772125443E+04    0.46144E-06   -0.11703E-05  1712   0.631E-03    0.470E-03
DAV:  14    -0.135772125410E+04    0.33536E-06   -0.18763E-06   992   0.495E-03
  14 F= -.13577213E+04 E0= -.13577213E+04  d E =-.350629E+00
 BRION: g(F)=  0.166E+00 g(S)=  0.000E+00 retain N=  6 mean eig= 2.68
 eig:   5.957  5.957  1.281  1.281  0.816  0.816
 bond charge predicted
       N       E                     dE             d eps       ncg     rms          rms(c)
DAV:   1    -0.135785540627E+04   -0.13415E+00   -0.37460E+01  1400   0.873E+00    0.102E+00
DAV:   2    -0.135804937214E+04   -0.19397E+00   -0.20451E+00  2272   0.333E+00    0.509E-01
DAV:   3    -0.135806208655E+04   -0.12714E-01   -0.16958E-01  2592   0.698E-01    0.417E-01
DAV:   4    -0.135806019797E+04    0.18886E-02   -0.15602E-02  2592   0.305E-01    0.303E-01
DAV:   5    -0.135805811899E+04    0.20790E-02   -0.72841E-03  2408   0.172E-01    0.131E-01
DAV:   6    -0.135805817038E+04   -0.51396E-04   -0.51937E-03  2368   0.136E-01    0.838E-02
DAV:   7    -0.135805821916E+04   -0.48782E-04   -0.23655E-03  2416   0.903E-02    0.668E-02
DAV:   8    -0.135805820593E+04    0.13235E-04   -0.70899E-04  2600   0.530E-02    0.416E-02
DAV:   9    -0.135805819201E+04    0.13922E-04   -0.19951E-04  2480   0.282E-02    0.254E-02
DAV:  10    -0.135805819479E+04   -0.27804E-05   -0.84016E-05  2488   0.167E-02    0.143E-02
DAV:  11    -0.135805819631E+04   -0.15254E-05   -0.26361E-05  2360   0.111E-02    0.990E-03
DAV:  12    -0.135805819575E+04    0.56429E-06   -0.13865E-05  1984   0.865E-03    0.843E-03
DAV:  13    -0.135805819522E+04    0.52448E-06   -0.11363E-05  1728   0.648E-03    0.451E-03
DAV:  14    -0.135805819495E+04    0.27356E-06   -0.22111E-06  1016   0.489E-03
  15 F= -.13580582E+04 E0= -.13580582E+04  d E =-.336941E+00
 BRION: g(F)=  0.149E+00 g(S)=  0.000E+00 retain N=  5 mean eig= 4.01
 eig:   7.694  7.694  1.720  1.720  1.243
 bond charge predicted
       N       E                     dE             d eps       ncg     rms          rms(c)
DAV:   1    -0.135816102588E+04   -0.10283E+00   -0.42478E+01  1400   0.929E+00    0.106E+00
DAV:   2    -0.135838079407E+04   -0.21977E+00   -0.23101E+00  2280   0.357E+00    0.527E-01
DAV:   3    -0.135839513398E+04   -0.14340E-01   -0.18804E-01  2592   0.729E-01    0.441E-01
DAV:   4    -0.135839349410E+04    0.16399E-02   -0.16199E-02  2600   0.311E-01    0.340E-01
DAV:   5    -0.135839053442E+04    0.29597E-02   -0.77080E-03  2312   0.181E-01    0.157E-01
DAV:   6    -0.135839039342E+04    0.14100E-03   -0.74996E-03  2264   0.160E-01    0.933E-02
DAV:   7    -0.135839049506E+04   -0.10165E-03   -0.35202E-03  2440   0.107E-01    0.824E-02
DAV:   8    -0.135839045941E+04    0.35656E-04   -0.86049E-04  2568   0.620E-02    0.514E-02
DAV:   9    -0.135839043223E+04    0.27181E-04   -0.32799E-04  2432   0.337E-02    0.275E-02
DAV:  10    -0.135839043947E+04   -0.72473E-05   -0.11768E-04  2504   0.202E-02    0.179E-02
DAV:  11    -0.135839044128E+04   -0.18029E-05   -0.43614E-05  2344   0.134E-02    0.147E-02
DAV:  12    -0.135839043985E+04    0.14234E-05   -0.25989E-05  2272   0.114E-02    0.125E-02
DAV:  13    -0.135839043853E+04    0.13265E-05   -0.18982E-05  2016   0.801E-03    0.670E-03
DAV:  14    -0.135839043799E+04    0.53403E-06   -0.37523E-06  1232   0.531E-03
  16 F= -.13583904E+04 E0= -.13583904E+04  d E =-.332243E+00
 BRION: g(F)=  0.134E+00 g(S)=  0.000E+00 retain N=  4 mean eig= 3.30
 eig:   5.286  5.286  1.314  1.314
 bond charge predicted
       N       E                     dE             d eps       ncg     rms          rms(c)
DAV:   1    -0.135852045561E+04   -0.13002E+00   -0.23152E+01  1400   0.686E+00    0.805E-01
DAV:   2    -0.135864069027E+04   -0.12023E+00   -0.12648E+00  2280   0.261E+00    0.396E-01
DAV:   3    -0.135864858127E+04   -0.78910E-02   -0.10456E-01  2584   0.543E-01    0.325E-01
DAV:   4    -0.135864743062E+04    0.11506E-02   -0.96310E-03  2600   0.237E-01    0.238E-01
DAV:   5    -0.135864600307E+04    0.14275E-02   -0.46070E-03  2368   0.138E-01    0.990E-02
DAV:   6    -0.135864605501E+04   -0.51940E-04   -0.33819E-03  2368   0.108E-01    0.685E-02
DAV:   7    -0.135864607091E+04   -0.15898E-04   -0.14224E-03  2464   0.706E-02    0.521E-02
DAV:   8    -0.135864606152E+04    0.93919E-05   -0.44333E-04  2568   0.416E-02    0.311E-02
DAV:   9    -0.135864605514E+04    0.63765E-05   -0.11279E-04  2432   0.215E-02    0.198E-02
DAV:  10    -0.135864605632E+04   -0.11746E-05   -0.45424E-05  2464   0.123E-02    0.109E-02
DAV:  11    -0.135864605695E+04   -0.63115E-06   -0.11762E-05  1920   0.832E-03    0.715E-03
DAV:  12    -0.135864605693E+04    0.17739E-07   -0.92134E-06  1640   0.677E-03
  17 F= -.13586461E+04 E0= -.13586461E+04  d E =-.255619E+00
 BRION: g(F)=  0.130E+00 g(S)=  0.000E+00 retain N=  5 mean eig= 3.76
 eig:   7.265  7.265  1.043  1.623  1.623
 bond charge predicted
       N       E                     dE             d eps       ncg     rms          rms(c)
DAV:   1    -0.135875531922E+04   -0.10926E+00   -0.24244E+01  1392   0.700E+00    0.795E-01
DAV:   2    -0.135888018792E+04   -0.12487E+00   -0.13069E+00  2280   0.267E+00    0.396E-01
DAV:   3    -0.135888829986E+04   -0.81119E-02   -0.10612E-01  2584   0.540E-01    0.332E-01
DAV:   4    -0.135888748199E+04    0.81786E-03   -0.89951E-03  2608   0.229E-01    0.263E-01
DAV:   5    -0.135888559041E+04    0.18916E-02   -0.41920E-03  2336   0.137E-01    0.129E-01
DAV:   6    -0.135888537832E+04    0.21209E-03   -0.49155E-03  2216   0.133E-01    0.679E-02
DAV:   7    -0.135888547982E+04   -0.10150E-03   -0.24271E-03  2384   0.871E-02    0.681E-02
DAV:   8    -0.135888545615E+04    0.23676E-04   -0.47659E-04  2528   0.478E-02    0.454E-02
DAV:   9    -0.135888542955E+04    0.26591E-04   -0.24225E-04  2512   0.282E-02    0.221E-02
DAV:  10    -0.135888543485E+04   -0.52939E-05   -0.90984E-05  2544   0.184E-02    0.146E-02
DAV:  11    -0.135888543515E+04   -0.29878E-06   -0.25725E-05  2120   0.103E-02    0.114E-02
DAV:  12    -0.135888543480E+04    0.34759E-06   -0.21992E-05  2128   0.100E-02    0.106E-02
DAV:  13    -0.135888543369E+04    0.11119E-05   -0.11463E-05  1728   0.747E-03    0.671E-03
DAV:  14    -0.135888543320E+04    0.48759E-06   -0.45196E-06  1312   0.529E-03
  18 F= -.13588854E+04 E0= -.13588854E+04  d E =-.239376E+00
 BRION: g(F)=  0.121E+00 g(S)=  0.000E+00 retain N=  4 mean eig= 3.94
 eig:   6.396  6.396  1.494  1.494
 bond charge predicted
       N       E                     dE             d eps       ncg     rms          rms(c)
DAV:   1    -0.135901534373E+04   -0.12991E+00   -0.25702E+01  1400   0.722E+00    0.828E-01
DAV:   2    -0.135914978430E+04   -0.13444E+00   -0.14132E+00  2288   0.278E+00    0.407E-01
DAV:   3    -0.135915881277E+04   -0.90285E-02   -0.11779E-01  2584   0.570E-01    0.335E-01
DAV:   4    -0.135915773632E+04    0.10764E-02   -0.10264E-02  2600   0.247E-01    0.256E-01
DAV:   5    -0.135915597252E+04    0.17638E-02   -0.46165E-03  2352   0.140E-01    0.118E-01
DAV:   6    -0.135915586239E+04    0.11013E-03   -0.43188E-03  2264   0.123E-01    0.686E-02
DAV:   7    -0.135915593232E+04   -0.69935E-04   -0.20853E-03  2464   0.831E-02    0.628E-02
DAV:   8    -0.135915591355E+04    0.18776E-04   -0.50016E-04  2584   0.465E-02    0.404E-02
DAV:   9    -0.135915589662E+04    0.16930E-04   -0.18921E-04  2472   0.259E-02    0.216E-02
DAV:  10    -0.135915590053E+04   -0.39174E-05   -0.71040E-05  2464   0.158E-02    0.133E-02
DAV:  11    -0.135915590150E+04   -0.96543E-06   -0.18840E-05  2088   0.958E-03    0.102E-02
DAV:  12    -0.135915590071E+04    0.78634E-06   -0.15956E-05  1912   0.869E-03    0.865E-03
DAV:  13    -0.135915590007E+04    0.63940E-06   -0.96583E-06  1696   0.683E-03
  19 F= -.13591559E+04 E0= -.13591559E+04  d E =-.270467E+00
 BRION: g(F)=  0.117E+00 g(S)=  0.000E+00 retain N=  4 mean eig= 3.94
 eig:   6.363  6.363  1.508  1.508
 bond charge predicted
       N       E                     dE             d eps       ncg     rms          rms(c)
DAV:   1    -0.135928153809E+04   -0.12564E+00   -0.20305E+01  1392   0.640E+00    0.740E-01
DAV:   2    -0.135938807782E+04   -0.10654E+00   -0.11197E+00  2280   0.245E+00    0.365E-01
DAV:   3    -0.135939526968E+04   -0.71919E-02   -0.94319E-02  2584   0.509E-01    0.304E-01
DAV:   4    -0.135939441854E+04    0.85114E-03   -0.83515E-03  2608   0.221E-01    0.233E-01
DAV:   5    -0.135939296986E+04    0.14487E-02   -0.36655E-03  2336   0.125E-01    0.110E-01
DAV:   6    -0.135939283315E+04    0.13671E-03   -0.35932E-03  2248   0.112E-01    0.621E-02
DAV:   7    -0.135939290443E+04   -0.71283E-04   -0.18673E-03  2424   0.775E-02    0.599E-02
DAV:   8    -0.135939288315E+04    0.21285E-04   -0.41516E-04  2568   0.437E-02    0.393E-02
DAV:   9    -0.135939286739E+04    0.15757E-04   -0.18314E-04  2504   0.246E-02    0.197E-02
DAV:  10    -0.135939287084E+04   -0.34427E-05   -0.60136E-05  2496   0.148E-02    0.125E-02
DAV:  11    -0.135939287178E+04   -0.94571E-06   -0.17561E-05  1968   0.897E-03    0.969E-03
DAV:  12    -0.135939287107E+04    0.70997E-06   -0.15266E-05  1888   0.862E-03    0.843E-03
DAV:  13    -0.135939287050E+04    0.56677E-06   -0.84060E-06  1640   0.644E-03
  20 F= -.13593929E+04 E0= -.13593929E+04  d E =-.236970E+00
 BRION: g(F)=  0.111E+00 g(S)=  0.000E+00 retain N=  4 mean eig= 4.34
 eig:   7.381  7.381  1.294  1.294
