 running on  160 total cores
 distrk:  each k-point on  160 cores,    1 groups
 distr:  one band on   20 cores,    8 groups
 using from now: INCAR     
 vasp.5.4.4.18Apr17-6-g9f103f2a35 (build May 01 2020 14:22:42) gamma-only       
  
 POSCAR found type information on POSCAR  O  La Zr Li Al
 POSCAR found :  5 types and     186 ions
 scaLAPACK will be used
 LDA part: xc-table for Pade appr. of Perdew
 POSCAR, INCAR and KPOINTS ok, starting setup
 FFT: planning ...
 WAVECAR not read
 WARNING: random wavefunctions but no delay for mixing, default for NELMDL
 entering main loop
       N       E                     dE             d eps       ncg     rms          rms(c)
DAV:   1     0.252877262080E+05    0.25288E+05   -0.42160E+05  1616   0.253E+03
DAV:   2     0.944873247909E+04   -0.15839E+05   -0.14664E+05  1456   0.708E+02
DAV:   3     0.273136308065E+04   -0.67174E+04   -0.61103E+04  1504   0.355E+02
DAV:   4    -0.338394018113E+03   -0.30698E+04   -0.28599E+04  2056   0.220E+02
DAV:   5    -0.138705432867E+04   -0.10487E+04   -0.10064E+04  2536   0.143E+02    0.116E+02
DAV:   6    -0.128119244316E+04    0.10586E+03   -0.14584E+03  2440   0.659E+01    0.504E+01
DAV:   7    -0.130420463345E+04   -0.23012E+02   -0.40848E+02  2568   0.346E+01    0.289E+01
DAV:   8    -0.130597105900E+04   -0.17664E+01   -0.18114E+02  2560   0.253E+01    0.204E+01
DAV:   9    -0.130812501853E+04   -0.21540E+01   -0.36550E+01  2560   0.128E+01    0.142E+01
DAV:  10    -0.130519484500E+04    0.29302E+01   -0.19088E+01  2528   0.773E+00    0.717E+00
DAV:  11    -0.130497996770E+04    0.21488E+00   -0.69064E+00  2616   0.502E+00    0.485E+00
DAV:  12    -0.130494102321E+04    0.38944E-01   -0.24179E+00  2608   0.307E+00    0.418E+00
DAV:  13    -0.130494442002E+04   -0.33968E-02   -0.80336E-01  2512   0.179E+00    0.265E+00
DAV:  14    -0.130486441114E+04    0.80009E-01   -0.44396E-01  2576   0.146E+00    0.102E+00
DAV:  15    -0.130486851927E+04   -0.41081E-02   -0.17437E-01  2496   0.758E-01    0.626E-01
DAV:  16    -0.130486753330E+04    0.98597E-03   -0.30920E-02  2576   0.387E-01    0.334E-01
DAV:  17    -0.130486702162E+04    0.51169E-03   -0.14924E-02  2536   0.230E-01    0.122E-01
DAV:  18    -0.130486735876E+04   -0.33714E-03   -0.39231E-03  2592   0.135E-01    0.106E-01
DAV:  19    -0.130486731939E+04    0.39366E-04   -0.13434E-03  2624   0.787E-02    0.379E-02
DAV:  20    -0.130486736267E+04   -0.43277E-04   -0.43601E-04  2560   0.396E-02    0.213E-02
DAV:  21    -0.130486737914E+04   -0.16473E-04   -0.14670E-04  2624   0.232E-02    0.192E-02
DAV:  22    -0.130486738153E+04   -0.23920E-05   -0.49054E-05  2296   0.125E-02    0.700E-03
DAV:  23    -0.130486738422E+04   -0.26865E-05   -0.22016E-05  1744   0.878E-03    0.464E-03
DAV:  24    -0.130486738539E+04   -0.11719E-05   -0.72787E-06  1144   0.660E-03    0.483E-03
DAV:  25    -0.130486738682E+04   -0.14278E-05   -0.41807E-06  1120   0.537E-03    0.165E-03
DAV:  26    -0.130486738646E+04    0.35411E-06   -0.16591E-06   992   0.422E-03
   1 F= -.13048674E+04 E0= -.13048033E+04  d E =-.130487E+04
 BRION: g(F)=  0.102E+03 g(S)=  0.000E+00
 bond charge predicted
       N       E                     dE             d eps       ncg     rms          rms(c)
DAV:   1    -0.122023338364E+04    0.84634E+02   -0.12386E+04  1744   0.169E+02    0.452E+01
DAV:   2    -0.133760516715E+04   -0.11737E+03   -0.13378E+03  2576   0.826E+01    0.218E+01
DAV:   3    -0.133381440377E+04    0.37908E+01   -0.80461E+01  2616   0.221E+01    0.143E+01
DAV:   4    -0.133017622926E+04    0.36382E+01   -0.34148E+01  2416   0.117E+01    0.675E+00
DAV:   5    -0.133006431158E+04    0.11192E+00   -0.88540E+00  2568   0.646E+00    0.478E+00
DAV:   6    -0.132989958442E+04    0.16473E+00   -0.55656E+00  2544   0.413E+00    0.274E+00
DAV:   7    -0.132987134899E+04    0.28235E-01   -0.87614E-01  2544   0.241E+00    0.174E+00
DAV:   8    -0.132986577925E+04    0.55697E-02   -0.89355E-01  2496   0.159E+00    0.101E+00
DAV:   9    -0.132986955040E+04   -0.37711E-02   -0.16286E-01  2544   0.827E-01    0.795E-01
DAV:  10    -0.132986310233E+04    0.64481E-02   -0.55887E-02  2624   0.469E-01    0.371E-01
DAV:  11    -0.132986411294E+04   -0.10106E-02   -0.30630E-02  2592   0.305E-01    0.181E-01
DAV:  12    -0.132986425721E+04   -0.14427E-03   -0.43452E-03  2616   0.163E-01    0.982E-02
DAV:  13    -0.132986431122E+04   -0.54013E-04   -0.23705E-03  2616   0.817E-02    0.340E-02
DAV:  14    -0.132986434446E+04   -0.33242E-04   -0.41486E-04  2624   0.451E-02    0.180E-02
DAV:  15    -0.132986435678E+04   -0.12321E-04   -0.13549E-04  2624   0.207E-02    0.120E-02
DAV:  16    -0.132986436201E+04   -0.52211E-05   -0.46560E-05  2488   0.137E-02    0.572E-03
DAV:  17    -0.132986436401E+04   -0.20048E-05   -0.21656E-05  2176   0.831E-03    0.685E-03
DAV:  18    -0.132986436397E+04    0.37689E-07   -0.50856E-06  1232   0.566E-03
   2 F= -.13298644E+04 E0= -.13298644E+04  d E =-.249970E+02
 BRION: g(F)=  0.134E+03 g(S)=  0.000E+00 retain N=  1 mean eig= 0.45
 eig:   0.454
 bond charge predicted
       N       E                     dE             d eps       ncg     rms          rms(c)
DAV:   1    -0.129789212925E+04    0.31972E+02   -0.48833E+03  1360   0.932E+01    0.276E+01
DAV:   2    -0.134819891350E+04   -0.50307E+02   -0.61709E+02  2544   0.457E+01    0.267E+01
DAV:   3    -0.134570773099E+04    0.24912E+01   -0.47579E+01  2592   0.162E+01    0.205E+01
DAV:   4    -0.134270026492E+04    0.30075E+01   -0.44117E+01  2136   0.900E+00    0.102E+01
DAV:   5    -0.134367804696E+04   -0.97778E+00   -0.12442E+01  2432   0.577E+00    0.103E+01
DAV:   6    -0.134185387136E+04    0.18242E+01   -0.17705E+01  2384   0.551E+00    0.231E+00
DAV:   7    -0.134198485055E+04   -0.13098E+00   -0.26476E+00  2424   0.357E+00    0.161E+00
DAV:   8    -0.134198260122E+04    0.22493E-02   -0.58657E-01  2616   0.134E+00    0.798E-01
DAV:   9    -0.134198281669E+04   -0.21547E-03   -0.12635E-01  2576   0.673E-01    0.536E-01
DAV:  10    -0.134198311423E+04   -0.29754E-03   -0.37100E-02  2448   0.380E-01    0.229E-01
DAV:  11    -0.134198367828E+04   -0.56405E-03   -0.15301E-02  2608   0.231E-01    0.205E-01
DAV:  12    -0.134198333543E+04    0.34285E-03   -0.56702E-03  2552   0.144E-01    0.118E-01
DAV:  13    -0.134198335386E+04   -0.18431E-04   -0.34709E-03  2520   0.103E-01    0.702E-02
DAV:  14    -0.134198333875E+04    0.15111E-04   -0.79896E-04  2552   0.556E-02    0.386E-02
DAV:  15    -0.134198334275E+04   -0.39977E-05   -0.26711E-04  2600   0.308E-02    0.183E-02
DAV:  16    -0.134198334405E+04   -0.13015E-05   -0.93724E-05  2584   0.181E-02    0.974E-03
DAV:  17    -0.134198334628E+04   -0.22294E-05   -0.22157E-05  2256   0.108E-02    0.483E-03
DAV:  18    -0.134198334627E+04    0.13824E-08   -0.41864E-06  1160   0.516E-03
   3 F= -.13419833E+04 E0= -.13419833E+04  d E =-.121190E+02
 BRION: g(F)=  0.260E+02 g(S)=  0.000E+00 retain N=  2 mean eig= 1.33
 eig:   0.303  2.360
 bond charge predicted
       N       E                     dE             d eps       ncg     rms          rms(c)
DAV:   1    -0.134037164396E+04    0.16117E+01   -0.90376E+02  1368   0.376E+01    0.931E+00
DAV:   2    -0.134672612811E+04   -0.63545E+01   -0.73789E+01  2392   0.173E+01    0.506E+00
DAV:   3    -0.134654976823E+04    0.17636E+00   -0.49422E+00  2512   0.537E+00    0.419E+00
DAV:   4    -0.134628059316E+04    0.26918E+00   -0.24037E+00  2280   0.250E+00    0.190E+00
DAV:   5    -0.134628865201E+04   -0.80588E-02   -0.72537E-01  2456   0.160E+00    0.199E+00
DAV:   6    -0.134622955929E+04    0.59093E-01   -0.47210E-01  2512   0.131E+00    0.811E-01
DAV:   7    -0.134623246475E+04   -0.29055E-02   -0.20664E-01  2464   0.767E-01    0.657E-01
DAV:   8    -0.134623068976E+04    0.17750E-02   -0.41098E-02  2600   0.378E-01    0.453E-01
DAV:   9    -0.134622776614E+04    0.29236E-02   -0.15820E-02  2520   0.223E-01    0.203E-01
DAV:  10    -0.134622844755E+04   -0.68141E-03   -0.16463E-02  2400   0.193E-01    0.183E-01
DAV:  11    -0.134622786063E+04    0.58692E-03   -0.30987E-03  2512   0.120E-01    0.756E-02
DAV:  12    -0.134622791709E+04   -0.56459E-04   -0.15296E-03  2528   0.650E-02    0.275E-02
DAV:  13    -0.134622793082E+04   -0.13736E-04   -0.14640E-04  2608   0.268E-02    0.194E-02
DAV:  14    -0.134622793026E+04    0.56901E-06   -0.34795E-05  2464   0.122E-02    0.147E-02
DAV:  15    -0.134622792972E+04    0.53900E-06   -0.28328E-05  2384   0.942E-03    0.447E-03
DAV:  16    -0.134622792963E+04    0.90746E-07   -0.23367E-06  1112   0.476E-03
   4 F= -.13462279E+04 E0= -.13462279E+04  d E =-.424458E+01
 BRION: g(F)=  0.859E+01 g(S)=  0.000E+00 retain N=  3 mean eig= 2.19
 eig:   5.814  0.373  0.373
 bond charge predicted
       N       E                     dE             d eps       ncg     rms          rms(c)
DAV:   1    -0.134778339306E+04   -0.15555E+01   -0.26708E+02  1360   0.223E+01    0.410E+00
DAV:   2    -0.134919025644E+04   -0.14069E+01   -0.15404E+01  2344   0.861E+00    0.224E+00
DAV:   3    -0.134919766456E+04   -0.74081E-02   -0.10205E+00  2608   0.204E+00    0.179E+00
DAV:   4    -0.134914793719E+04    0.49727E-01   -0.34668E-01  2448   0.114E+00    0.787E-01
DAV:   5    -0.134914634737E+04    0.15898E-02   -0.99391E-02  2472   0.663E-01    0.611E-01
DAV:   6    -0.134914421517E+04    0.21322E-02   -0.83609E-02  2520   0.489E-01    0.267E-01
DAV:   7    -0.134914422760E+04   -0.12434E-04   -0.16710E-02  2360   0.255E-01    0.226E-01
DAV:   8    -0.134914400796E+04    0.21964E-03   -0.59526E-03  2416   0.129E-01    0.106E-01
DAV:   9    -0.134914402907E+04   -0.21112E-04   -0.26990E-03  2600   0.865E-02    0.686E-02
DAV:  10    -0.134914404093E+04   -0.11856E-04   -0.62829E-04  2488   0.511E-02    0.556E-02
DAV:  11    -0.134914401936E+04    0.21563E-04   -0.40688E-04  2544   0.353E-02    0.225E-02
DAV:  12    -0.134914402255E+04   -0.31860E-05   -0.11332E-04  2496   0.201E-02    0.140E-02
DAV:  13    -0.134914402360E+04   -0.10540E-05   -0.26566E-05  2440   0.107E-02    0.848E-03
DAV:  14    -0.134914402336E+04    0.24012E-06   -0.99782E-06  1728   0.631E-03
   5 F= -.13491440E+04 E0= -.13491440E+04  d E =-.291609E+01
 BRION: g(F)=  0.336E+01 g(S)=  0.000E+00 retain N=  4 mean eig= 2.09
 eig:   7.080  0.412  0.412  0.454
 bond charge predicted
       N       E                     dE             d eps       ncg     rms          rms(c)
DAV:   1    -0.134991111878E+04   -0.76710E+00   -0.16481E+02  1344   0.169E+01    0.286E+00
DAV:   2    -0.135065400067E+04   -0.74288E+00   -0.78619E+00  2296   0.610E+00    0.142E+00
DAV:   3    -0.135065573535E+04   -0.17347E-02   -0.45464E-01  2624   0.123E+00    0.111E+00
DAV:   4    -0.135062702297E+04    0.28712E-01   -0.16507E-01  2328   0.789E-01    0.431E-01
DAV:   5    -0.135062915239E+04   -0.21294E-02   -0.51316E-02  2440   0.436E-01    0.367E-01
DAV:   6    -0.135062831133E+04    0.84106E-03   -0.28102E-02  2504   0.269E-01    0.144E-01
DAV:   7    -0.135062831635E+04   -0.50147E-05   -0.38061E-03  2440   0.132E-01    0.947E-02
DAV:   8    -0.135062831962E+04   -0.32755E-05   -0.15011E-03  2520   0.688E-02    0.366E-02
DAV:   9    -0.135062833929E+04   -0.19668E-04   -0.40332E-04  2600   0.397E-02    0.284E-02
DAV:  10    -0.135062834360E+04   -0.43045E-05   -0.10857E-04  2552   0.191E-02    0.149E-02
DAV:  11    -0.135062834424E+04   -0.63947E-06   -0.42097E-05  2456   0.125E-02    0.772E-03
DAV:  12    -0.135062834526E+04   -0.10247E-05   -0.12619E-05  1912   0.760E-03    0.601E-03
DAV:  13    -0.135062834505E+04    0.20927E-06   -0.22987E-06  1088   0.465E-03
   6 F= -.13506283E+04 E0= -.13506283E+04  d E =-.148432E+01
 BRION: g(F)=  0.194E+01 g(S)=  0.000E+00 retain N=  5 mean eig= 2.25
 eig:   6.485  2.997  0.638  0.638  0.479
 bond charge predicted
       N       E                     dE             d eps       ncg     rms          rms(c)
DAV:   1    -0.135052909398E+04    0.99251E-01   -0.36808E+02  1368   0.263E+01    0.386E+00
DAV:   2    -0.135239873982E+04   -0.18696E+01   -0.19543E+01  2280   0.972E+00    0.197E+00
DAV:   3    -0.135245473766E+04   -0.55998E-01   -0.13440E+00  2608   0.204E+00    0.167E+00
DAV:   4    -0.135240951058E+04    0.45227E-01   -0.24491E-01  2576   0.997E-01    0.929E-01
DAV:   5    -0.135239338529E+04    0.16125E-01   -0.94368E-02  2504   0.577E-01    0.434E-01
DAV:   6    -0.135239454714E+04   -0.11618E-02   -0.40893E-02  2552   0.382E-01    0.314E-01
DAV:   7    -0.135239372993E+04    0.81721E-03   -0.15710E-02  2488   0.239E-01    0.179E-01
DAV:   8    -0.135239394186E+04   -0.21193E-03   -0.72279E-03  2568   0.138E-01    0.100E-01
DAV:   9    -0.135239386079E+04    0.81070E-04   -0.10556E-03  2584   0.659E-02    0.713E-02
DAV:  10    -0.135239386160E+04   -0.81022E-06   -0.90234E-04  2344   0.501E-02    0.346E-02
DAV:  11    -0.135239386234E+04   -0.74059E-06   -0.22577E-04  2568   0.318E-02    0.167E-02
DAV:  12    -0.135239386779E+04   -0.54502E-05   -0.97518E-05  2552   0.175E-02    0.121E-02
DAV:  13    -0.135239386797E+04   -0.17797E-06   -0.24490E-05  2216   0.101E-02    0.684E-03
DAV:  14    -0.135239386792E+04    0.46450E-07   -0.55774E-06  1336   0.609E-03
   7 F= -.13523939E+04 E0= -.13523939E+04  d E =-.176552E+01
 BRION: g(F)=  0.101E+01 g(S)=  0.000E+00 retain N=  6 mean eig= 2.14
 eig:   6.931  2.989  0.889  0.889  0.483  0.679
 bond charge predicted
       N       E                     dE             d eps       ncg     rms          rms(c)
DAV:   1    -0.135269094048E+04   -0.29707E+00   -0.88478E+01  1368   0.131E+01    0.205E+00
DAV:   2    -0.135311697919E+04   -0.42604E+00   -0.45014E+00  2280   0.487E+00    0.955E-01
DAV:   3    -0.135313550905E+04   -0.18530E-01   -0.33936E-01  2616   0.102E+00    0.767E-01
DAV:   4    -0.135312587636E+04    0.96327E-02   -0.52409E-02  2568   0.510E-01    0.406E-01
DAV:   5    -0.135312438077E+04    0.14956E-02   -0.23559E-02  2432   0.311E-01    0.209E-01
DAV:   6    -0.135312464919E+04   -0.26842E-03   -0.10539E-02  2576   0.195E-01    0.143E-01
DAV:   7    -0.135312458145E+04    0.67733E-04   -0.28828E-03  2552   0.106E-01    0.973E-02
DAV:   8    -0.135312453285E+04    0.48598E-04   -0.91697E-04  2608   0.579E-02    0.530E-02
DAV:   9    -0.135312452387E+04    0.89792E-05   -0.28261E-04  2568   0.359E-02    0.268E-02
DAV:  10    -0.135312453547E+04   -0.11597E-04   -0.16839E-04  2512   0.239E-02    0.247E-02
DAV:  11    -0.135312452796E+04    0.75089E-05   -0.57649E-05  2416   0.155E-02    0.101E-02
DAV:  12    -0.135312452929E+04   -0.13246E-05   -0.24909E-05  2144   0.911E-03    0.739E-03
DAV:  13    -0.135312452850E+04    0.78850E-06   -0.29104E-06  1096   0.582E-03
   8 F= -.13531245E+04 E0= -.13531245E+04  d E =-.730661E+00
 BRION: g(F)=  0.674E+00 g(S)=  0.000E+00 retain N=  7 mean eig= 2.22
 eig:   7.274  4.629  0.969  0.969  0.483  0.622  0.622
 bond charge predicted
       N       E                     dE             d eps       ncg     rms          rms(c)
DAV:   1    -0.135343106873E+04   -0.30654E+00   -0.62225E+01  1368   0.112E+01    0.158E+00
DAV:   2    -0.135373521873E+04   -0.30415E+00   -0.32209E+00  2272   0.412E+00    0.771E-01
DAV:   3    -0.135375018983E+04   -0.14971E-01   -0.25085E-01  2624   0.876E-01    0.627E-01
DAV:   4    -0.135374444426E+04    0.57456E-02   -0.35722E-02  2584   0.422E-01    0.357E-01
DAV:   5    -0.135374297048E+04    0.14738E-02   -0.14607E-02  2448   0.238E-01    0.166E-01
DAV:   6    -0.135374324429E+04   -0.27382E-03   -0.59378E-03  2576   0.152E-01    0.114E-01
DAV:   7    -0.135374318024E+04    0.64049E-04   -0.23556E-03  2520   0.938E-02    0.719E-02
DAV:   8    -0.135374319757E+04   -0.17332E-04   -0.89653E-04  2616   0.550E-02    0.448E-02
DAV:   9    -0.135374318177E+04    0.15805E-04   -0.16765E-04  2608   0.282E-02    0.293E-02
DAV:  10    -0.135374318715E+04   -0.53815E-05   -0.17476E-04  2368   0.218E-02    0.193E-02
DAV:  11    -0.135374318400E+04    0.31548E-05   -0.44752E-05  2416   0.151E-02    0.776E-03
DAV:  12    -0.135374318564E+04   -0.16401E-05   -0.25289E-05  2176   0.909E-03    0.738E-03
DAV:  13    -0.135374318471E+04    0.92998E-06   -0.22395E-06  1056   0.565E-03
   9 F= -.13537432E+04 E0= -.13537432E+04  d E =-.618656E+00
 BRION: g(F)=  0.481E+00 g(S)=  0.000E+00 retain N=  8 mean eig= 2.23
 eig:   7.527  5.035  1.406  1.406  0.642  0.642  0.572  0.572
 bond charge predicted
       N       E                     dE             d eps       ncg     rms          rms(c)
DAV:   1    -0.135393087845E+04   -0.18769E+00   -0.10663E+02  1376   0.148E+01    0.181E+00
DAV:   2    -0.135445798425E+04   -0.52711E+00   -0.55768E+00  2264   0.549E+00    0.926E-01
DAV:   3    -0.135449144410E+04   -0.33460E-01   -0.45302E-01  2616   0.118E+00    0.766E-01
DAV:   4    -0.135448574447E+04    0.56996E-02   -0.45818E-02  2608   0.520E-01    0.534E-01
DAV:   5    -0.135448085393E+04    0.48905E-02   -0.26356E-02  2336   0.317E-01    0.214E-01
DAV:   6    -0.135448167873E+04   -0.82480E-03   -0.13780E-02  2480   0.228E-01    0.197E-01
DAV:   7    -0.135448144028E+04    0.23845E-03   -0.65987E-03  2520   0.154E-01    0.124E-01
DAV:   8    -0.135448137592E+04    0.64362E-04   -0.25161E-03  2560   0.958E-02    0.649E-02
DAV:   9    -0.135448135896E+04    0.16956E-04   -0.40313E-04  2544   0.441E-02    0.463E-02
DAV:  10    -0.135448136132E+04   -0.23552E-05   -0.22831E-04  2552   0.268E-02    0.226E-02
DAV:  11    -0.135448136308E+04   -0.17663E-05   -0.67397E-05  2488   0.187E-02    0.116E-02
DAV:  12    -0.135448136413E+04   -0.10466E-05   -0.27228E-05  2384   0.118E-02    0.110E-02
DAV:  13    -0.135448136331E+04    0.82240E-06   -0.15701E-05  1840   0.728E-03    0.604E-03
DAV:  14    -0.135448136298E+04    0.32388E-06   -0.20794E-06  1056   0.491E-03
  10 F= -.13544814E+04 E0= -.13544814E+04  d E =-.738178E+00
 BRION: g(F)=  0.343E+00 g(S)=  0.000E+00 retain N=  8 mean eig= 2.08
 eig:   5.019  3.799  3.799  1.167  1.167  0.428  0.611  0.611
 bond charge predicted
       N       E                     dE             d eps       ncg     rms          rms(c)
DAV:   1    -0.135468551341E+04   -0.20415E+00   -0.67221E+01  1384   0.118E+01    0.142E+00
DAV:   2    -0.135502387023E+04   -0.33836E+00   -0.35722E+00  2264   0.441E+00    0.722E-01
DAV:   3    -0.135504403809E+04   -0.20168E-01   -0.28559E-01  2616   0.942E-01    0.592E-01
DAV:   4    -0.135503978102E+04    0.42571E-02   -0.29612E-02  2616   0.413E-01    0.404E-01
DAV:   5    -0.135503622165E+04    0.35594E-02   -0.14846E-02  2368   0.249E-01    0.160E-01
DAV:   6    -0.135503668271E+04   -0.46106E-03   -0.92110E-03  2456   0.183E-01    0.136E-01
DAV:   7    -0.135503660582E+04    0.76888E-04   -0.34017E-03  2464   0.113E-01    0.952E-02
DAV:   8    -0.135503657781E+04    0.28008E-04   -0.15702E-03  2600   0.722E-02    0.496E-02
DAV:   9    -0.135503656352E+04    0.14295E-04   -0.26588E-04  2440   0.353E-02    0.362E-02
DAV:  10    -0.135503656237E+04    0.11514E-05   -0.12645E-04  2504   0.209E-02    0.198E-02
DAV:  11    -0.135503656286E+04   -0.48972E-06   -0.43708E-05  2448   0.143E-02    0.101E-02
DAV:  12    -0.135503656345E+04   -0.58983E-06   -0.17854E-05  2192   0.950E-03    0.906E-03
DAV:  13    -0.135503656281E+04    0.63880E-06   -0.11449E-05  1680   0.657E-03    0.445E-03
DAV:  14    -0.135503656267E+04    0.13933E-06   -0.17850E-06   992   0.482E-03
  11 F= -.13550366E+04 E0= -.13550366E+04  d E =-.555200E+00
 BRION: g(F)=  0.299E+00 g(S)=  0.000E+00 retain N=  9 mean eig= 2.29
 eig:   5.438  4.659  4.659  1.714  1.714  0.472  0.472  0.762  0.762
 bond charge predicted
       N       E                     dE             d eps       ncg     rms          rms(c)
DAV:   1    -0.135524556735E+04   -0.20900E+00   -0.43655E+01  1384   0.946E+00    0.113E+00
DAV:   2    -0.135547108979E+04   -0.22552E+00   -0.23859E+00  2272   0.365E+00    0.584E-01
DAV:   3    -0.135548458619E+04   -0.13496E-01   -0.19189E-01  2592   0.756E-01    0.479E-01
DAV:   4    -0.135548199176E+04    0.25944E-02   -0.19967E-02  2616   0.336E-01    0.336E-01
DAV:   5    -0.135547971702E+04    0.22747E-02   -0.91315E-03  2392   0.190E-01    0.144E-01
DAV:   6    -0.135547983923E+04   -0.12221E-03   -0.57397E-03  2408   0.146E-01    0.995E-02
DAV:   7    -0.135547984132E+04   -0.20875E-05   -0.27038E-03  2464   0.986E-02    0.764E-02
DAV:   8    -0.135547983053E+04    0.10784E-04   -0.10250E-03  2592   0.599E-02    0.475E-02
DAV:   9    -0.135547981490E+04    0.15636E-04   -0.23701E-04  2528   0.310E-02    0.308E-02
DAV:  10    -0.135547981598E+04   -0.10822E-05   -0.91046E-05  2560   0.179E-02    0.179E-02
DAV:  11    -0.135547981800E+04   -0.20156E-05   -0.34792E-05  2384   0.124E-02    0.116E-02
DAV:  12    -0.135547981658E+04    0.14192E-05   -0.17565E-05  2160   0.990E-03    0.807E-03
DAV:  13    -0.135547981650E+04    0.77824E-07   -0.13090E-05  1792   0.666E-03    0.438E-03
DAV:  14    -0.135547981630E+04    0.19492E-06   -0.15428E-06   952   0.449E-03
  12 F= -.13554798E+04 E0= -.13554798E+04  d E =-.443254E+00
 BRION: g(F)=  0.241E+00 g(S)=  0.000E+00 retain N= 10 mean eig= 2.66
 eig:   6.087  6.087  5.422  2.759  2.759  0.895  0.895  0.542  0.542  0.599
 bond charge predicted
       N       E                     dE             d eps       ncg     rms          rms(c)
DAV:   1    -0.135566074960E+04   -0.18093E+00   -0.46723E+01  1400   0.979E+00    0.118E+00
DAV:   2    -0.135590273000E+04   -0.24198E+00   -0.25568E+00  2272   0.379E+00    0.599E-01
DAV:   3    -0.135591772169E+04   -0.14992E-01   -0.20806E-01  2608   0.781E-01    0.492E-01
DAV:   4    -0.135591492178E+04    0.27999E-02   -0.20770E-02  2608   0.347E-01    0.346E-01
DAV:   5    -0.135591227570E+04    0.26461E-02   -0.10538E-02  2352   0.203E-01    0.140E-01
DAV:   6    -0.135591255462E+04   -0.27892E-03   -0.65962E-03  2448   0.152E-01    0.112E-01
DAV:   7    -0.135591250919E+04    0.45435E-04   -0.26742E-03  2456   0.984E-02    0.790E-02
DAV:   8    -0.135591249045E+04    0.18738E-04   -0.11521E-03  2576   0.636E-02    0.455E-02
DAV:   9    -0.135591247712E+04    0.13325E-04   -0.21707E-04  2496   0.310E-02    0.310E-02
DAV:  10    -0.135591247781E+04   -0.68628E-06   -0.85942E-05  2552   0.172E-02    0.168E-02
DAV:  11    -0.135591247965E+04   -0.18378E-05   -0.31405E-05  2416   0.119E-02    0.107E-02
DAV:  12    -0.135591247884E+04    0.81284E-06   -0.13384E-05  1992   0.895E-03    0.820E-03
DAV:  13    -0.135591247867E+04    0.17052E-06   -0.12741E-05  1728   0.629E-03    0.447E-03
DAV:  14    -0.135591247843E+04    0.23821E-06   -0.14335E-06   960   0.437E-03
  13 F= -.13559125E+04 E0= -.13559125E+04  d E =-.432662E+00
 BRION: g(F)=  0.205E+00 g(S)=  0.000E+00 retain N= 10 mean eig= 2.92
 eig:   7.351  7.351  5.794  2.194  2.194  1.121  1.121  0.232  0.909  0.909
 bond charge predicted
       N       E                     dE             d eps       ncg     rms          rms(c)
DAV:   1    -0.135603517002E+04   -0.12269E+00   -0.74998E+01  1400   0.124E+01    0.142E+00
DAV:   2    -0.135642464803E+04   -0.38948E+00   -0.41013E+00  2296   0.482E+00    0.734E-01
DAV:   3    -0.135644868825E+04   -0.24040E-01   -0.32925E-01  2576   0.963E-01    0.602E-01
DAV:   4    -0.135644506906E+04    0.36192E-02   -0.31752E-02  2608   0.425E-01    0.447E-01
DAV:   5    -0.135644023802E+04    0.48310E-02   -0.14446E-02  2360   0.245E-01    0.204E-01
DAV:   6    -0.135644017229E+04    0.65730E-04   -0.12762E-02  2320   0.213E-01    0.128E-01
DAV:   7    -0.135644027171E+04   -0.99417E-04   -0.56793E-03  2464   0.141E-01    0.112E-01
DAV:   8    -0.135644021473E+04    0.56979E-04   -0.16915E-03  2592   0.817E-02    0.696E-02
DAV:   9    -0.135644016920E+04    0.45532E-04   -0.57762E-04  2544   0.447E-02    0.373E-02
DAV:  10    -0.135644017923E+04   -0.10029E-04   -0.16435E-04  2544   0.259E-02    0.246E-02
DAV:  11    -0.135644018338E+04   -0.41530E-05   -0.58030E-05  2448   0.157E-02    0.188E-02
DAV:  12    -0.135644017960E+04    0.37751E-05   -0.45877E-05  2296   0.146E-02    0.141E-02
DAV:  13    -0.135644017860E+04    0.10069E-05   -0.30580E-05  2272   0.102E-02    0.802E-03
DAV:  14    -0.135644017827E+04    0.33010E-06   -0.70606E-06  1624   0.557E-03
  14 F= -.13564402E+04 E0= -.13564402E+04  d E =-.527700E+00
 BRION: g(F)=  0.176E+00 g(S)=  0.000E+00 retain N=  9 mean eig= 2.94
 eig:   7.547  7.547  2.813  2.813  1.251  1.251  1.125  1.125  0.985
 bond charge predicted
       N       E                     dE             d eps       ncg     rms          rms(c)
DAV:   1    -0.135658268299E+04   -0.14250E+00   -0.50203E+01  1376   0.101E+01    0.116E+00
DAV:   2    -0.135684206484E+04   -0.25938E+00   -0.27313E+00  2280   0.394E+00    0.594E-01
DAV:   3    -0.135685831258E+04   -0.16248E-01   -0.22166E-01  2584   0.792E-01    0.484E-01
DAV:   4    -0.135685591323E+04    0.23994E-02   -0.20639E-02  2600   0.347E-01    0.362E-01
DAV:   5    -0.135685262547E+04    0.32878E-02   -0.97020E-03  2368   0.198E-01    0.164E-01
DAV:   6    -0.135685253799E+04    0.87484E-04   -0.81968E-03  2280   0.170E-01    0.101E-01
DAV:   7    -0.135685263195E+04   -0.93967E-04   -0.38449E-03  2456   0.113E-01    0.884E-02
DAV:   8    -0.135685259699E+04    0.34964E-04   -0.10646E-03  2592   0.664E-02    0.562E-02
DAV:   9    -0.135685256807E+04    0.28920E-04   -0.39575E-04  2528   0.367E-02    0.297E-02
DAV:  10    -0.135685257603E+04   -0.79592E-05   -0.10977E-04  2512   0.211E-02    0.200E-02
DAV:  11    -0.135685257800E+04   -0.19736E-05   -0.39160E-05  2384   0.129E-02    0.147E-02
DAV:  12    -0.135685257627E+04    0.17325E-05   -0.31996E-05  2256   0.119E-02    0.117E-02
DAV:  13    -0.135685257534E+04    0.93429E-06   -0.17523E-05  1984   0.813E-03    0.692E-03
DAV:  14    -0.135685257487E+04    0.46763E-06   -0.37037E-06  1208   0.539E-03
  15 F= -.13568526E+04 E0= -.13568526E+04  d E =-.412397E+00
 BRION: g(F)=  0.163E+00 g(S)=  0.000E+00 retain N=  8 mean eig= 3.38
 eig:   7.941  7.941  2.944  2.944  1.528  1.528  1.127  1.127
 bond charge predicted
       N       E                     dE             d eps       ncg     rms          rms(c)
DAV:   1    -0.135701386978E+04   -0.16129E+00   -0.28416E+01  1376   0.766E+00    0.878E-01
DAV:   2    -0.135716061518E+04   -0.14675E+00   -0.15486E+00  2280   0.297E+00    0.451E-01
DAV:   3    -0.135717015514E+04   -0.95400E-02   -0.12784E-01  2584   0.599E-01    0.369E-01
DAV:   4    -0.135716882468E+04    0.13305E-02   -0.12200E-02  2608   0.266E-01    0.273E-01
DAV:   5    -0.135716707679E+04    0.17479E-02   -0.58219E-03  2400   0.153E-01    0.121E-01
DAV:   6    -0.135716709919E+04   -0.22399E-04   -0.44190E-03  2352   0.126E-01    0.818E-02
DAV:   7    -0.135716712111E+04   -0.21916E-04   -0.20949E-03  2448   0.856E-02    0.658E-02
DAV:   8    -0.135716710434E+04    0.16762E-04   -0.68861E-04  2576   0.522E-02    0.409E-02
DAV:   9    -0.135716709188E+04    0.12461E-04   -0.19091E-04  2560   0.267E-02    0.237E-02
DAV:  10    -0.135716709467E+04   -0.27886E-05   -0.52886E-05  2560   0.144E-02    0.146E-02
DAV:  11    -0.135716709636E+04   -0.16855E-05   -0.16816E-05  2120   0.907E-03    0.110E-02
DAV:  12    -0.135716709505E+04    0.13094E-05   -0.15679E-05  1904   0.848E-03    0.792E-03
DAV:  13    -0.135716709482E+04    0.22400E-06   -0.95630E-06  1768   0.632E-03
  16 F= -.13571671E+04 E0= -.13571671E+04  d E =-.314520E+00
 BRION: g(F)=  0.154E+00 g(S)=  0.000E+00 retain N=  5 mean eig= 4.13
 eig:   7.864  7.864  1.139  1.886  1.886
 bond charge predicted
       N       E                     dE             d eps       ncg     rms          rms(c)
DAV:   1    -0.135733695178E+04   -0.16986E+00   -0.20305E+01  1368   0.644E+00    0.731E-01
DAV:   2    -0.135744139776E+04   -0.10445E+00   -0.10995E+00  2304   0.248E+00    0.375E-01
DAV:   3    -0.135744813311E+04   -0.67354E-02   -0.90249E-02  2560   0.494E-01    0.302E-01
DAV:   4    -0.135744719162E+04    0.94149E-03   -0.86220E-03  2584   0.221E-01    0.224E-01
DAV:   5    -0.135744593393E+04    0.12577E-02   -0.40694E-03  2384   0.131E-01    0.961E-02
DAV:   6    -0.135744595710E+04   -0.23175E-04   -0.30807E-03  2368   0.104E-01    0.643E-02
DAV:   7    -0.135744598134E+04   -0.24235E-04   -0.13252E-03  2488   0.684E-02    0.515E-02
DAV:   8    -0.135744597008E+04    0.11255E-04   -0.40999E-04  2576   0.407E-02    0.303E-02
DAV:   9    -0.135744596346E+04    0.66195E-05   -0.12070E-04  2480   0.213E-02    0.181E-02
DAV:  10    -0.135744596569E+04   -0.22285E-05   -0.37828E-05  2512   0.120E-02    0.118E-02
DAV:  11    -0.135744596618E+04   -0.48750E-06   -0.14771E-05  1968   0.849E-03    0.802E-03
DAV:  12    -0.135744596558E+04    0.60166E-06   -0.78759E-06  1624   0.696E-03
  17 F= -.13574460E+04 E0= -.13574460E+04  d E =-.278871E+00
 BRION: g(F)=  0.150E+00 g(S)=  0.000E+00 retain N=  4 mean eig= 4.42
 eig:   7.276  7.276  1.566  1.566
 bond charge predicted
       N       E                     dE             d eps       ncg     rms          rms(c)
DAV:   1    -0.135758835484E+04   -0.14239E+00   -0.81533E+00  1376   0.407E+00    0.478E-01
DAV:   2    -0.135763046420E+04   -0.42109E-01   -0.44267E-01  2264   0.157E+00    0.239E-01
DAV:   3    -0.135763317411E+04   -0.27099E-02   -0.36706E-02  2576   0.322E-01    0.190E-01
DAV:   4    -0.135763271918E+04    0.45493E-03   -0.35445E-03  2592   0.143E-01    0.136E-01
DAV:   5    -0.135763224256E+04    0.47662E-03   -0.16745E-03  2376   0.853E-02    0.551E-02
DAV:   6    -0.135763227222E+04   -0.29667E-04   -0.11372E-03  2424   0.636E-02    0.399E-02
DAV:   7    -0.135763227906E+04   -0.68397E-05   -0.44691E-04  2464   0.400E-02    0.306E-02
DAV:   8    -0.135763227565E+04    0.34130E-05   -0.14925E-04  2552   0.239E-02    0.173E-02
DAV:   9    -0.135763227357E+04    0.20819E-05   -0.40098E-05  2336   0.127E-02    0.110E-02
DAV:  10    -0.135763227423E+04   -0.65625E-06   -0.15103E-05  1984   0.781E-03    0.704E-03
DAV:  11    -0.135763227375E+04    0.47173E-06   -0.19857E-06  1008   0.568E-03
  18 F= -.13576323E+04 E0= -.13576323E+04  d E =-.186308E+00
 BRION: g(F)=  0.148E+00 g(S)=  0.000E+00 retain N=  4 mean eig= 3.18
 eig:   5.280  5.280  1.082  1.082
 bond charge predicted
       N       E                     dE             d eps       ncg     rms          rms(c)
DAV:   1    -0.135775254288E+04   -0.12027E+00   -0.41177E+00  1368   0.290E+00    0.337E-01
DAV:   2    -0.135777403953E+04   -0.21497E-01   -0.22807E-01  2288   0.113E+00    0.172E-01
DAV:   3    -0.135777548506E+04   -0.14455E-02   -0.19416E-02  2552   0.233E-01    0.140E-01
DAV:   4    -0.135777527391E+04    0.21115E-03   -0.19100E-03  2584   0.104E-01    0.102E-01
DAV:   5    -0.135777502537E+04    0.24854E-03   -0.98669E-04  2384   0.619E-02    0.421E-02
DAV:   6    -0.135777503944E+04   -0.14065E-04   -0.58916E-04  2408   0.465E-02    0.334E-02
DAV:   7    -0.135777503955E+04   -0.11038E-06   -0.29442E-04  2440   0.321E-02    0.235E-02
DAV:   8    -0.135777503786E+04    0.16886E-05   -0.97497E-05  2520   0.198E-02    0.140E-02
DAV:   9    -0.135777503689E+04    0.97326E-06   -0.21241E-05  2280   0.970E-03    0.922E-03
DAV:  10    -0.135777503680E+04    0.82306E-07   -0.51653E-06  1344   0.572E-03
  19 F= -.13577750E+04 E0= -.13577750E+04  d E =-.142763E+00
 BRION: g(F)=  0.147E+00 g(S)=  0.000E+00 retain N=  5 mean eig= 3.79
 eig:   7.736  7.736  1.192  1.192  1.100
 bond charge predicted
       N       E                     dE             d eps       ncg     rms          rms(c)
DAV:   1    -0.135781784937E+04   -0.42812E-01   -0.60166E-01  1416   0.110E+00    0.124E-01
DAV:   2    -0.135782094679E+04   -0.30974E-02   -0.32395E-02  2288   0.420E-01    0.623E-02
DAV:   3    -0.135782114967E+04   -0.20288E-03   -0.26522E-03  2584   0.838E-02    0.511E-02
DAV:   4    -0.135782112419E+04    0.25479E-04   -0.22551E-04  2592   0.364E-02    0.390E-02
DAV:   5    -0.135782108265E+04    0.41540E-04   -0.11268E-04  2336   0.228E-02    0.171E-02
DAV:   6    -0.135782108304E+04   -0.38854E-06   -0.10773E-04  2280   0.193E-02    0.116E-02
DAV:   7    -0.135782108381E+04   -0.77009E-06   -0.42220E-05  2312   0.123E-02    0.972E-03
DAV:   8    -0.135782108330E+04    0.50606E-06   -0.10855E-05  1824   0.724E-03    0.541E-03
DAV:   9    -0.135782108271E+04    0.59378E-06   -0.30868E-06  1104   0.509E-03
  20 F= -.13578211E+04 E0= -.13578211E+04  d E =-.460459E-01
 BRION: g(F)=  0.148E+00 g(S)=  0.000E+00 retain N=  5 mean eig= 1.61
 eig:   3.268  3.268  0.745  0.745  0.028
