 running on  160 total cores
 distrk:  each k-point on  160 cores,    1 groups
 distr:  one band on   20 cores,    8 groups
 using from now: INCAR     
 vasp.5.4.4.18Apr17-6-g9f103f2a35 (build May 01 2020 14:22:42) gamma-only       
  
 POSCAR found type information on POSCAR  O  La Zr Li Al
 POSCAR found :  5 types and     186 ions
 scaLAPACK will be used
 LDA part: xc-table for Pade appr. of Perdew
 POSCAR, INCAR and KPOINTS ok, starting setup
 FFT: planning ...
 WAVECAR not read
 WARNING: random wavefunctions but no delay for mixing, default for NELMDL
 entering main loop
       N       E                     dE             d eps       ncg     rms          rms(c)
DAV:   1     0.252991055059E+05    0.25299E+05   -0.42156E+05  1584   0.253E+03
DAV:   2     0.940811302285E+04   -0.15891E+05   -0.14722E+05  1440   0.704E+02
DAV:   3     0.269916894206E+04   -0.67089E+04   -0.60909E+04  1488   0.355E+02
DAV:   4    -0.371511984853E+03   -0.30707E+04   -0.28679E+04  2056   0.223E+02
DAV:   5    -0.140700106509E+04   -0.10355E+04   -0.99837E+03  2520   0.141E+02    0.117E+02
DAV:   6    -0.129118388736E+04    0.11582E+03   -0.14278E+03  2448   0.653E+01    0.500E+01
DAV:   7    -0.131366851301E+04   -0.22485E+02   -0.37629E+02  2576   0.336E+01    0.250E+01
DAV:   8    -0.132043350755E+04   -0.67650E+01   -0.23441E+02  2552   0.252E+01    0.245E+01
DAV:   9    -0.131524813544E+04    0.51854E+01   -0.44185E+01  2528   0.141E+01    0.833E+00
DAV:  10    -0.131586558727E+04   -0.61745E+00   -0.17822E+01  2616   0.768E+00    0.675E+00
DAV:  11    -0.131623243034E+04   -0.36684E+00   -0.45016E+00  2624   0.405E+00    0.443E+00
DAV:  12    -0.131605690849E+04    0.17552E+00   -0.21107E+00  2576   0.312E+00    0.325E+00
DAV:  13    -0.131608533897E+04   -0.28430E-01   -0.75574E-01  2592   0.177E+00    0.191E+00
DAV:  14    -0.131607954284E+04    0.57961E-02   -0.19174E-01  2624   0.887E-01    0.115E+00
DAV:  15    -0.131608352208E+04   -0.39792E-02   -0.62586E-02  2560   0.518E-01    0.913E-01
DAV:  16    -0.131608399711E+04   -0.47503E-03   -0.22373E-02  2624   0.267E-01    0.521E-01
DAV:  17    -0.131608362039E+04    0.37672E-03   -0.13740E-02  2344   0.230E-01    0.301E-01
DAV:  18    -0.131608383965E+04   -0.21925E-03   -0.35178E-03  2328   0.119E-01    0.107E-01
DAV:  19    -0.131608388374E+04   -0.44092E-04   -0.14529E-03  2600   0.773E-02    0.877E-02
DAV:  20    -0.131608390111E+04   -0.17373E-04   -0.56036E-04  2560   0.419E-02    0.277E-02
DAV:  21    -0.131608391907E+04   -0.17955E-04   -0.14265E-04  2568   0.232E-02    0.283E-02
DAV:  22    -0.131608393100E+04   -0.11928E-04   -0.47935E-05  2384   0.124E-02    0.717E-03
DAV:  23    -0.131608392815E+04    0.28463E-05   -0.22209E-05  1784   0.910E-03    0.758E-03
DAV:  24    -0.131608393250E+04   -0.43537E-05   -0.69242E-06  1104   0.682E-03    0.263E-03
DAV:  25    -0.131608393172E+04    0.78263E-06   -0.32185E-06   968   0.475E-03
   1 F= -.13160839E+04 E0= -.13160839E+04  d E =-.131608E+04
 BRION: g(F)=  0.846E+02 g(S)=  0.000E+00
 bond charge predicted
       N       E                     dE             d eps       ncg     rms          rms(c)
DAV:   1    -0.126242448088E+04    0.53659E+02   -0.94259E+03  1712   0.145E+02    0.350E+01
DAV:   2    -0.133950760210E+04   -0.77083E+02   -0.87710E+02  2544   0.664E+01    0.175E+01
DAV:   3    -0.133639283636E+04    0.31148E+01   -0.51387E+01  2616   0.184E+01    0.113E+01
DAV:   4    -0.133375594573E+04    0.26369E+01   -0.21947E+01  2344   0.930E+00    0.548E+00
DAV:   5    -0.133362311419E+04    0.13283E+00   -0.54403E+00  2536   0.503E+00    0.388E+00
DAV:   6    -0.133349237091E+04    0.13074E+00   -0.36657E+00  2552   0.326E+00    0.211E+00
DAV:   7    -0.133345940925E+04    0.32962E-01   -0.49921E-01  2536   0.189E+00    0.148E+00
DAV:   8    -0.133344923636E+04    0.10173E-01   -0.66054E-01  2472   0.134E+00    0.786E-01
DAV:   9    -0.133344978831E+04   -0.55195E-03   -0.96955E-02  2536   0.691E-01    0.619E-01
DAV:  10    -0.133344676471E+04    0.30236E-02   -0.41790E-02  2624   0.364E-01    0.263E-01
DAV:  11    -0.133344733529E+04   -0.57058E-03   -0.18571E-02  2624   0.240E-01    0.152E-01
DAV:  12    -0.133344737856E+04   -0.43273E-04   -0.30357E-03  2536   0.123E-01    0.782E-02
DAV:  13    -0.133344738891E+04   -0.10345E-04   -0.14601E-03  2624   0.679E-02    0.259E-02
DAV:  14    -0.133344741157E+04   -0.22668E-04   -0.23194E-04  2624   0.338E-02    0.136E-02
DAV:  15    -0.133344741877E+04   -0.71938E-05   -0.66490E-05  2624   0.169E-02    0.776E-03
DAV:  16    -0.133344742049E+04   -0.17248E-05   -0.17445E-05  1744   0.933E-03    0.486E-03
DAV:  17    -0.133344742156E+04   -0.10641E-05   -0.13548E-05  1968   0.762E-03    0.389E-03
DAV:  18    -0.133344742165E+04   -0.91080E-07   -0.16136E-06  1056   0.448E-03
   2 F= -.13334474E+04 E0= -.13334474E+04  d E =-.173635E+02
 BRION: g(F)=  0.175E+03 g(S)=  0.000E+00 retain N=  1 mean eig= 0.38
 eig:   0.379
 bond charge predicted
       N       E                     dE             d eps       ncg     rms          rms(c)
DAV:   1    -0.131013358035E+04    0.23314E+02   -0.34805E+03  1320   0.791E+01    0.241E+01
DAV:   2    -0.135273716722E+04   -0.42604E+02   -0.53520E+02  2536   0.393E+01    0.208E+01
DAV:   3    -0.134834782311E+04    0.43893E+01   -0.45872E+01  2584   0.147E+01    0.155E+01
DAV:   4    -0.134484631263E+04    0.35015E+01   -0.33617E+01  2176   0.700E+00    0.629E+00
DAV:   5    -0.134560608452E+04   -0.75977E+00   -0.10099E+01  2456   0.455E+00    0.738E+00
DAV:   6    -0.134458959338E+04    0.10165E+01   -0.80216E+00  2496   0.375E+00    0.145E+00
DAV:   7    -0.134470334709E+04   -0.11375E+00   -0.15354E+00  2472   0.252E+00    0.169E+00
DAV:   8    -0.134466538310E+04    0.37964E-01   -0.25442E-01  2592   0.993E-01    0.105E+00
DAV:   9    -0.134465572553E+04    0.96576E-02   -0.10790E-01  2520   0.565E-01    0.448E-01
DAV:  10    -0.134465455960E+04    0.11659E-02   -0.28571E-02  2592   0.317E-01    0.210E-01
DAV:  11    -0.134465479622E+04   -0.23662E-03   -0.11782E-02  2600   0.207E-01    0.133E-01
DAV:  12    -0.134465481480E+04   -0.18577E-04   -0.32134E-03  2616   0.995E-02    0.621E-02
DAV:  13    -0.134465484666E+04   -0.31859E-04   -0.48531E-04  2616   0.510E-02    0.474E-02
DAV:  14    -0.134465482632E+04    0.20338E-04   -0.27731E-04  2600   0.321E-02    0.206E-02
DAV:  15    -0.134465483425E+04   -0.79228E-05   -0.12580E-04  2584   0.224E-02    0.170E-02
DAV:  16    -0.134465483225E+04    0.19919E-05   -0.31670E-05  2592   0.111E-02    0.816E-03
DAV:  17    -0.134465483202E+04    0.23324E-06   -0.99824E-06  2016   0.680E-03
   3 F= -.13446548E+04 E0= -.13446548E+04  d E =-.112074E+02
 BRION: g(F)=  0.361E+02 g(S)=  0.000E+00 retain N=  2 mean eig= 1.33
 eig:   0.220  2.437
 bond charge predicted
       N       E                     dE             d eps       ncg     rms          rms(c)
DAV:   1    -0.134163195534E+04    0.30229E+01   -0.10089E+03  1352   0.378E+01    0.104E+01
DAV:   2    -0.135038903728E+04   -0.87571E+01   -0.10564E+02  2496   0.188E+01    0.704E+00
DAV:   3    -0.134984443400E+04    0.54460E+00   -0.75546E+00  2456   0.641E+00    0.554E+00
DAV:   4    -0.134938990831E+04    0.45453E+00   -0.54839E+00  2136   0.334E+00    0.225E+00
DAV:   5    -0.134943938679E+04   -0.49478E-01   -0.12481E+00  2368   0.200E+00    0.279E+00
DAV:   6    -0.134929723317E+04    0.14215E+00   -0.82592E-01  2400   0.169E+00    0.913E-01
DAV:   7    -0.134931490608E+04   -0.17673E-01   -0.45448E-01  2408   0.107E+00    0.868E-01
DAV:   8    -0.134931349896E+04    0.14071E-02   -0.66164E-02  2528   0.493E-01    0.752E-01
DAV:   9    -0.134930496942E+04    0.85295E-02   -0.29807E-02  2424   0.300E-01    0.339E-01
DAV:  10    -0.134930504507E+04   -0.75651E-04   -0.31876E-02  2336   0.259E-01    0.163E-01
DAV:  11    -0.134930476458E+04    0.28049E-03   -0.44401E-03  2456   0.132E-01    0.813E-02
DAV:  12    -0.134930482262E+04   -0.58037E-04   -0.10224E-03  2392   0.581E-02    0.385E-02
DAV:  13    -0.134930483076E+04   -0.81417E-05   -0.22352E-04  2608   0.261E-02    0.222E-02
DAV:  14    -0.134930483149E+04   -0.73008E-06   -0.60682E-05  2560   0.182E-02    0.135E-02
DAV:  15    -0.134930483233E+04   -0.84135E-06   -0.42431E-05  2384   0.109E-02    0.632E-03
DAV:  16    -0.134930483210E+04    0.22996E-06   -0.53097E-06  1400   0.659E-03
   4 F= -.13493048E+04 E0= -.13493048E+04  d E =-.465000E+01
 BRION: g(F)=  0.774E+01 g(S)=  0.000E+00 retain N=  2 mean eig= 0.32
 eig:   0.317  0.317
 bond charge predicted
       N       E                     dE             d eps       ncg     rms          rms(c)
DAV:   1    -0.135118780734E+04   -0.18830E+01   -0.29925E+02  1352   0.243E+01    0.407E+00
DAV:   2    -0.135272249486E+04   -0.15347E+01   -0.16616E+01  2312   0.903E+00    0.212E+00
DAV:   3    -0.135275282871E+04   -0.30334E-01   -0.11488E+00  2608   0.214E+00    0.180E+00
DAV:   4    -0.135270454640E+04    0.48282E-01   -0.28747E-01  2520   0.108E+00    0.927E-01
DAV:   5    -0.135269658234E+04    0.79641E-02   -0.11603E-01  2432   0.688E-01    0.596E-01
DAV:   6    -0.135269500935E+04    0.15730E-02   -0.64416E-02  2584   0.492E-01    0.367E-01
DAV:   7    -0.135269457176E+04    0.43759E-03   -0.26878E-02  2424   0.296E-01    0.236E-01
DAV:   8    -0.135269444080E+04    0.13095E-03   -0.61169E-03  2528   0.151E-01    0.124E-01
DAV:   9    -0.135269434398E+04    0.96820E-04   -0.21551E-03  2568   0.868E-02    0.723E-02
DAV:  10    -0.135269444563E+04   -0.10165E-03   -0.12529E-03  2304   0.628E-02    0.791E-02
DAV:  11    -0.135269435884E+04    0.86793E-04   -0.49608E-04  2544   0.431E-02    0.312E-02
DAV:  12    -0.135269436596E+04   -0.71181E-05   -0.24789E-04  2488   0.283E-02    0.176E-02
DAV:  13    -0.135269436699E+04   -0.10331E-05   -0.43157E-05  2480   0.139E-02    0.100E-02
DAV:  14    -0.135269436708E+04   -0.89582E-07   -0.12367E-05  1880   0.669E-03    0.489E-03
DAV:  15    -0.135269436716E+04   -0.75786E-07   -0.20395E-06  1072   0.461E-03
   5 F= -.13526944E+04 E0= -.13526944E+04  d E =-.338954E+01
 BRION: g(F)=  0.364E+01 g(S)=  0.000E+00 retain N=  3 mean eig= 0.39
 eig:   0.229  0.229  0.698
 bond charge predicted
       N       E                     dE             d eps       ncg     rms          rms(c)
DAV:   1    -0.135350982661E+04   -0.81546E+00   -0.21500E+02  1368   0.198E+01    0.311E+00
DAV:   2    -0.135455041169E+04   -0.10406E+01   -0.10997E+01  2288   0.733E+00    0.157E+00
DAV:   3    -0.135456331980E+04   -0.12908E-01   -0.66397E-01  2600   0.150E+00    0.129E+00
DAV:   4    -0.135452719223E+04    0.36128E-01   -0.17385E-01  2504   0.846E-01    0.642E-01
DAV:   5    -0.135452334297E+04    0.38493E-02   -0.74607E-02  2464   0.515E-01    0.416E-01
DAV:   6    -0.135452249313E+04    0.84984E-03   -0.32592E-02  2568   0.326E-01    0.187E-01
DAV:   7    -0.135452256058E+04   -0.67453E-04   -0.79603E-03  2520   0.180E-01    0.134E-01
DAV:   8    -0.135452252869E+04    0.31890E-04   -0.23513E-03  2520   0.908E-02    0.738E-02
DAV:   9    -0.135452252165E+04    0.70425E-05   -0.13893E-03  2544   0.642E-02    0.522E-02
DAV:  10    -0.135452253058E+04   -0.89346E-05   -0.36428E-04  2456   0.372E-02    0.397E-02
DAV:  11    -0.135452251187E+04    0.18712E-04   -0.18896E-04  2544   0.255E-02    0.146E-02
DAV:  12    -0.135452251438E+04   -0.25154E-05   -0.59002E-05  2392   0.150E-02    0.764E-03
DAV:  13    -0.135452251495E+04   -0.56604E-06   -0.11209E-05  1760   0.752E-03    0.526E-03
DAV:  14    -0.135452251508E+04   -0.13065E-06   -0.60620E-06  1544   0.520E-03
   6 F= -.13545225E+04 E0= -.13545225E+04  d E =-.182815E+01
 BRION: g(F)=  0.219E+01 g(S)=  0.000E+00 retain N=  4 mean eig= 0.55
 eig:   0.343  0.131  0.865  0.865
 bond charge predicted
       N       E                     dE             d eps       ncg     rms          rms(c)
DAV:   1    -0.135459426427E+04   -0.71749E-01   -0.38674E+02  1352   0.274E+01    0.393E+00
DAV:   2    -0.135656650566E+04   -0.19722E+01   -0.20684E+01  2288   0.101E+01    0.200E+00
DAV:   3    -0.135661601801E+04   -0.49512E-01   -0.13721E+00  2600   0.212E+00    0.171E+00
DAV:   4    -0.135656686149E+04    0.49157E-01   -0.23361E-01  2568   0.101E+00    0.102E+00
DAV:   5    -0.135654049924E+04    0.26362E-01   -0.11692E-01  2376   0.666E-01    0.447E-01
DAV:   6    -0.135654266952E+04   -0.21703E-02   -0.66382E-02  2456   0.482E-01    0.416E-01
DAV:   7    -0.135654116418E+04    0.15053E-02   -0.23079E-02  2464   0.292E-01    0.262E-01
DAV:   8    -0.135654102336E+04    0.14082E-03   -0.11635E-02  2472   0.179E-01    0.111E-01
DAV:   9    -0.135654097781E+04    0.45551E-04   -0.17558E-03  2416   0.851E-02    0.807E-02
DAV:  10    -0.135654099069E+04   -0.12875E-04   -0.81613E-04  2344   0.508E-02    0.467E-02
DAV:  11    -0.135654097657E+04    0.14118E-04   -0.25648E-04  2584   0.359E-02    0.239E-02
DAV:  12    -0.135654098405E+04   -0.74834E-05   -0.20911E-04  2480   0.250E-02    0.216E-02
DAV:  13    -0.135654097984E+04    0.42063E-05   -0.58772E-05  2392   0.152E-02    0.108E-02
DAV:  14    -0.135654098016E+04   -0.31613E-06   -0.14730E-05  1848   0.785E-03    0.645E-03
DAV:  15    -0.135654098015E+04    0.13926E-07   -0.60155E-06  1440   0.554E-03
   7 F= -.13565410E+04 E0= -.13565410E+04  d E =-.201847E+01
 BRION: g(F)=  0.156E+01 g(S)=  0.000E+00 retain N=  5 mean eig= 0.48
 eig:   0.646  0.646  0.149  0.149  0.815
 bond charge predicted
       N       E                     dE             d eps       ncg     rms          rms(c)
DAV:   1    -0.135701964313E+04   -0.47866E+00   -0.91143E+01  1376   0.135E+01    0.199E+00
DAV:   2    -0.135747759228E+04   -0.45795E+00   -0.48804E+00  2272   0.510E+00    0.999E-01
DAV:   3    -0.135749803556E+04   -0.20443E-01   -0.38063E-01  2608   0.107E+00    0.794E-01
DAV:   4    -0.135748806924E+04    0.99663E-02   -0.52860E-02  2544   0.513E-01    0.463E-01
DAV:   5    -0.135748499740E+04    0.30718E-02   -0.27022E-02  2336   0.313E-01    0.208E-01
DAV:   6    -0.135748549232E+04   -0.49491E-03   -0.10672E-02  2544   0.196E-01    0.156E-01
DAV:   7    -0.135748540446E+04    0.87860E-04   -0.39505E-03  2544   0.118E-01    0.100E-01
DAV:   8    -0.135748536758E+04    0.36878E-04   -0.14311E-03  2616   0.719E-02    0.566E-02
DAV:   9    -0.135748535357E+04    0.14009E-04   -0.29964E-04  2544   0.383E-02    0.356E-02
DAV:  10    -0.135748536839E+04   -0.14824E-04   -0.27760E-04  2432   0.280E-02    0.276E-02
DAV:  11    -0.135748535842E+04    0.99711E-05   -0.72874E-05  2440   0.192E-02    0.110E-02
DAV:  12    -0.135748536116E+04   -0.27410E-05   -0.39729E-05  2280   0.110E-02    0.897E-03
DAV:  13    -0.135748535989E+04    0.12713E-05   -0.30532E-06  1128   0.623E-03    0.534E-03
DAV:  14    -0.135748536080E+04   -0.90622E-06   -0.18051E-05  1624   0.777E-03    0.475E-03
DAV:  15    -0.135748536057E+04    0.23126E-06   -0.17477E-06  1032   0.506E-03
   8 F= -.13574854E+04 E0= -.13574854E+04  d E =-.944380E+00
 BRION: g(F)=  0.643E+00 g(S)=  0.000E+00 retain N=  6 mean eig= 0.84
 eig:   1.557  1.557  1.140  0.060  0.375  0.375
 bond charge predicted
       N       E                     dE             d eps       ncg     rms          rms(c)
DAV:   1    -0.135783290079E+04   -0.34754E+00   -0.77897E+01  1368   0.127E+01    0.164E+00
DAV:   2    -0.135822416750E+04   -0.39127E+00   -0.41424E+00  2264   0.465E+00    0.808E-01
DAV:   3    -0.135824580226E+04   -0.21635E-01   -0.33416E-01  2624   0.102E+00    0.652E-01
DAV:   4    -0.135823943034E+04    0.63719E-02   -0.38873E-02  2600   0.460E-01    0.412E-01
DAV:   5    -0.135823609892E+04    0.33314E-02   -0.18129E-02  2400   0.267E-01    0.168E-01
DAV:   6    -0.135823652795E+04   -0.42903E-03   -0.88899E-03  2520   0.182E-01    0.133E-01
DAV:   7    -0.135823650508E+04    0.22873E-04   -0.36141E-03  2480   0.117E-01    0.891E-02
DAV:   8    -0.135823651034E+04   -0.52575E-05   -0.15098E-03  2568   0.723E-02    0.527E-02
DAV:   9    -0.135823649550E+04    0.14839E-04   -0.25305E-04  2568   0.361E-02    0.393E-02
DAV:  10    -0.135823649579E+04   -0.29516E-06   -0.24991E-04  2336   0.269E-02    0.225E-02
DAV:  11    -0.135823649385E+04    0.19395E-05   -0.66828E-05  2432   0.186E-02    0.929E-03
DAV:  12    -0.135823649624E+04   -0.23887E-05   -0.32757E-05  2328   0.107E-02    0.984E-03
DAV:  13    -0.135823649491E+04    0.13293E-05   -0.80151E-06  1600   0.664E-03    0.440E-03
DAV:  14    -0.135823649518E+04   -0.26671E-06   -0.68407E-06  1560   0.582E-03
   9 F= -.13582365E+04 E0= -.13582365E+04  d E =-.751135E+00
 BRION: g(F)=  0.595E+00 g(S)=  0.000E+00 retain N=  7 mean eig= 1.19
 eig:   3.090  3.090  0.613  0.070  0.384  0.384  0.707
 bond charge predicted
       N       E                     dE             d eps       ncg     rms          rms(c)
DAV:   1    -0.135856283010E+04   -0.32634E+00   -0.93441E+01  1392   0.139E+01    0.175E+00
DAV:   2    -0.135904435074E+04   -0.48152E+00   -0.51188E+00  2296   0.532E+00    0.862E-01
DAV:   3    -0.135907228399E+04   -0.27933E-01   -0.41075E-01  2616   0.108E+00    0.714E-01
DAV:   4    -0.135906576989E+04    0.65141E-02   -0.43722E-02  2624   0.493E-01    0.479E-01
DAV:   5    -0.135906093570E+04    0.48342E-02   -0.21579E-02  2376   0.290E-01    0.189E-01
DAV:   6    -0.135906148616E+04   -0.55045E-03   -0.11692E-02  2472   0.204E-01    0.153E-01
DAV:   7    -0.135906141008E+04    0.76080E-04   -0.48727E-03  2464   0.133E-01    0.102E-01
DAV:   8    -0.135906141729E+04   -0.72100E-05   -0.19875E-03  2584   0.832E-02    0.590E-02
DAV:   9    -0.135906140180E+04    0.15483E-04   -0.35644E-04  2560   0.411E-02    0.439E-02
DAV:  10    -0.135906140266E+04   -0.85405E-06   -0.19420E-04  2560   0.248E-02    0.227E-02
DAV:  11    -0.135906140463E+04   -0.19738E-05   -0.68590E-05  2512   0.177E-02    0.122E-02
DAV:  12    -0.135906140461E+04    0.20402E-07   -0.26487E-05  2336   0.119E-02    0.101E-02
DAV:  13    -0.135906140429E+04    0.32270E-06   -0.19438E-05  2048   0.779E-03    0.560E-03
DAV:  14    -0.135906140402E+04    0.26665E-06   -0.23441E-06  1088   0.500E-03
  10 F= -.13590614E+04 E0= -.13590614E+04  d E =-.824909E+00
 BRION: g(F)=  0.410E+00 g(S)=  0.000E+00 retain N=  8 mean eig= 1.77
 eig:   4.678  4.678  1.703  1.703  0.338  0.209  0.434  0.434
 bond charge predicted
       N       E                     dE             d eps       ncg     rms          rms(c)
DAV:   1    -0.135929589040E+04   -0.23449E+00   -0.97575E+01  1392   0.143E+01    0.179E+00
DAV:   2    -0.135980768438E+04   -0.51179E+00   -0.54640E+00  2288   0.555E+00    0.914E-01
DAV:   3    -0.135983773466E+04   -0.30050E-01   -0.45017E-01  2608   0.115E+00    0.744E-01
DAV:   4    -0.135983003735E+04    0.76973E-02   -0.48834E-02  2608   0.524E-01    0.500E-01
DAV:   5    -0.135982457122E+04    0.54661E-02   -0.24733E-02  2360   0.314E-01    0.200E-01
DAV:   6    -0.135982513879E+04   -0.56756E-03   -0.13945E-02  2472   0.226E-01    0.162E-01
DAV:   7    -0.135982510090E+04    0.37886E-04   -0.59703E-03  2432   0.146E-01    0.111E-01
DAV:   8    -0.135982509832E+04    0.25817E-05   -0.23473E-03  2576   0.907E-02    0.635E-02
DAV:   9    -0.135982507707E+04    0.21253E-04   -0.40056E-04  2568   0.450E-02    0.459E-02
DAV:  10    -0.135982507821E+04   -0.11434E-05   -0.28195E-04  2456   0.298E-02    0.245E-02
DAV:  11    -0.135982507851E+04   -0.29468E-06   -0.89309E-05  2504   0.209E-02    0.107E-02
DAV:  12    -0.135982508087E+04   -0.23610E-05   -0.36124E-05  2392   0.126E-02    0.116E-02
DAV:  13    -0.135982507941E+04    0.14552E-05   -0.16644E-05  1928   0.799E-03    0.579E-03
DAV:  14    -0.135982507951E+04   -0.10319E-06   -0.82610E-06  1728   0.590E-03
  11 F= -.13598251E+04 E0= -.13598251E+04  d E =-.763675E+00
 BRION: g(F)=  0.261E+00 g(S)=  0.000E+00 retain N=  9 mean eig= 2.44
 eig:   5.776  5.776  3.907  3.907  0.456  0.735  0.735  0.252  0.380
 bond charge predicted
       N       E                     dE             d eps       ncg     rms          rms(c)
DAV:   1    -0.136006180440E+04   -0.23672E+00   -0.51660E+01  1400   0.104E+01    0.126E+00
DAV:   2    -0.136033647973E+04   -0.27468E+00   -0.29317E+00  2296   0.410E+00    0.642E-01
DAV:   3    -0.136035271092E+04   -0.16231E-01   -0.24183E-01  2592   0.840E-01    0.533E-01
DAV:   4    -0.136034889844E+04    0.38125E-02   -0.24805E-02  2608   0.376E-01    0.375E-01
DAV:   5    -0.136034526453E+04    0.36339E-02   -0.12820E-02  2360   0.226E-01    0.153E-01
DAV:   6    -0.136034547929E+04   -0.21475E-03   -0.85815E-03  2400   0.171E-01    0.119E-01
DAV:   7    -0.136034545975E+04    0.19535E-04   -0.35171E-03  2392   0.112E-01    0.883E-02
DAV:   8    -0.136034544746E+04    0.12296E-04   -0.14826E-03  2600   0.714E-02    0.496E-02
DAV:   9    -0.136034543186E+04    0.15593E-04   -0.28707E-04  2488   0.361E-02    0.341E-02
DAV:  10    -0.136034543358E+04   -0.17200E-05   -0.11780E-04  2512   0.201E-02    0.193E-02
DAV:  11    -0.136034543517E+04   -0.15810E-05   -0.43079E-05  2472   0.140E-02    0.120E-02
DAV:  12    -0.136034543456E+04    0.60056E-06   -0.22277E-05  2256   0.107E-02    0.101E-02
DAV:  13    -0.136034543378E+04    0.78161E-06   -0.14498E-05  1776   0.732E-03    0.538E-03
DAV:  14    -0.136034543371E+04    0.74782E-07   -0.54709E-06  1440   0.542E-03
  12 F= -.13603454E+04 E0= -.13603454E+04  d E =-.520354E+00
 BRION: g(F)=  0.211E+00 g(S)=  0.000E+00 retain N= 10 mean eig= 2.85
 eig:   5.728  5.728  6.177  6.177  0.648  1.402  1.402  0.660  0.211  0.326
 bond charge predicted
       N       E                     dE             d eps       ncg     rms          rms(c)
DAV:   1    -0.136055479999E+04   -0.20937E+00   -0.47166E+01  1400   0.982E+00    0.117E+00
DAV:   2    -0.136080480040E+04   -0.25000E+00   -0.26476E+00  2304   0.390E+00    0.600E-01
DAV:   3    -0.136081870581E+04   -0.13905E-01   -0.21057E-01  2592   0.775E-01    0.490E-01
DAV:   4    -0.136081508437E+04    0.36214E-02   -0.20988E-02  2608   0.346E-01    0.348E-01
DAV:   5    -0.136081145837E+04    0.36260E-02   -0.10369E-02  2344   0.214E-01    0.149E-01
DAV:   6    -0.136081146173E+04   -0.33593E-05   -0.84261E-03  2360   0.175E-01    0.102E-01
DAV:   7    -0.136081153702E+04   -0.75293E-04   -0.37138E-03  2352   0.111E-01    0.888E-02
DAV:   8    -0.136081150589E+04    0.31135E-04   -0.11493E-03  2624   0.660E-02    0.502E-02
DAV:   9    -0.136081148379E+04    0.22103E-04   -0.35903E-04  2560   0.369E-02    0.293E-02
DAV:  10    -0.136081149060E+04   -0.68105E-05   -0.11856E-04  2568   0.215E-02    0.207E-02
DAV:  11    -0.136081149006E+04    0.53443E-06   -0.49740E-05  2384   0.148E-02    0.130E-02
DAV:  12    -0.136081148967E+04    0.39673E-06   -0.30955E-05  2256   0.119E-02    0.119E-02
DAV:  13    -0.136081148834E+04    0.13281E-05   -0.16131E-05  1880   0.788E-03    0.633E-03
DAV:  14    -0.136081148823E+04    0.10910E-06   -0.73321E-06  1664   0.571E-03
  13 F= -.13608115E+04 E0= -.13608115E+04  d E =-.466055E+00
 BRION: g(F)=  0.181E+00 g(S)=  0.000E+00 retain N= 11 mean eig= 3.37
 eig:   7.800  7.800  6.331  6.331  2.930  2.930  0.703  1.048  0.186  0.323
 bond charge predicted
       N       E                     dE             d eps       ncg     rms          rms(c)
DAV:   1    -0.136099481975E+04   -0.18333E+00   -0.50014E+01  1392   0.101E+01    0.118E+00
DAV:   2    -0.136125612390E+04   -0.26130E+00   -0.27603E+00  2280   0.393E+00    0.609E-01
DAV:   3    -0.136127104623E+04   -0.14922E-01   -0.22245E-01  2592   0.802E-01    0.497E-01
DAV:   4    -0.136126737439E+04    0.36718E-02   -0.21347E-02  2576   0.350E-01    0.354E-01
DAV:   5    -0.136126353881E+04    0.38356E-02   -0.11425E-02  2304   0.219E-01    0.147E-01
DAV:   6    -0.136126364319E+04   -0.10438E-03   -0.86766E-03  2336   0.175E-01    0.110E-01
DAV:   7    -0.136126366517E+04   -0.21975E-04   -0.35444E-03  2392   0.110E-01    0.878E-02
DAV:   8    -0.136126363464E+04    0.30532E-04   -0.12488E-03  2608   0.680E-02    0.485E-02
DAV:   9    -0.136126361633E+04    0.18310E-04   -0.32187E-04  2512   0.359E-02    0.306E-02
DAV:  10    -0.136126362072E+04   -0.43909E-05   -0.11035E-04  2512   0.203E-02    0.201E-02
DAV:  11    -0.136126362050E+04    0.22110E-06   -0.46258E-05  2408   0.144E-02    0.124E-02
DAV:  12    -0.136126362032E+04    0.18159E-06   -0.26944E-05  2272   0.111E-02    0.115E-02
DAV:  13    -0.136126361911E+04    0.12049E-05   -0.14356E-05  1784   0.739E-03    0.608E-03
DAV:  14    -0.136126361897E+04    0.14143E-06   -0.67290E-06  1584   0.558E-03
  14 F= -.13612636E+04 E0= -.13612636E+04  d E =-.452131E+00
 BRION: g(F)=  0.150E+00 g(S)=  0.000E+00 retain N=  7 mean eig= 3.63
 eig:   7.511  7.511  3.488  3.488  0.690  1.352  1.352
 bond charge predicted
       N       E                     dE             d eps       ncg     rms          rms(c)
DAV:   1    -0.136143940408E+04   -0.17578E+00   -0.27304E+01  1376   0.745E+00    0.890E-01
DAV:   2    -0.136158215680E+04   -0.14275E+00   -0.15097E+00  2296   0.292E+00    0.454E-01
DAV:   3    -0.136159031402E+04   -0.81572E-02   -0.12234E-01  2584   0.593E-01    0.370E-01
DAV:   4    -0.136158819479E+04    0.21192E-02   -0.11994E-02  2592   0.262E-01    0.261E-01
DAV:   5    -0.136158614670E+04    0.20481E-02   -0.68002E-03  2304   0.166E-01    0.105E-01
DAV:   6    -0.136158624187E+04   -0.95166E-04   -0.45146E-03  2392   0.125E-01    0.865E-02
DAV:   7    -0.136158623204E+04    0.98308E-05   -0.18708E-03  2400   0.807E-02    0.632E-02
DAV:   8    -0.136158621828E+04    0.13759E-04   -0.72649E-04  2576   0.508E-02    0.357E-02
DAV:   9    -0.136158621038E+04    0.79030E-05   -0.15084E-04  2456   0.259E-02    0.241E-02
DAV:  10    -0.136158621112E+04   -0.74763E-06   -0.72253E-05  2496   0.154E-02    0.136E-02
DAV:  11    -0.136158621149E+04   -0.36250E-06   -0.24465E-05  2312   0.110E-02    0.761E-03
DAV:  12    -0.136158621167E+04   -0.18570E-06   -0.12064E-05  1904   0.768E-03    0.749E-03
DAV:  13    -0.136158621106E+04    0.61445E-06   -0.56479E-06  1456   0.546E-03
  15 F= -.13615862E+04 E0= -.13615862E+04  d E =-.322592E+00
 BRION: g(F)=  0.138E+00 g(S)=  0.000E+00 retain N=  7 mean eig= 3.60
 eig:   7.338  7.338  2.909  2.909  1.725  1.725  1.257
 bond charge predicted
       N       E                     dE             d eps       ncg     rms          rms(c)
DAV:   1    -0.136172100666E+04   -0.13479E+00   -0.16438E+01  1368   0.572E+00    0.663E-01
DAV:   2    -0.136180374555E+04   -0.82739E-01   -0.87132E-01  2288   0.219E+00    0.341E-01
DAV:   3    -0.136180847342E+04   -0.47279E-02   -0.69544E-02  2592   0.442E-01    0.278E-01
DAV:   4    -0.136180727704E+04    0.11964E-02   -0.63812E-03  2600   0.191E-01    0.197E-01
DAV:   5    -0.136180596531E+04    0.13117E-02   -0.40760E-03  2232   0.135E-01    0.738E-02
DAV:   6    -0.136180610423E+04   -0.13892E-03   -0.30118E-03  2424   0.100E-01    0.720E-02
DAV:   7    -0.136180608881E+04    0.15420E-04   -0.88930E-04  2464   0.563E-02    0.514E-02
DAV:   8    -0.136180607035E+04    0.18459E-04   -0.32230E-04  2552   0.340E-02    0.250E-02
DAV:   9    -0.136180606308E+04    0.72681E-05   -0.79596E-05  2240   0.187E-02    0.158E-02
DAV:  10    -0.136180606426E+04   -0.11784E-05   -0.23930E-05  2224   0.100E-02    0.930E-03
DAV:  11    -0.136180606358E+04    0.68407E-06   -0.74826E-06  1600   0.635E-03
  16 F= -.13618061E+04 E0= -.13618061E+04  d E =-.219853E+00
 BRION: g(F)=  0.126E+00 g(S)=  0.000E+00 retain N=  4 mean eig= 4.15
 eig:   6.564  6.564  1.730  1.730
 bond charge predicted
       N       E                     dE             d eps       ncg     rms          rms(c)
DAV:   1    -0.136194789267E+04   -0.14183E+00   -0.50953E+01  1368   0.101E+01    0.117E+00
DAV:   2    -0.136221190943E+04   -0.26402E+00   -0.27843E+00  2304   0.392E+00    0.606E-01
DAV:   3    -0.136222747927E+04   -0.15570E-01   -0.22491E-01  2584   0.785E-01    0.495E-01
DAV:   4    -0.136222418857E+04    0.32907E-02   -0.20894E-02  2608   0.342E-01    0.359E-01
DAV:   5    -0.136222012624E+04    0.40623E-02   -0.11108E-02  2328   0.219E-01    0.152E-01
DAV:   6    -0.136222016860E+04   -0.42360E-04   -0.91283E-03  2312   0.174E-01    0.115E-01
DAV:   7    -0.136222017975E+04   -0.11151E-04   -0.37525E-03  2424   0.114E-01    0.923E-02
DAV:   8    -0.136222012968E+04    0.50072E-04   -0.12980E-03  2568   0.705E-02    0.512E-02
DAV:   9    -0.136222010947E+04    0.20208E-04   -0.39135E-04  2488   0.380E-02    0.301E-02
DAV:  10    -0.136222011582E+04   -0.63546E-05   -0.11816E-04  2504   0.209E-02    0.208E-02
DAV:  11    -0.136222011482E+04    0.10002E-05   -0.45154E-05  2408   0.146E-02    0.131E-02
DAV:  12    -0.136222011448E+04    0.33973E-06   -0.31957E-05  2288   0.116E-02    0.117E-02
DAV:  13    -0.136222011351E+04    0.96999E-06   -0.15176E-05  1856   0.749E-03    0.660E-03
DAV:  14    -0.136222011308E+04    0.43403E-06   -0.38639E-06  1232   0.520E-03
  17 F= -.13622201E+04 E0= -.13622201E+04  d E =-.414050E+00
 BRION: g(F)=  0.109E+00 g(S)=  0.000E+00 retain N=  3 mean eig= 4.79
 eig:   6.487  6.487  1.384
 bond charge predicted
       N       E                     dE             d eps       ncg     rms          rms(c)
DAV:   1    -0.136233083017E+04   -0.11072E+00   -0.44907E+01  1368   0.946E+00    0.112E+00
DAV:   2    -0.136256372765E+04   -0.23290E+00   -0.24662E+00  2304   0.369E+00    0.572E-01
DAV:   3    -0.136257734532E+04   -0.13618E-01   -0.20137E-01  2584   0.747E-01    0.464E-01
DAV:   4    -0.136257417404E+04    0.31713E-02   -0.19054E-02  2592   0.329E-01    0.334E-01
DAV:   5    -0.136257066003E+04    0.35140E-02   -0.10356E-02  2328   0.206E-01    0.141E-01
DAV:   6    -0.136257066791E+04   -0.78798E-05   -0.75924E-03  2328   0.161E-01    0.107E-01
DAV:   7    -0.136257068980E+04   -0.21890E-04   -0.32635E-03  2472   0.106E-01    0.843E-02
DAV:   8    -0.136257064761E+04    0.42196E-04   -0.11157E-03  2576   0.655E-02    0.471E-02
DAV:   9    -0.136257063305E+04    0.14554E-04   -0.33045E-04  2488   0.351E-02    0.283E-02
DAV:  10    -0.136257063790E+04   -0.48411E-05   -0.10467E-04  2520   0.197E-02    0.195E-02
DAV:  11    -0.136257063688E+04    0.10124E-05   -0.42590E-05  2408   0.141E-02    0.115E-02
DAV:  12    -0.136257063686E+04    0.18888E-07   -0.26045E-05  2256   0.105E-02    0.105E-02
DAV:  13    -0.136257063599E+04    0.86970E-06   -0.12889E-05  1784   0.701E-03    0.557E-03
DAV:  14    -0.136257063568E+04    0.31885E-06   -0.26665E-06  1088   0.492E-03
  18 F= -.13625706E+04 E0= -.13625706E+04  d E =-.350523E+00
 BRION: g(F)=  0.931E-01 g(S)=  0.000E+00 retain N=  3 mean eig= 5.01
 eig:   1.398  6.809  6.809
 bond charge predicted
       N       E                     dE             d eps       ncg     rms          rms(c)
DAV:   1    -0.136265491287E+04   -0.84277E-01   -0.38817E+01  1360   0.876E+00    0.102E+00
DAV:   2    -0.136285641569E+04   -0.20150E+00   -0.21327E+00  2312   0.341E+00    0.532E-01
DAV:   3    -0.136286806721E+04   -0.11652E-01   -0.17333E-01  2608   0.682E-01    0.432E-01
DAV:   4    -0.136286542165E+04    0.26456E-02   -0.15937E-02  2608   0.302E-01    0.314E-01
DAV:   5    -0.136286223910E+04    0.31826E-02   -0.79627E-03  2360   0.186E-01    0.143E-01
DAV:   6    -0.136286204591E+04    0.19319E-03   -0.71824E-03  2264   0.157E-01    0.934E-02
DAV:   7    -0.136286212217E+04   -0.76264E-04   -0.33232E-03  2392   0.106E-01    0.844E-02
DAV:   8    -0.136286208803E+04    0.34143E-04   -0.98727E-04  2544   0.617E-02    0.550E-02
DAV:   9    -0.136286205380E+04    0.34225E-04   -0.42941E-04  2536   0.373E-02    0.269E-02
DAV:  10    -0.136286206231E+04   -0.85051E-05   -0.12771E-04  2512   0.222E-02    0.201E-02
DAV:  11    -0.136286206193E+04    0.38063E-06   -0.31646E-05  2312   0.122E-02    0.142E-02
DAV:  12    -0.136286206080E+04    0.11279E-05   -0.37271E-05  2080   0.118E-02    0.120E-02
DAV:  13    -0.136286205993E+04    0.86568E-06   -0.18546E-05  1928   0.833E-03    0.749E-03
DAV:  14    -0.136286205950E+04    0.42876E-06   -0.61241E-06  1504   0.552E-03
  19 F= -.13628621E+04 E0= -.13628621E+04  d E =-.291424E+00
 BRION: g(F)=  0.766E-01 g(S)=  0.000E+00 retain N=  2 mean eig= 5.38
 eig:   5.382  5.382
 bond charge predicted
       N       E                     dE             d eps       ncg     rms          rms(c)
DAV:   1    -0.136290202752E+04   -0.39968E-01   -0.38555E+01  1368   0.874E+00    0.103E+00
DAV:   2    -0.136310478415E+04   -0.20276E+00   -0.21524E+00  2320   0.346E+00    0.539E-01
DAV:   3    -0.136311620268E+04   -0.11419E-01   -0.17512E-01  2600   0.690E-01    0.445E-01
DAV:   4    -0.136311355855E+04    0.26441E-02   -0.16776E-02  2592   0.306E-01    0.327E-01
DAV:   5    -0.136311015257E+04    0.34060E-02   -0.78938E-03  2344   0.187E-01    0.158E-01
DAV:   6    -0.136310974378E+04    0.40879E-03   -0.84971E-03  2200   0.175E-01    0.957E-02
DAV:   7    -0.136310990413E+04   -0.16035E-03   -0.44747E-03  2352   0.120E-01    0.988E-02
DAV:   8    -0.136310985795E+04    0.46183E-04   -0.10751E-03  2440   0.648E-02    0.696E-02
DAV:   9    -0.136310979241E+04    0.65539E-04   -0.59817E-04  2456   0.427E-02    0.306E-02
DAV:  10    -0.136310980740E+04   -0.14993E-04   -0.22480E-04  2408   0.283E-02    0.208E-02
DAV:  11    -0.136310981005E+04   -0.26487E-05   -0.41010E-05  2280   0.136E-02    0.168E-02
DAV:  12    -0.136310980821E+04    0.18400E-05   -0.59097E-05  2096   0.149E-02    0.162E-02
DAV:  13    -0.136310980603E+04    0.21863E-05   -0.32369E-05  2160   0.113E-02    0.110E-02
DAV:  14    -0.136310980515E+04    0.87546E-06   -0.11932E-05  1896   0.680E-03    0.418E-03
DAV:  15    -0.136310980504E+04    0.10747E-06   -0.11061E-06   944   0.364E-03
  20 F= -.13631098E+04 E0= -.13631098E+04  d E =-.247746E+00
 BRION: g(F)=  0.623E-01 g(S)=  0.000E+00 retain N=  2 mean eig= 5.70
 eig:   5.696  5.696
