 running on  160 total cores
 distrk:  each k-point on  160 cores,    1 groups
 distr:  one band on   20 cores,    8 groups
 using from now: INCAR     
 vasp.5.4.4.18Apr17-6-g9f103f2a35 (build May 01 2020 14:22:42) gamma-only       
  
 POSCAR found type information on POSCAR  O  La Zr Li Al
 POSCAR found :  5 types and     186 ions
 scaLAPACK will be used
 LDA part: xc-table for Pade appr. of Perdew
 POSCAR, INCAR and KPOINTS ok, starting setup
 FFT: planning ...
 WAVECAR not read
 WARNING: random wavefunctions but no delay for mixing, default for NELMDL
 entering main loop
       N       E                     dE             d eps       ncg     rms          rms(c)
DAV:   1     0.253792666299E+05    0.25379E+05   -0.42088E+05  1584   0.253E+03
DAV:   2     0.944820848425E+04   -0.15931E+05   -0.14751E+05  1432   0.706E+02
DAV:   3     0.269388875667E+04   -0.67543E+04   -0.61450E+04  1504   0.355E+02
DAV:   4    -0.349468005863E+03   -0.30434E+04   -0.28372E+04  2040   0.224E+02
DAV:   5    -0.139113954067E+04   -0.10417E+04   -0.10004E+04  2528   0.140E+02    0.116E+02
DAV:   6    -0.129028174147E+04    0.10086E+03   -0.15028E+03  2424   0.668E+01    0.503E+01
DAV:   7    -0.131287969062E+04   -0.22598E+02   -0.41650E+02  2560   0.349E+01    0.265E+01
DAV:   8    -0.131631889063E+04   -0.34392E+01   -0.23164E+02  2536   0.268E+01    0.226E+01
DAV:   9    -0.131379951581E+04    0.25194E+01   -0.37020E+01  2552   0.134E+01    0.830E+00
DAV:  10    -0.131413321164E+04   -0.33370E+00   -0.15812E+01  2616   0.719E+00    0.645E+00
DAV:  11    -0.131455312086E+04   -0.41991E+00   -0.49115E+00  2592   0.393E+00    0.432E+00
DAV:  12    -0.131449161740E+04    0.61503E-01   -0.20521E+00  2576   0.302E+00    0.312E+00
DAV:  13    -0.131444989785E+04    0.41720E-01   -0.10349E+00  2544   0.184E+00    0.168E+00
DAV:  14    -0.131445316910E+04   -0.32712E-02   -0.20530E-01  2616   0.949E-01    0.121E+00
DAV:  15    -0.131444949950E+04    0.36696E-02   -0.68216E-02  2568   0.482E-01    0.625E-01
DAV:  16    -0.131444924856E+04    0.25093E-03   -0.32825E-02  2584   0.311E-01    0.270E-01
DAV:  17    -0.131444986624E+04   -0.61768E-03   -0.96485E-03  2608   0.188E-01    0.118E-01
DAV:  18    -0.131445008752E+04   -0.22128E-03   -0.31991E-03  2608   0.946E-02    0.729E-02
DAV:  19    -0.131445017633E+04   -0.88814E-04   -0.15470E-03  2568   0.726E-02    0.644E-02
DAV:  20    -0.131445022293E+04   -0.46602E-04   -0.51351E-04  2536   0.373E-02    0.230E-02
DAV:  21    -0.131445023546E+04   -0.12529E-04   -0.21108E-04  2624   0.251E-02    0.182E-02
DAV:  22    -0.131445025094E+04   -0.15478E-04   -0.84262E-05  2496   0.152E-02    0.939E-03
DAV:  23    -0.131445025186E+04   -0.92280E-06   -0.26022E-05  1336   0.930E-03    0.611E-03
DAV:  24    -0.131445025474E+04   -0.28818E-05   -0.16351E-05  1504   0.746E-03    0.230E-03
DAV:  25    -0.131445025481E+04   -0.68132E-07   -0.47966E-06   992   0.514E-03
   1 F= -.13144503E+04 E0= -.13144420E+04  d E =-.131445E+04
 BRION: g(F)=  0.721E+02 g(S)=  0.000E+00
 bond charge predicted
       N       E                     dE             d eps       ncg     rms          rms(c)
DAV:   1    -0.125788437360E+04    0.56566E+02   -0.10621E+04  1744   0.159E+02    0.348E+01
DAV:   2    -0.134265031039E+04   -0.84766E+02   -0.98043E+02  2568   0.717E+01    0.180E+01
DAV:   3    -0.133950362234E+04    0.31467E+01   -0.56697E+01  2616   0.197E+01    0.119E+01
DAV:   4    -0.133594996333E+04    0.35537E+01   -0.20944E+01  2392   0.995E+00    0.543E+00
DAV:   5    -0.133574112340E+04    0.20884E+00   -0.72736E+00  2552   0.580E+00    0.406E+00
DAV:   6    -0.133559676874E+04    0.14435E+00   -0.39766E+00  2600   0.351E+00    0.198E+00
DAV:   7    -0.133555326486E+04    0.43504E-01   -0.51470E-01  2520   0.197E+00    0.109E+00
DAV:   8    -0.133556242779E+04   -0.91629E-02   -0.49384E-01  2616   0.124E+00    0.845E-01
DAV:   9    -0.133556200964E+04    0.41815E-03   -0.77171E-02  2544   0.606E-01    0.643E-01
DAV:  10    -0.133555903439E+04    0.29752E-02   -0.57152E-02  2520   0.397E-01    0.305E-01
DAV:  11    -0.133556018694E+04   -0.11525E-02   -0.28157E-02  2608   0.295E-01    0.238E-01
DAV:  12    -0.133555986530E+04    0.32164E-03   -0.44875E-03  2528   0.154E-01    0.174E-01
DAV:  13    -0.133555962839E+04    0.23691E-03   -0.42321E-03  2520   0.111E-01    0.470E-02
DAV:  14    -0.133555969401E+04   -0.65615E-04   -0.86816E-04  2560   0.578E-02    0.312E-02
DAV:  15    -0.133555969818E+04   -0.41690E-05   -0.14636E-04  2608   0.292E-02    0.203E-02
DAV:  16    -0.133555969759E+04    0.59155E-06   -0.88319E-05  2608   0.172E-02    0.150E-02
DAV:  17    -0.133555969918E+04   -0.15962E-05   -0.18739E-05  2240   0.991E-03    0.111E-02
DAV:  18    -0.133555969746E+04    0.17228E-05   -0.10694E-05  1752   0.696E-03    0.616E-03
DAV:  19    -0.133555969754E+04   -0.85856E-07   -0.98883E-06  1712   0.664E-03
   2 F= -.13355597E+04 E0= -.13355597E+04  d E =-.211094E+02
 BRION: g(F)=  0.810E+02 g(S)=  0.000E+00 retain N=  1 mean eig= 0.48
 eig:   0.480
 bond charge predicted
       N       E                     dE             d eps       ncg     rms          rms(c)
DAV:   1    -0.131772842508E+04    0.17831E+02   -0.31524E+03  1400   0.760E+01    0.215E+01
DAV:   2    -0.134854363006E+04   -0.30815E+02   -0.38123E+02  2544   0.354E+01    0.196E+01
DAV:   3    -0.134645991102E+04    0.20837E+01   -0.26518E+01  2584   0.116E+01    0.148E+01
DAV:   4    -0.134493176079E+04    0.15282E+01   -0.28792E+01  2144   0.743E+00    0.721E+00
DAV:   5    -0.134524909000E+04   -0.31733E+00   -0.65712E+00  2280   0.444E+00    0.734E+00
DAV:   6    -0.134430114991E+04    0.94794E+00   -0.70840E+00  2392   0.368E+00    0.159E+00
DAV:   7    -0.134435018999E+04   -0.49040E-01   -0.12470E+00  2416   0.222E+00    0.115E+00
DAV:   8    -0.134434600820E+04    0.41818E-02   -0.26651E-01  2600   0.103E+00    0.706E-01
DAV:   9    -0.134434362662E+04    0.23816E-02   -0.93873E-02  2480   0.550E-01    0.372E-01
DAV:  10    -0.134434444151E+04   -0.81489E-03   -0.23627E-02  2472   0.296E-01    0.183E-01
DAV:  11    -0.134434448132E+04   -0.39812E-04   -0.61858E-03  2616   0.173E-01    0.149E-01
DAV:  12    -0.134434435961E+04    0.12171E-03   -0.37214E-03  2592   0.110E-01    0.653E-02
DAV:  13    -0.134434443187E+04   -0.72265E-04   -0.12818E-03  2600   0.684E-02    0.604E-02
DAV:  14    -0.134434440157E+04    0.30303E-04   -0.31971E-04  2600   0.376E-02    0.347E-02
DAV:  15    -0.134434439833E+04    0.32404E-05   -0.19981E-04  2600   0.256E-02    0.122E-02
DAV:  16    -0.134434440086E+04   -0.25267E-05   -0.47878E-05  2592   0.141E-02    0.511E-03
DAV:  17    -0.134434440152E+04   -0.66482E-06   -0.58814E-06  1504   0.678E-03
   3 F= -.13443444E+04 E0= -.13443444E+04  d E =-.878470E+01
 BRION: g(F)=  0.130E+02 g(S)=  0.000E+00 retain N=  2 mean eig= 1.34
 eig:   0.321  2.350
 bond charge predicted
       N       E                     dE             d eps       ncg     rms          rms(c)
DAV:   1    -0.134450941067E+04   -0.16501E+00   -0.54994E+02  1376   0.300E+01    0.639E+00
DAV:   2    -0.134797561514E+04   -0.34662E+01   -0.39186E+01  2384   0.133E+01    0.334E+00
DAV:   3    -0.134794043332E+04    0.35182E-01   -0.25006E+00  2520   0.385E+00    0.278E+00
DAV:   4    -0.134781918122E+04    0.12125E+00   -0.93200E-01  2240   0.166E+00    0.133E+00
DAV:   5    -0.134782188420E+04   -0.27030E-02   -0.35444E-01  2432   0.103E+00    0.130E+00
DAV:   6    -0.134779691245E+04    0.24972E-01   -0.22216E-01  2488   0.885E-01    0.513E-01
DAV:   7    -0.134779955301E+04   -0.26406E-02   -0.86751E-02  2464   0.508E-01    0.460E-01
DAV:   8    -0.134779839029E+04    0.11627E-02   -0.15742E-02  2600   0.236E-01    0.308E-01
DAV:   9    -0.134779690385E+04    0.14864E-02   -0.81178E-03  2432   0.157E-01    0.129E-01
DAV:  10    -0.134779737054E+04   -0.46669E-03   -0.74054E-03  2560   0.128E-01    0.131E-01
DAV:  11    -0.134779710021E+04    0.27033E-03   -0.13128E-03  2536   0.768E-02    0.493E-02
DAV:  12    -0.134779712875E+04   -0.28540E-04   -0.53665E-04  2456   0.383E-02    0.206E-02
DAV:  13    -0.134779713379E+04   -0.50349E-05   -0.66099E-05  2536   0.166E-02    0.134E-02
DAV:  14    -0.134779713328E+04    0.50091E-06   -0.15539E-05  2136   0.877E-03    0.925E-03
DAV:  15    -0.134779713313E+04    0.15947E-06   -0.11700E-05  1752   0.628E-03    0.310E-03
DAV:  16    -0.134779713306E+04    0.63766E-07   -0.12896E-06  1040   0.401E-03
   4 F= -.13477971E+04 E0= -.13477971E+04  d E =-.345273E+01
 BRION: g(F)=  0.518E+01 g(S)=  0.000E+00 retain N=  3 mean eig= 1.78
 eig:   4.542  0.396  0.396
 bond charge predicted
       N       E                     dE             d eps       ncg     rms          rms(c)
DAV:   1    -0.134904940258E+04   -0.12523E+01   -0.21839E+02  1360   0.202E+01    0.328E+00
DAV:   2    -0.135014744734E+04   -0.10980E+01   -0.11770E+01  2280   0.764E+00    0.181E+00
DAV:   3    -0.135016480775E+04   -0.17360E-01   -0.80261E-01  2616   0.160E+00    0.148E+00
DAV:   4    -0.135012258302E+04    0.42225E-01   -0.23637E-01  2472   0.955E-01    0.660E-01
DAV:   5    -0.135012088746E+04    0.16956E-02   -0.81944E-02  2480   0.582E-01    0.519E-01
DAV:   6    -0.135011943915E+04    0.14483E-02   -0.64816E-02  2552   0.436E-01    0.241E-01
DAV:   7    -0.135011942326E+04    0.15891E-04   -0.12489E-02  2416   0.223E-01    0.200E-01
DAV:   8    -0.135011921958E+04    0.20368E-03   -0.44419E-03  2448   0.110E-01    0.833E-02
DAV:   9    -0.135011926054E+04   -0.40968E-04   -0.16946E-03  2568   0.686E-02    0.627E-02
DAV:  10    -0.135011926021E+04    0.32956E-06   -0.40211E-04  2480   0.409E-02    0.478E-02
DAV:  11    -0.135011924896E+04    0.11254E-04   -0.31662E-04  2344   0.299E-02    0.226E-02
DAV:  12    -0.135011924679E+04    0.21731E-05   -0.10137E-04  2456   0.196E-02    0.119E-02
DAV:  13    -0.135011924828E+04   -0.14967E-05   -0.25918E-05  2184   0.103E-02    0.677E-03
DAV:  14    -0.135011924851E+04   -0.22259E-06   -0.78896E-06  1648   0.567E-03
   5 F= -.13501192E+04 E0= -.13501192E+04  d E =-.232212E+01
 BRION: g(F)=  0.253E+01 g(S)=  0.000E+00 retain N=  4 mean eig= 1.46
 eig:   4.614  0.248  0.491  0.491
 bond charge predicted
       N       E                     dE             d eps       ncg     rms          rms(c)
DAV:   1    -0.135085200137E+04   -0.73275E+00   -0.15592E+02  1360   0.170E+01    0.270E+00
DAV:   2    -0.135160901986E+04   -0.75702E+00   -0.80820E+00  2288   0.631E+00    0.137E+00
DAV:   3    -0.135162377048E+04   -0.14751E-01   -0.53990E-01  2584   0.131E+00    0.112E+00
DAV:   4    -0.135159859631E+04    0.25174E-01   -0.12480E-01  2520   0.720E-01    0.556E-01
DAV:   5    -0.135159538965E+04    0.32067E-02   -0.50512E-02  2472   0.439E-01    0.346E-01
DAV:   6    -0.135159513307E+04    0.25658E-03   -0.29500E-02  2560   0.314E-01    0.178E-01
DAV:   7    -0.135159520012E+04   -0.67048E-04   -0.77837E-03  2472   0.168E-01    0.145E-01
DAV:   8    -0.135159512699E+04    0.73126E-04   -0.23171E-03  2352   0.857E-02    0.736E-02
DAV:   9    -0.135159511052E+04    0.16474E-04   -0.11367E-03  2520   0.565E-02    0.479E-02
DAV:  10    -0.135159512606E+04   -0.15536E-04   -0.37896E-04  2440   0.369E-02    0.442E-02
DAV:  11    -0.135159510269E+04    0.23364E-04   -0.19528E-04  2464   0.262E-02    0.170E-02
DAV:  12    -0.135159510710E+04   -0.44067E-05   -0.10540E-04  2384   0.178E-02    0.118E-02
DAV:  13    -0.135159510656E+04    0.53820E-06   -0.17030E-05  1896   0.940E-03    0.741E-03
DAV:  14    -0.135159510660E+04   -0.41720E-07   -0.13179E-05  1616   0.651E-03    0.345E-03
DAV:  15    -0.135159510657E+04    0.32713E-07   -0.18871E-06  1048   0.459E-03
   6 F= -.13515951E+04 E0= -.13515951E+04  d E =-.147586E+01
 BRION: g(F)=  0.162E+01 g(S)=  0.000E+00 retain N=  5 mean eig= 1.67
 eig:   3.239  3.239  0.651  0.651  0.550
 bond charge predicted
       N       E                     dE             d eps       ncg     rms          rms(c)
DAV:   1    -0.135153051255E+04    0.64594E-01   -0.35102E+02  1376   0.259E+01    0.362E+00
DAV:   2    -0.135336228786E+04   -0.18318E+01   -0.19112E+01  2288   0.987E+00    0.192E+00
DAV:   3    -0.135341891448E+04   -0.56627E-01   -0.12901E+00  2600   0.195E+00    0.158E+00
DAV:   4    -0.135337390132E+04    0.45013E-01   -0.23931E-01  2560   0.990E-01    0.836E-01
DAV:   5    -0.135336286207E+04    0.11039E-01   -0.85506E-02  2512   0.552E-01    0.405E-01
DAV:   6    -0.135336344277E+04   -0.58069E-03   -0.34824E-02  2536   0.345E-01    0.227E-01
DAV:   7    -0.135336342042E+04    0.22342E-04   -0.11624E-02  2440   0.216E-01    0.147E-01
DAV:   8    -0.135336361246E+04   -0.19204E-03   -0.43572E-03  2512   0.108E-01    0.872E-02
DAV:   9    -0.135336356085E+04    0.51614E-04   -0.79706E-04  2608   0.609E-02    0.560E-02
DAV:  10    -0.135336360189E+04   -0.41038E-04   -0.90614E-04  2400   0.501E-02    0.401E-02
DAV:  11    -0.135336358180E+04    0.20086E-04   -0.30064E-04  2544   0.346E-02    0.144E-02
DAV:  12    -0.135336358944E+04   -0.76414E-05   -0.98032E-05  2488   0.183E-02    0.108E-02
DAV:  13    -0.135336358930E+04    0.13711E-06   -0.16074E-05  2160   0.879E-03    0.549E-03
DAV:  14    -0.135336358986E+04   -0.55773E-06   -0.73678E-06  1512   0.575E-03
   7 F= -.13533636E+04 E0= -.13533636E+04  d E =-.176848E+01
 BRION: g(F)=  0.108E+01 g(S)=  0.000E+00 retain N=  6 mean eig= 1.63
 eig:   5.520  1.368  1.368  0.431  0.554  0.554
 bond charge predicted
       N       E                     dE             d eps       ncg     rms          rms(c)
DAV:   1    -0.135379973897E+04   -0.43615E+00   -0.47147E+01  1384   0.987E+00    0.171E+00
DAV:   2    -0.135403635490E+04   -0.23662E+00   -0.25630E+00  2296   0.387E+00    0.822E-01
DAV:   3    -0.135404572327E+04   -0.93684E-02   -0.20162E-01  2616   0.800E-01    0.664E-01
DAV:   4    -0.135404006875E+04    0.56545E-02   -0.42803E-02  2552   0.435E-01    0.324E-01
DAV:   5    -0.135403987573E+04    0.19302E-03   -0.13865E-02  2448   0.245E-01    0.201E-01
DAV:   6    -0.135403979741E+04    0.78318E-04   -0.77805E-03  2592   0.164E-01    0.103E-01
DAV:   7    -0.135403978874E+04    0.86691E-05   -0.21625E-03  2464   0.899E-02    0.748E-02
DAV:   8    -0.135403979360E+04   -0.48593E-05   -0.67014E-04  2592   0.479E-02    0.448E-02
DAV:   9    -0.135403977436E+04    0.19243E-04   -0.23745E-04  2584   0.316E-02    0.245E-02
DAV:  10    -0.135403978673E+04   -0.12370E-04   -0.16737E-04  2464   0.221E-02    0.252E-02
DAV:  11    -0.135403977918E+04    0.75508E-05   -0.62779E-05  2384   0.158E-02    0.895E-03
DAV:  12    -0.135403977983E+04   -0.65716E-06   -0.20634E-05  2040   0.919E-03    0.513E-03
DAV:  13    -0.135403977992E+04   -0.87035E-07   -0.21266E-06  1016   0.498E-03
   8 F= -.13540398E+04 E0= -.13540398E+04  d E =-.676190E+00
 BRION: g(F)=  0.648E+00 g(S)=  0.000E+00 retain N=  7 mean eig= 2.22
 eig:   7.047  3.150  3.150  0.252  0.681  0.681  0.562
 bond charge predicted
       N       E                     dE             d eps       ncg     rms          rms(c)
DAV:   1    -0.135438303123E+04   -0.34325E+00   -0.13540E+02  1384   0.166E+01    0.210E+00
DAV:   2    -0.135508336537E+04   -0.70033E+00   -0.73728E+00  2296   0.652E+00    0.105E+00
DAV:   3    -0.135512319864E+04   -0.39833E-01   -0.57377E-01  2616   0.127E+00    0.836E-01
DAV:   4    -0.135511323698E+04    0.99617E-02   -0.61258E-02  2608   0.589E-01    0.542E-01
DAV:   5    -0.135510759114E+04    0.56458E-02   -0.31745E-02  2336   0.353E-01    0.207E-01
DAV:   6    -0.135510878912E+04   -0.11980E-02   -0.15953E-02  2528   0.240E-01    0.186E-01
DAV:   7    -0.135510861904E+04    0.17008E-03   -0.60116E-03  2560   0.148E-01    0.122E-01
DAV:   8    -0.135510856345E+04    0.55592E-04   -0.23295E-03  2584   0.917E-02    0.638E-02
DAV:   9    -0.135510854823E+04    0.15222E-04   -0.38511E-04  2536   0.442E-02    0.481E-02
DAV:  10    -0.135510855284E+04   -0.46112E-05   -0.29829E-04  2512   0.307E-02    0.255E-02
DAV:  11    -0.135510855136E+04    0.14775E-05   -0.87462E-05  2512   0.211E-02    0.112E-02
DAV:  12    -0.135510855444E+04   -0.30732E-05   -0.37528E-05  2376   0.122E-02    0.111E-02
DAV:  13    -0.135510855302E+04    0.14140E-05   -0.11537E-05  1664   0.739E-03    0.484E-03
DAV:  14    -0.135510855313E+04   -0.11107E-06   -0.38256E-06  1184   0.573E-03
   9 F= -.13551086E+04 E0= -.13551086E+04  d E =-.106877E+01
 BRION: g(F)=  0.526E+00 g(S)=  0.000E+00 retain N=  8 mean eig= 2.22
 eig:   7.210  3.590  3.590  0.901  0.901  0.205  0.611  0.791
 bond charge predicted
       N       E                     dE             d eps       ncg     rms          rms(c)
DAV:   1    -0.135546058781E+04   -0.35203E+00   -0.83292E+01  1384   0.131E+01    0.162E+00
DAV:   2    -0.135590406481E+04   -0.44348E+00   -0.46894E+00  2304   0.516E+00    0.812E-01
DAV:   3    -0.135593047572E+04   -0.26411E-01   -0.37146E-01  2608   0.102E+00    0.659E-01
DAV:   4    -0.135592492487E+04    0.55509E-02   -0.38122E-02  2616   0.473E-01    0.441E-01
DAV:   5    -0.135592126170E+04    0.36632E-02   -0.18433E-02  2400   0.260E-01    0.168E-01
DAV:   6    -0.135592182295E+04   -0.56125E-03   -0.90719E-03  2504   0.177E-01    0.128E-01
DAV:   7    -0.135592181080E+04    0.12153E-04   -0.39819E-03  2528   0.119E-01    0.857E-02
DAV:   8    -0.135592181537E+04   -0.45677E-05   -0.13927E-03  2608   0.735E-02    0.540E-02
DAV:   9    -0.135592180049E+04    0.14880E-04   -0.28742E-04  2536   0.365E-02    0.391E-02
DAV:  10    -0.135592180390E+04   -0.34193E-05   -0.16634E-04  2584   0.233E-02    0.208E-02
DAV:  11    -0.135592180572E+04   -0.18185E-05   -0.58445E-05  2480   0.161E-02    0.114E-02
DAV:  12    -0.135592180517E+04    0.54963E-06   -0.21132E-05  2256   0.109E-02    0.839E-03
DAV:  13    -0.135592180520E+04   -0.28653E-07   -0.14995E-05  1952   0.694E-03    0.477E-03
DAV:  14    -0.135592180500E+04    0.20015E-06   -0.16767E-06  1008   0.471E-03
  10 F= -.13559218E+04 E0= -.13559218E+04  d E =-.813252E+00
 BRION: g(F)=  0.397E+00 g(S)=  0.000E+00 retain N=  9 mean eig= 2.64
 eig:   7.872  5.040  5.040  1.690  1.690  0.360  0.731  0.731  0.640
 bond charge predicted
       N       E                     dE             d eps       ncg     rms          rms(c)
DAV:   1    -0.135602358128E+04   -0.10178E+00   -0.16996E+02  1384   0.186E+01    0.224E+00
DAV:   2    -0.135693474632E+04   -0.91117E+00   -0.96411E+00  2296   0.729E+00    0.113E+00
DAV:   3    -0.135698918574E+04   -0.54439E-01   -0.76853E-01  2616   0.145E+00    0.918E-01
DAV:   4    -0.135697788364E+04    0.11302E-01   -0.75171E-02  2608   0.670E-01    0.633E-01
DAV:   5    -0.135696882010E+04    0.90635E-02   -0.33945E-02  2368   0.361E-01    0.254E-01
DAV:   6    -0.135696943778E+04   -0.61768E-03   -0.20599E-02  2416   0.260E-01    0.168E-01
DAV:   7    -0.135696960100E+04   -0.16322E-03   -0.90348E-03  2464   0.175E-01    0.127E-01
DAV:   8    -0.135696959193E+04    0.90770E-05   -0.27683E-03  2592   0.104E-01    0.812E-02
DAV:   9    -0.135696954483E+04    0.47094E-04   -0.78996E-04  2528   0.565E-02    0.527E-02
DAV:  10    -0.135696955895E+04   -0.14120E-04   -0.32318E-04  2600   0.342E-02    0.316E-02
DAV:  11    -0.135696956389E+04   -0.49334E-05   -0.12348E-04  2552   0.231E-02    0.201E-02
DAV:  12    -0.135696956084E+04    0.30409E-05   -0.64119E-05  2408   0.177E-02    0.150E-02
DAV:  13    -0.135696956012E+04    0.72567E-06   -0.41364E-05  2320   0.112E-02    0.780E-03
DAV:  14    -0.135696956018E+04   -0.57946E-07   -0.12004E-05  1816   0.650E-03    0.368E-03
DAV:  15    -0.135696956025E+04   -0.75961E-07   -0.12943E-06   968   0.413E-03
  11 F= -.13569696E+04 E0= -.13569696E+04  d E =-.104776E+01
 BRION: g(F)=  0.319E+00 g(S)=  0.000E+00 retain N=  9 mean eig= 2.61
 eig:   7.237  7.237  2.550  2.550  0.882  0.882  0.586  0.586  0.946
 bond charge predicted
       N       E                     dE             d eps       ncg     rms          rms(c)
DAV:   1    -0.135717892993E+04   -0.20937E+00   -0.84708E+01  1400   0.132E+01    0.162E+00
DAV:   2    -0.135763418466E+04   -0.45525E+00   -0.48407E+00  2280   0.521E+00    0.820E-01
DAV:   3    -0.135766072273E+04   -0.26538E-01   -0.39033E-01  2592   0.105E+00    0.661E-01
DAV:   4    -0.135765379293E+04    0.69298E-02   -0.40087E-02  2584   0.482E-01    0.445E-01
DAV:   5    -0.135764909363E+04    0.46993E-02   -0.18954E-02  2384   0.270E-01    0.167E-01
DAV:   6    -0.135764960248E+04   -0.50885E-03   -0.10673E-02  2456   0.186E-01    0.120E-01
DAV:   7    -0.135764963103E+04   -0.28550E-04   -0.40467E-03  2464   0.121E-01    0.859E-02
DAV:   8    -0.135764963707E+04   -0.60428E-05   -0.13977E-03  2608   0.716E-02    0.505E-02
DAV:   9    -0.135764962539E+04    0.11682E-04   -0.28987E-04  2544   0.373E-02    0.366E-02
DAV:  10    -0.135764963009E+04   -0.47039E-05   -0.16936E-04  2592   0.241E-02    0.203E-02
DAV:  11    -0.135764963058E+04   -0.48356E-06   -0.62573E-05  2480   0.166E-02    0.103E-02
DAV:  12    -0.135764963092E+04   -0.33954E-06   -0.20235E-05  2240   0.109E-02    0.826E-03
DAV:  13    -0.135764963066E+04    0.25732E-06   -0.12772E-05  1792   0.666E-03    0.446E-03
DAV:  14    -0.135764963053E+04    0.13298E-06   -0.20341E-06  1000   0.510E-03
  12 F= -.13576496E+04 E0= -.13576496E+04  d E =-.680070E+00
 BRION: g(F)=  0.238E+00 g(S)=  0.000E+00 retain N=  7 mean eig= 2.92
 eig:   6.768  6.768  1.786  1.786  1.211  1.211  0.905
 bond charge predicted
       N       E                     dE             d eps       ncg     rms          rms(c)
DAV:   1    -0.135783133116E+04   -0.18170E+00   -0.58649E+01  1400   0.110E+01    0.137E+00
DAV:   2    -0.135814905539E+04   -0.31772E+00   -0.33904E+00  2288   0.440E+00    0.690E-01
DAV:   3    -0.135816753579E+04   -0.18480E-01   -0.27629E-01  2600   0.879E-01    0.562E-01
DAV:   4    -0.135816244429E+04    0.50915E-02   -0.28807E-02  2600   0.409E-01    0.377E-01
DAV:   5    -0.135815879825E+04    0.36460E-02   -0.14287E-02  2336   0.233E-01    0.142E-01
DAV:   6    -0.135815921911E+04   -0.42087E-03   -0.81870E-03  2448   0.162E-01    0.114E-01
DAV:   7    -0.135815919086E+04    0.28256E-04   -0.32046E-03  2440   0.105E-01    0.789E-02
DAV:   8    -0.135815919013E+04    0.72359E-06   -0.11811E-03  2616   0.652E-02    0.456E-02
DAV:   9    -0.135815917836E+04    0.11775E-04   -0.23766E-04  2488   0.335E-02    0.336E-02
DAV:  10    -0.135815918126E+04   -0.29041E-05   -0.13010E-04  2536   0.209E-02    0.204E-02
DAV:  11    -0.135815918149E+04   -0.22384E-06   -0.61407E-05  2440   0.160E-02    0.115E-02
DAV:  12    -0.135815918123E+04    0.25431E-06   -0.21206E-05  2288   0.111E-02    0.930E-03
DAV:  13    -0.135815918083E+04    0.40595E-06   -0.15371E-05  1920   0.705E-03    0.468E-03
DAV:  14    -0.135815918068E+04    0.14494E-06   -0.21276E-06  1040   0.479E-03
  13 F= -.13581592E+04 E0= -.13581592E+04  d E =-.509550E+00
 BRION: g(F)=  0.203E+00 g(S)=  0.000E+00 retain N=  6 mean eig= 3.35
 eig:   6.755  6.755  2.291  2.291  0.861  1.172
 bond charge predicted
       N       E                     dE             d eps       ncg     rms          rms(c)
DAV:   1    -0.135824298855E+04   -0.83808E-01   -0.73643E+01  1408   0.123E+01    0.149E+00
DAV:   2    -0.135863606478E+04   -0.39308E+00   -0.41894E+00  2288   0.492E+00    0.774E-01
DAV:   3    -0.135865844377E+04   -0.22379E-01   -0.33921E-01  2600   0.967E-01    0.620E-01
DAV:   4    -0.135865195411E+04    0.64897E-02   -0.34874E-02  2600   0.448E-01    0.418E-01
DAV:   5    -0.135864756358E+04    0.43905E-02   -0.16659E-02  2400   0.252E-01    0.159E-01
DAV:   6    -0.135864795470E+04   -0.39111E-03   -0.94441E-03  2440   0.175E-01    0.112E-01
DAV:   7    -0.135864797568E+04   -0.20986E-04   -0.35777E-03  2440   0.112E-01    0.799E-02
DAV:   8    -0.135864797968E+04   -0.39980E-05   -0.12237E-03  2616   0.676E-02    0.472E-02
DAV:   9    -0.135864796961E+04    0.10069E-04   -0.26507E-04  2536   0.353E-02    0.337E-02
DAV:  10    -0.135864797281E+04   -0.31970E-05   -0.13871E-04  2600   0.222E-02    0.193E-02
DAV:  11    -0.135864797334E+04   -0.53702E-06   -0.55432E-05  2520   0.153E-02    0.981E-03
DAV:  12    -0.135864797371E+04   -0.37039E-06   -0.19371E-05  2184   0.104E-02    0.776E-03
DAV:  13    -0.135864797350E+04    0.21012E-06   -0.10698E-05  1792   0.626E-03    0.439E-03
DAV:  14    -0.135864797337E+04    0.13600E-06   -0.25559E-06  1088   0.495E-03
  14 F= -.13586480E+04 E0= -.13586480E+04  d E =-.488793E+00
 BRION: g(F)=  0.150E+00 g(S)=  0.000E+00 retain N=  3 mean eig= 3.90
 eig:   5.110  5.110  1.491
 bond charge predicted
       N       E                     dE             d eps       ncg     rms          rms(c)
DAV:   1    -0.135872454797E+04   -0.76574E-01   -0.55377E+01  1392   0.107E+01    0.126E+00
DAV:   2    -0.135901541856E+04   -0.29087E+00   -0.31011E+00  2304   0.421E+00    0.647E-01
DAV:   3    -0.135903255511E+04   -0.17137E-01   -0.25410E-01  2600   0.834E-01    0.517E-01
DAV:   4    -0.135902830346E+04    0.42517E-02   -0.24624E-02  2584   0.379E-01    0.358E-01
DAV:   5    -0.135902476557E+04    0.35379E-02   -0.12353E-02  2304   0.216E-01    0.139E-01
DAV:   6    -0.135902498407E+04   -0.21850E-03   -0.74053E-03  2416   0.156E-01    0.101E-01
DAV:   7    -0.135902500324E+04   -0.19170E-04   -0.29394E-03  2432   0.996E-02    0.711E-02
DAV:   8    -0.135902500651E+04   -0.32715E-05   -0.10100E-03  2624   0.620E-02    0.444E-02
DAV:   9    -0.135902499650E+04    0.10016E-04   -0.23264E-04  2536   0.323E-02    0.311E-02
DAV:  10    -0.135902499856E+04   -0.20597E-05   -0.10266E-04  2568   0.192E-02    0.178E-02
DAV:  11    -0.135902499999E+04   -0.14285E-05   -0.43878E-05  2504   0.137E-02    0.104E-02
DAV:  12    -0.135902499948E+04    0.50262E-06   -0.18271E-05  2208   0.102E-02    0.803E-03
DAV:  13    -0.135902499930E+04    0.18692E-06   -0.11431E-05  1784   0.643E-03    0.457E-03
DAV:  14    -0.135902499907E+04    0.22320E-06   -0.21174E-06  1032   0.479E-03
  15 F= -.13590250E+04 E0= -.13590250E+04  d E =-.377026E+00
 BRION: g(F)=  0.127E+00 g(S)=  0.000E+00 retain N=  3 mean eig= 4.81
 eig:   6.429  6.429  1.576
 bond charge predicted
       N       E                     dE             d eps       ncg     rms          rms(c)
DAV:   1    -0.135911946743E+04   -0.94468E-01   -0.92932E+00  1384   0.438E+00    0.544E-01
DAV:   2    -0.135916557273E+04   -0.46105E-01   -0.49025E-01  2304   0.166E+00    0.272E-01
DAV:   3    -0.135916807894E+04   -0.25062E-02   -0.39426E-02  2584   0.333E-01    0.215E-01
DAV:   4    -0.135916720179E+04    0.87715E-03   -0.40873E-03  2552   0.154E-01    0.139E-01
DAV:   5    -0.135916669417E+04    0.50762E-03   -0.25852E-03  2248   0.105E-01    0.501E-02
DAV:   6    -0.135916678971E+04   -0.95537E-04   -0.13559E-03  2536   0.686E-02    0.507E-02
DAV:   7    -0.135916678226E+04    0.74440E-05   -0.34807E-04  2576   0.367E-02    0.341E-02
DAV:   8    -0.135916677101E+04    0.11257E-04   -0.12081E-04  2576   0.221E-02    0.165E-02
DAV:   9    -0.135916677119E+04   -0.18717E-06   -0.22840E-05  2376   0.113E-02    0.104E-02
DAV:  10    -0.135916677131E+04   -0.11269E-06   -0.97028E-06  1776   0.694E-03
  16 F= -.13591668E+04 E0= -.13591668E+04  d E =-.141772E+00
 BRION: g(F)=  0.115E+00 g(S)=  0.000E+00 retain N=  3 mean eig= 3.45
 eig:   4.676  4.676  0.993
 bond charge predicted
       N       E                     dE             d eps       ncg     rms          rms(c)
DAV:   1    -0.135926612581E+04   -0.99355E-01   -0.25370E+01  1376   0.722E+00    0.830E-01
DAV:   2    -0.135939392126E+04   -0.12780E+00   -0.13564E+00  2296   0.277E+00    0.426E-01
DAV:   3    -0.135940184977E+04   -0.79285E-02   -0.11222E-01  2592   0.558E-01    0.341E-01
DAV:   4    -0.135940027612E+04    0.15736E-02   -0.10285E-02  2592   0.246E-01    0.244E-01
DAV:   5    -0.135939864747E+04    0.16287E-02   -0.56602E-03  2296   0.153E-01    0.971E-02
DAV:   6    -0.135939874996E+04   -0.10249E-03   -0.36008E-03  2424   0.111E-01    0.767E-02
DAV:   7    -0.135939874619E+04    0.37771E-05   -0.13126E-03  2464   0.690E-02    0.532E-02
DAV:   8    -0.135939873813E+04    0.80587E-05   -0.53115E-04  2592   0.446E-02    0.304E-02
DAV:   9    -0.135939873368E+04    0.44517E-05   -0.11059E-04  2448   0.226E-02    0.206E-02
DAV:  10    -0.135939873423E+04   -0.55916E-06   -0.41738E-05  2512   0.127E-02    0.111E-02
DAV:  11    -0.135939873485E+04   -0.61157E-06   -0.13482E-05  2008   0.838E-03    0.609E-03
DAV:  12    -0.135939873487E+04   -0.21464E-07   -0.66920E-06  1592   0.625E-03
  17 F= -.13593987E+04 E0= -.13593987E+04  d E =-.231964E+00
 BRION: g(F)=  0.102E+00 g(S)=  0.000E+00 retain N=  3 mean eig= 4.17
 eig:   5.640  5.640  1.238
 bond charge predicted
       N       E                     dE             d eps       ncg     rms          rms(c)
DAV:   1    -0.135947899302E+04   -0.80258E-01   -0.30943E+01  1368   0.797E+00    0.910E-01
DAV:   2    -0.135963391543E+04   -0.15492E+00   -0.16419E+00  2288   0.303E+00    0.464E-01
DAV:   3    -0.135964370815E+04   -0.97927E-02   -0.13684E-01  2584   0.616E-01    0.370E-01
DAV:   4    -0.135964190449E+04    0.18037E-02   -0.12331E-02  2592   0.270E-01    0.268E-01
DAV:   5    -0.135963993737E+04    0.19671E-02   -0.66302E-03  2304   0.167E-01    0.112E-01
DAV:   6    -0.135964000848E+04   -0.71103E-04   -0.45058E-03  2400   0.126E-01    0.845E-02
DAV:   7    -0.135964001079E+04   -0.23145E-05   -0.17223E-03  2480   0.797E-02    0.608E-02
DAV:   8    -0.135964000031E+04    0.10481E-04   -0.70999E-04  2568   0.512E-02    0.355E-02
DAV:   9    -0.135963999272E+04    0.75914E-05   -0.15576E-04  2448   0.261E-02    0.234E-02
DAV:  10    -0.135963999293E+04   -0.20739E-06   -0.57096E-05  2512   0.148E-02    0.130E-02
DAV:  11    -0.135963999355E+04   -0.62227E-06   -0.19014E-05  2192   0.961E-03    0.699E-03
DAV:  12    -0.135963999347E+04    0.78653E-07   -0.82222E-06  1736   0.693E-03
  18 F= -.13596400E+04 E0= -.13596400E+04  d E =-.241259E+00
 BRION: g(F)=  0.932E-01 g(S)=  0.000E+00 retain N=  3 mean eig= 3.08
 eig:   1.035  4.108  4.108
 bond charge predicted
       N       E                     dE             d eps       ncg     rms          rms(c)
DAV:   1    -0.135971709813E+04   -0.77105E-01   -0.24449E+01  1368   0.708E+00    0.808E-01
DAV:   2    -0.135983870690E+04   -0.12161E+00   -0.12845E+00  2288   0.269E+00    0.407E-01
DAV:   3    -0.135984649521E+04   -0.77883E-02   -0.10693E-01  2592   0.549E-01    0.325E-01
DAV:   4    -0.135984516905E+04    0.13262E-02   -0.94325E-03  2600   0.237E-01    0.240E-01
DAV:   5    -0.135984354411E+04    0.16249E-02   -0.50412E-03  2320   0.153E-01    0.103E-01
DAV:   6    -0.135984358377E+04   -0.39659E-04   -0.40616E-03  2368   0.121E-01    0.776E-02
DAV:   7    -0.135984359498E+04   -0.11209E-04   -0.15019E-03  2440   0.743E-02    0.603E-02
DAV:   8    -0.135984357768E+04    0.17304E-04   -0.57373E-04  2552   0.461E-02    0.321E-02
DAV:   9    -0.135984356858E+04    0.90922E-05   -0.15662E-04  2392   0.249E-02    0.191E-02
DAV:  10    -0.135984357083E+04   -0.22423E-05   -0.49136E-05  2432   0.141E-02    0.134E-02
DAV:  11    -0.135984356989E+04    0.93585E-06   -0.18869E-05  2080   0.944E-03    0.626E-03
DAV:  12    -0.135984357019E+04   -0.29849E-06   -0.81368E-06  1728   0.692E-03
  19 F= -.13598436E+04 E0= -.13598436E+04  d E =-.203577E+00
 BRION: g(F)=  0.821E-01 g(S)=  0.000E+00 retain N=  3 mean eig= 4.41
 eig:   5.866  5.866  1.505
 bond charge predicted
       N       E                     dE             d eps       ncg     rms          rms(c)
DAV:   1    -0.135991977080E+04   -0.76201E-01   -0.20241E+01  1360   0.644E+00    0.720E-01
DAV:   2    -0.136002115729E+04   -0.10139E+00   -0.10718E+00  2304   0.246E+00    0.367E-01
DAV:   3    -0.136002788021E+04   -0.67229E-02   -0.89974E-02  2568   0.495E-01    0.300E-01
DAV:   4    -0.136002698264E+04    0.89757E-03   -0.78425E-03  2584   0.217E-01    0.229E-01
DAV:   5    -0.136002561242E+04    0.13702E-02   -0.41649E-03  2376   0.135E-01    0.107E-01
DAV:   6    -0.136002555115E+04    0.61274E-04   -0.36445E-03  2280   0.115E-01    0.737E-02
DAV:   7    -0.136002556900E+04   -0.17850E-04   -0.16046E-03  2488   0.768E-02    0.607E-02
DAV:   8    -0.136002555313E+04    0.15866E-04   -0.58161E-04  2512   0.472E-02    0.370E-02
DAV:   9    -0.136002553992E+04    0.13214E-04   -0.18036E-04  2448   0.254E-02    0.194E-02
DAV:  10    -0.136002554336E+04   -0.34471E-05   -0.55765E-05  2464   0.146E-02    0.135E-02
DAV:  11    -0.136002554340E+04   -0.42390E-07   -0.12688E-05  1792   0.851E-03    0.997E-03
DAV:  12    -0.136002554265E+04    0.75133E-06   -0.14448E-05  1768   0.831E-03    0.795E-03
DAV:  13    -0.136002554222E+04    0.43600E-06   -0.84489E-06  1728   0.621E-03
  20 F= -.13600255E+04 E0= -.13600255E+04  d E =-.181972E+00
 BRION: g(F)=  0.776E-01 g(S)=  0.000E+00 retain N=  3 mean eig= 4.77
 eig:   6.368  6.368  1.587
