 running on  160 total cores
 distrk:  each k-point on  160 cores,    1 groups
 distr:  one band on   20 cores,    8 groups
 using from now: INCAR     
 vasp.5.4.4.18Apr17-6-g9f103f2a35 (build May 01 2020 14:22:42) gamma-only       
  
 POSCAR found type information on POSCAR  O  La Zr Li Al
 POSCAR found :  5 types and     186 ions
 scaLAPACK will be used
 LDA part: xc-table for Pade appr. of Perdew
 POSCAR, INCAR and KPOINTS ok, starting setup
 FFT: planning ...
 WAVECAR not read
 WARNING: random wavefunctions but no delay for mixing, default for NELMDL
 entering main loop
       N       E                     dE             d eps       ncg     rms          rms(c)
DAV:   1     0.253038675210E+05    0.25304E+05   -0.42272E+05  1600   0.253E+03
DAV:   2     0.948025370849E+04   -0.15824E+05   -0.14576E+05  1416   0.708E+02
DAV:   3     0.274332558252E+04   -0.67369E+04   -0.61403E+04  1496   0.357E+02
DAV:   4    -0.325700146563E+03   -0.30690E+04   -0.28631E+04  2024   0.222E+02
DAV:   5    -0.138552693424E+04   -0.10598E+04   -0.10165E+04  2544   0.142E+02    0.116E+02
DAV:   6    -0.129032852744E+04    0.95198E+02   -0.15250E+03  2464   0.667E+01    0.503E+01
DAV:   7    -0.131337498242E+04   -0.23046E+02   -0.41746E+02  2552   0.346E+01    0.267E+01
DAV:   8    -0.131726529615E+04   -0.38903E+01   -0.24411E+02  2512   0.274E+01    0.235E+01
DAV:   9    -0.131420731799E+04    0.30580E+01   -0.37541E+01  2560   0.136E+01    0.892E+00
DAV:  10    -0.131435879842E+04   -0.15148E+00   -0.15989E+01  2616   0.711E+00    0.669E+00
DAV:  11    -0.131468611936E+04   -0.32732E+00   -0.49295E+00  2624   0.398E+00    0.431E+00
DAV:  12    -0.131469762410E+04   -0.11505E-01   -0.18642E+00  2576   0.291E+00    0.331E+00
DAV:  13    -0.131463198229E+04    0.65642E-01   -0.12057E+00  2544   0.198E+00    0.154E+00
DAV:  14    -0.131463701685E+04   -0.50346E-02   -0.21642E-01  2616   0.104E+00    0.114E+00
DAV:  15    -0.131463756680E+04   -0.54994E-03   -0.81323E-02  2552   0.538E-01    0.701E-01
DAV:  16    -0.131463830110E+04   -0.73431E-03   -0.23472E-02  2608   0.290E-01    0.516E-01
DAV:  17    -0.131463893331E+04   -0.63221E-03   -0.12632E-02  2504   0.222E-01    0.325E-01
DAV:  18    -0.131463883250E+04    0.10081E-03   -0.51631E-03  2480   0.134E-01    0.155E-01
DAV:  19    -0.131463877078E+04    0.61719E-04   -0.24425E-03  2552   0.975E-02    0.102E-01
DAV:  20    -0.131463880018E+04   -0.29394E-04   -0.77959E-04  2544   0.485E-02    0.383E-02
DAV:  21    -0.131463882458E+04   -0.24403E-04   -0.24318E-04  2608   0.317E-02    0.499E-02
DAV:  22    -0.131463883743E+04   -0.12855E-04   -0.79253E-05  2576   0.159E-02    0.143E-02
DAV:  23    -0.131463883758E+04   -0.14422E-06   -0.37791E-05  2224   0.111E-02    0.157E-02
DAV:  24    -0.131463884124E+04   -0.36677E-05   -0.11186E-05  1272   0.725E-03    0.615E-03
DAV:  25    -0.131463884146E+04   -0.21252E-06   -0.11119E-05  1512   0.672E-03    0.407E-03
DAV:  26    -0.131463884236E+04   -0.90164E-06   -0.22442E-06   984   0.447E-03
   1 F= -.13146388E+04 E0= -.13146329E+04  d E =-.131464E+04
 BRION: g(F)=  0.771E+02 g(S)=  0.000E+00
 bond charge predicted
       N       E                     dE             d eps       ncg     rms          rms(c)
DAV:   1    -0.125327570474E+04    0.61363E+02   -0.10316E+04  1744   0.151E+02    0.380E+01
DAV:   2    -0.134433582287E+04   -0.91060E+02   -0.10429E+03  2592   0.724E+01    0.180E+01
DAV:   3    -0.134148141492E+04    0.28544E+01   -0.60118E+01  2624   0.197E+01    0.119E+01
DAV:   4    -0.133861983999E+04    0.28616E+01   -0.23270E+01  2408   0.943E+00    0.565E+00
DAV:   5    -0.133843660660E+04    0.18323E+00   -0.53157E+00  2560   0.510E+00    0.400E+00
DAV:   6    -0.133827700721E+04    0.15960E+00   -0.40654E+00  2528   0.358E+00    0.218E+00
DAV:   7    -0.133825765245E+04    0.19355E-01   -0.68180E-01  2536   0.205E+00    0.162E+00
DAV:   8    -0.133824159304E+04    0.16059E-01   -0.59108E-01  2584   0.129E+00    0.703E-01
DAV:   9    -0.133824545325E+04   -0.38602E-02   -0.89047E-02  2544   0.649E-01    0.560E-01
DAV:  10    -0.133824236744E+04    0.30858E-02   -0.29155E-02  2616   0.363E-01    0.264E-01
DAV:  11    -0.133824330707E+04   -0.93964E-03   -0.19006E-02  2608   0.248E-01    0.165E-01
DAV:  12    -0.133824339365E+04   -0.86581E-04   -0.30035E-03  2600   0.124E-01    0.944E-02
DAV:  13    -0.133824332186E+04    0.71799E-04   -0.16359E-03  2624   0.777E-02    0.280E-02
DAV:  14    -0.133824335148E+04   -0.29628E-04   -0.31427E-04  2504   0.412E-02    0.151E-02
DAV:  15    -0.133824336021E+04   -0.87215E-05   -0.76720E-05  2624   0.187E-02    0.814E-03
DAV:  16    -0.133824336277E+04   -0.25641E-05   -0.23436E-05  2000   0.107E-02    0.525E-03
DAV:  17    -0.133824336383E+04   -0.10603E-05   -0.77316E-06  1648   0.686E-03    0.303E-03
DAV:  18    -0.133824336400E+04   -0.16985E-06   -0.15165E-06  1040   0.453E-03
   2 F= -.13382434E+04 E0= -.13382434E+04  d E =-.236045E+02
 BRION: g(F)=  0.603E+02 g(S)=  0.000E+00 retain N=  1 mean eig= 0.54
 eig:   0.541
 bond charge predicted
       N       E                     dE             d eps       ncg     rms          rms(c)
DAV:   1    -0.131965178476E+04    0.18592E+02   -0.35330E+03  1464   0.821E+01    0.189E+01
DAV:   2    -0.134991059012E+04   -0.30259E+02   -0.36487E+02  2544   0.378E+01    0.189E+01
DAV:   3    -0.134997785845E+04   -0.67268E-01   -0.25471E+01  2600   0.119E+01    0.151E+01
DAV:   4    -0.134844739775E+04    0.15305E+01   -0.13292E+01  2280   0.558E+00    0.850E+00
DAV:   5    -0.134868332679E+04   -0.23593E+00   -0.63902E+00  2240   0.464E+00    0.706E+00
DAV:   6    -0.134784994424E+04    0.83338E+00   -0.57411E+00  2488   0.410E+00    0.213E+00
DAV:   7    -0.134789678323E+04   -0.46839E-01   -0.14235E+00  2520   0.240E+00    0.978E-01
DAV:   8    -0.134790355304E+04   -0.67698E-02   -0.25142E-01  2608   0.974E-01    0.558E-01
DAV:   9    -0.134790231827E+04    0.12348E-02   -0.59247E-02  2592   0.504E-01    0.365E-01
DAV:  10    -0.134790299807E+04   -0.67979E-03   -0.17346E-02  2464   0.267E-01    0.192E-01
DAV:  11    -0.134790287611E+04    0.12196E-03   -0.57755E-03  2544   0.159E-01    0.894E-02
DAV:  12    -0.134790301687E+04   -0.14076E-03   -0.20192E-03  2520   0.867E-02    0.625E-02
DAV:  13    -0.134790304047E+04   -0.23595E-04   -0.68024E-04  2552   0.500E-02    0.449E-02
DAV:  14    -0.134790303176E+04    0.87041E-05   -0.25949E-04  2608   0.315E-02    0.209E-02
DAV:  15    -0.134790303509E+04   -0.33231E-05   -0.91748E-05  2608   0.192E-02    0.127E-02
DAV:  16    -0.134790303736E+04   -0.22775E-05   -0.33013E-05  2504   0.109E-02    0.754E-03
DAV:  17    -0.134790303765E+04   -0.29006E-06   -0.12045E-05  1912   0.787E-03    0.408E-03
DAV:  18    -0.134790303777E+04   -0.11356E-06   -0.28511E-06  1120   0.513E-03
   3 F= -.13479030E+04 E0= -.13479030E+04  d E =-.965967E+01
 BRION: g(F)=  0.913E+01 g(S)=  0.000E+00 retain N=  2 mean eig= 1.51
 eig:   0.398  2.619
 bond charge predicted
       N       E                     dE             d eps       ncg     rms          rms(c)
DAV:   1    -0.134945852444E+04   -0.15555E+01   -0.44337E+02  1408   0.297E+01    0.584E+00
DAV:   2    -0.135180396639E+04   -0.23454E+01   -0.26297E+01  2296   0.116E+01    0.286E+00
DAV:   3    -0.135185297280E+04   -0.49006E-01   -0.21151E+00  2616   0.279E+00    0.232E+00
DAV:   4    -0.135177386967E+04    0.79103E-01   -0.54597E-01  2560   0.155E+00    0.115E+00
DAV:   5    -0.135176183780E+04    0.12032E-01   -0.16473E-01  2432   0.915E-01    0.721E-01
DAV:   6    -0.135175983186E+04    0.20059E-02   -0.11859E-01  2600   0.651E-01    0.385E-01
DAV:   7    -0.135176005386E+04   -0.22200E-03   -0.30764E-02  2472   0.342E-01    0.310E-01
DAV:   8    -0.135175974776E+04    0.30610E-03   -0.10261E-02  2504   0.182E-01    0.171E-01
DAV:   9    -0.135175951871E+04    0.22905E-03   -0.35173E-03  2608   0.118E-01    0.897E-02
DAV:  10    -0.135175967364E+04   -0.15493E-03   -0.23519E-03  2424   0.892E-02    0.103E-01
DAV:  11    -0.135175955279E+04    0.12085E-03   -0.98063E-04  2536   0.621E-02    0.380E-02
DAV:  12    -0.135175957306E+04   -0.20267E-04   -0.47471E-04  2528   0.388E-02    0.272E-02
DAV:  13    -0.135175957273E+04    0.32557E-06   -0.81495E-05  2568   0.196E-02    0.175E-02
DAV:  14    -0.135175957180E+04    0.93387E-06   -0.33365E-05  2464   0.101E-02    0.726E-03
DAV:  15    -0.135175957196E+04   -0.16260E-06   -0.51102E-06  1288   0.609E-03
   4 F= -.13517596E+04 E0= -.13517596E+04  d E =-.385653E+01
 BRION: g(F)=  0.354E+01 g(S)=  0.000E+00 retain N=  3 mean eig= 1.57
 eig:   3.894  0.485  0.324
 bond charge predicted
       N       E                     dE             d eps       ncg     rms          rms(c)
DAV:   1    -0.135267045287E+04   -0.91088E+00   -0.21745E+02  1376   0.203E+01    0.358E+00
DAV:   2    -0.135374477279E+04   -0.10743E+01   -0.11462E+01  2280   0.750E+00    0.174E+00
DAV:   3    -0.135376423288E+04   -0.19460E-01   -0.78342E-01  2608   0.160E+00    0.138E+00
DAV:   4    -0.135372785911E+04    0.36374E-01   -0.21361E-01  2440   0.970E-01    0.614E-01
DAV:   5    -0.135372794756E+04   -0.88447E-04   -0.71345E-02  2456   0.559E-01    0.432E-01
DAV:   6    -0.135372802309E+04   -0.75537E-04   -0.50857E-02  2536   0.382E-01    0.222E-01
DAV:   7    -0.135372766090E+04    0.36220E-03   -0.68446E-03  2528   0.195E-01    0.148E-01
DAV:   8    -0.135372770654E+04   -0.45638E-04   -0.42537E-03  2480   0.106E-01    0.657E-02
DAV:   9    -0.135372771770E+04   -0.11166E-04   -0.71296E-04  2624   0.598E-02    0.522E-02
DAV:  10    -0.135372770460E+04    0.13103E-04   -0.36335E-04  2544   0.351E-02    0.279E-02
DAV:  11    -0.135372771090E+04   -0.62968E-05   -0.21152E-04  2536   0.269E-02    0.192E-02
DAV:  12    -0.135372771020E+04    0.69180E-06   -0.35989E-05  2472   0.128E-02    0.138E-02
DAV:  13    -0.135372770870E+04    0.15000E-05   -0.26612E-05  2184   0.962E-03    0.605E-03
DAV:  14    -0.135372770887E+04   -0.17023E-06   -0.92297E-06  1720   0.643E-03
   5 F= -.13537277E+04 E0= -.13537277E+04  d E =-.196814E+01
 BRION: g(F)=  0.175E+01 g(S)=  0.000E+00 retain N=  4 mean eig= 1.41
 eig:   2.260  2.260  0.569  0.569
 bond charge predicted
       N       E                     dE             d eps       ncg     rms          rms(c)
DAV:   1    -0.135447783480E+04   -0.75013E+00   -0.18989E+02  1376   0.195E+01    0.270E+00
DAV:   2    -0.135539340578E+04   -0.91557E+00   -0.97076E+00  2280   0.719E+00    0.136E+00
DAV:   3    -0.135542580101E+04   -0.32395E-01   -0.70192E-01  2576   0.149E+00    0.112E+00
DAV:   4    -0.135540116905E+04    0.24632E-01   -0.12520E-01  2520   0.758E-01    0.590E-01
DAV:   5    -0.135539587328E+04    0.52958E-02   -0.49835E-02  2440   0.464E-01    0.317E-01
DAV:   6    -0.135539610811E+04   -0.23483E-03   -0.26469E-02  2592   0.317E-01    0.187E-01
DAV:   7    -0.135539615022E+04   -0.42113E-04   -0.83329E-03  2288   0.178E-01    0.141E-01
DAV:   8    -0.135539616838E+04   -0.18162E-04   -0.30197E-03  2352   0.962E-02    0.802E-02
DAV:   9    -0.135539611945E+04    0.48938E-04   -0.80060E-04  2608   0.567E-02    0.524E-02
DAV:  10    -0.135539614054E+04   -0.21092E-04   -0.63430E-04  2544   0.451E-02    0.470E-02
DAV:  11    -0.135539611890E+04    0.21643E-04   -0.26060E-04  2536   0.324E-02    0.170E-02
DAV:  12    -0.135539612326E+04   -0.43654E-05   -0.90075E-05  2464   0.188E-02    0.113E-02
DAV:  13    -0.135539612367E+04   -0.40721E-06   -0.22353E-05  2224   0.956E-03    0.705E-03
DAV:  14    -0.135539612374E+04   -0.73895E-07   -0.94842E-06  1632   0.630E-03
   6 F= -.13553961E+04 E0= -.13553961E+04  d E =-.166841E+01
 BRION: g(F)=  0.962E+00 g(S)=  0.000E+00 retain N=  5 mean eig= 1.55
 eig:   2.881  2.881  0.682  0.682  0.637
 bond charge predicted
       N       E                     dE             d eps       ncg     rms          rms(c)
DAV:   1    -0.135585982710E+04   -0.46370E+00   -0.15493E+02  1392   0.177E+01    0.244E+00
DAV:   2    -0.135662357545E+04   -0.76375E+00   -0.80623E+00  2288   0.670E+00    0.116E+00
DAV:   3    -0.135666008413E+04   -0.36509E-01   -0.61215E-01  2624   0.135E+00    0.923E-01
DAV:   4    -0.135664483064E+04    0.15253E-01   -0.82159E-02  2576   0.647E-01    0.529E-01
DAV:   5    -0.135664022416E+04    0.46065E-02   -0.36436E-02  2416   0.392E-01    0.237E-01
DAV:   6    -0.135664116351E+04   -0.93935E-03   -0.16027E-02  2576   0.243E-01    0.181E-01
DAV:   7    -0.135664098349E+04    0.18002E-03   -0.50197E-03  2504   0.142E-01    0.118E-01
DAV:   8    -0.135664099140E+04   -0.79089E-05   -0.22733E-03  2552   0.868E-02    0.663E-02
DAV:   9    -0.135664096129E+04    0.30106E-04   -0.37591E-04  2608   0.443E-02    0.451E-02
DAV:  10    -0.135664097082E+04   -0.95332E-05   -0.37623E-04  2368   0.340E-02    0.283E-02
DAV:  11    -0.135664096624E+04    0.45858E-05   -0.10146E-04  2496   0.231E-02    0.117E-02
DAV:  12    -0.135664096957E+04   -0.33353E-05   -0.50064E-05  2408   0.127E-02    0.115E-02
DAV:  13    -0.135664096808E+04    0.14901E-05   -0.12325E-05  1792   0.792E-03    0.498E-03
DAV:  14    -0.135664096830E+04   -0.21356E-06   -0.56052E-06  1448   0.558E-03
   7 F= -.13566410E+04 E0= -.13566410E+04  d E =-.124484E+01
 BRION: g(F)=  0.641E+00 g(S)=  0.000E+00 retain N=  6 mean eig= 1.67
 eig:   3.155  3.155  1.120  1.120  0.747  0.747
 bond charge predicted
       N       E                     dE             d eps       ncg     rms          rms(c)
DAV:   1    -0.135701272007E+04   -0.37175E+00   -0.97567E+01  1392   0.143E+01    0.186E+00
DAV:   2    -0.135752445291E+04   -0.51173E+00   -0.54539E+00  2288   0.555E+00    0.946E-01
DAV:   3    -0.135755220926E+04   -0.27756E-01   -0.43026E-01  2624   0.114E+00    0.775E-01
DAV:   4    -0.135754361524E+04    0.85940E-02   -0.50949E-02  2616   0.537E-01    0.498E-01
DAV:   5    -0.135753887215E+04    0.47431E-02   -0.26749E-02  2320   0.330E-01    0.197E-01
DAV:   6    -0.135753977326E+04   -0.90111E-03   -0.13466E-02  2536   0.225E-01    0.177E-01
DAV:   7    -0.135753960777E+04    0.16549E-03   -0.50692E-03  2528   0.136E-01    0.112E-01
DAV:   8    -0.135753957545E+04    0.32322E-04   -0.19049E-03  2576   0.852E-02    0.577E-02
DAV:   9    -0.135753956267E+04    0.12784E-04   -0.30844E-04  2568   0.399E-02    0.415E-02
DAV:  10    -0.135753957233E+04   -0.96650E-05   -0.22938E-04  2416   0.276E-02    0.238E-02
DAV:  11    -0.135753956826E+04    0.40767E-05   -0.66339E-05  2496   0.192E-02    0.985E-03
DAV:  12    -0.135753957135E+04   -0.30894E-05   -0.37049E-05  2408   0.115E-02    0.112E-02
DAV:  13    -0.135753956960E+04    0.17488E-05   -0.11122E-05  1704   0.740E-03    0.470E-03
DAV:  14    -0.135753956970E+04   -0.10058E-06   -0.49459E-06  1360   0.583E-03
   8 F= -.13575396E+04 E0= -.13575396E+04  d E =-.898601E+00
 BRION: g(F)=  0.505E+00 g(S)=  0.000E+00 retain N=  7 mean eig= 1.97
 eig:   4.069  4.069  1.683  1.683  0.752  0.752  0.760
 bond charge predicted
       N       E                     dE             d eps       ncg     rms          rms(c)
DAV:   1    -0.135786028707E+04   -0.32072E+00   -0.80170E+01  1392   0.130E+01    0.166E+00
DAV:   2    -0.135828027760E+04   -0.41999E+00   -0.44559E+00  2272   0.503E+00    0.834E-01
DAV:   3    -0.135830337344E+04   -0.23096E-01   -0.35084E-01  2608   0.103E+00    0.673E-01
DAV:   4    -0.135829644916E+04    0.69243E-02   -0.39836E-02  2592   0.480E-01    0.436E-01
DAV:   5    -0.135829246290E+04    0.39863E-02   -0.20064E-02  2336   0.303E-01    0.163E-01
DAV:   6    -0.135829319959E+04   -0.73668E-03   -0.11130E-02  2536   0.201E-01    0.149E-01
DAV:   7    -0.135829313314E+04    0.66442E-04   -0.33974E-03  2560   0.115E-01    0.102E-01
DAV:   8    -0.135829307606E+04    0.57083E-04   -0.15086E-03  2592   0.736E-02    0.487E-02
DAV:   9    -0.135829307058E+04    0.54806E-05   -0.24252E-04  2560   0.355E-02    0.346E-02
DAV:  10    -0.135829307252E+04   -0.19437E-05   -0.12611E-04  2520   0.233E-02    0.179E-02
DAV:  11    -0.135829307292E+04   -0.39693E-06   -0.41817E-05  2472   0.147E-02    0.837E-03
DAV:  12    -0.135829307448E+04   -0.15624E-05   -0.18600E-05  2168   0.866E-03    0.829E-03
DAV:  13    -0.135829307357E+04    0.91403E-06   -0.52098E-06  1360   0.589E-03
   9 F= -.13582931E+04 E0= -.13582931E+04  d E =-.753504E+00
 BRION: g(F)=  0.363E+00 g(S)=  0.000E+00 retain N=  8 mean eig= 2.64
 eig:   6.332  6.332  2.588  2.588  0.833  0.833  0.803  0.803
 bond charge predicted
       N       E                     dE             d eps       ncg     rms          rms(c)
DAV:   1    -0.135851379227E+04   -0.22072E+00   -0.97982E+01  1384   0.143E+01    0.175E+00
DAV:   2    -0.135903672149E+04   -0.52293E+00   -0.55822E+00  2280   0.571E+00    0.877E-01
DAV:   3    -0.135906880083E+04   -0.32079E-01   -0.45800E-01  2592   0.116E+00    0.720E-01
DAV:   4    -0.135906227900E+04    0.65218E-02   -0.46526E-02  2608   0.525E-01    0.505E-01
DAV:   5    -0.135905660967E+04    0.56693E-02   -0.23504E-02  2352   0.305E-01    0.204E-01
DAV:   6    -0.135905712602E+04   -0.51635E-03   -0.13840E-02  2440   0.220E-01    0.160E-01
DAV:   7    -0.135905707231E+04    0.53715E-04   -0.61810E-03  2456   0.149E-01    0.112E-01
DAV:   8    -0.135905706815E+04    0.41586E-05   -0.24042E-03  2568   0.941E-02    0.689E-02
DAV:   9    -0.135905703849E+04    0.29654E-04   -0.46535E-04  2536   0.458E-02    0.459E-02
DAV:  10    -0.135905704393E+04   -0.54349E-05   -0.19513E-04  2592   0.261E-02    0.234E-02
DAV:  11    -0.135905704950E+04   -0.55736E-05   -0.64315E-05  2544   0.173E-02    0.152E-02
DAV:  12    -0.135905704737E+04    0.21294E-05   -0.29957E-05  2320   0.131E-02    0.110E-02
DAV:  13    -0.135905704735E+04    0.26877E-07   -0.26008E-05  2224   0.890E-03    0.634E-03
DAV:  14    -0.135905704697E+04    0.37966E-06   -0.26673E-06  1080   0.503E-03
  10 F= -.13590570E+04 E0= -.13590570E+04  d E =-.763973E+00
 BRION: g(F)=  0.285E+00 g(S)=  0.000E+00 retain N=  7 mean eig= 2.93
 eig:   6.050  6.050  2.601  2.601  1.139  1.139  0.946
 bond charge predicted
       N       E                     dE             d eps       ncg     rms          rms(c)
DAV:   1    -0.135928355885E+04   -0.22651E+00   -0.65566E+01  1384   0.117E+01    0.144E+00
DAV:   2    -0.135962678866E+04   -0.34323E+00   -0.36567E+00  2288   0.457E+00    0.725E-01
DAV:   3    -0.135964728880E+04   -0.20500E-01   -0.29566E-01  2584   0.933E-01    0.593E-01
DAV:   4    -0.135964270656E+04    0.45822E-02   -0.31613E-02  2608   0.420E-01    0.411E-01
DAV:   5    -0.135963848566E+04    0.42209E-02   -0.15554E-02  2352   0.267E-01    0.164E-01
DAV:   6    -0.135963897373E+04   -0.48808E-03   -0.10920E-02  2424   0.200E-01    0.137E-01
DAV:   7    -0.135963892933E+04    0.44399E-04   -0.38667E-03  2384   0.118E-01    0.101E-01
DAV:   8    -0.135963889503E+04    0.34302E-04   -0.15860E-03  2568   0.736E-02    0.503E-02
DAV:   9    -0.135963887908E+04    0.15949E-04   -0.34922E-04  2488   0.397E-02    0.341E-02
DAV:  10    -0.135963888352E+04   -0.44325E-05   -0.11789E-04  2544   0.218E-02    0.217E-02
DAV:  11    -0.135963888219E+04    0.13259E-05   -0.51585E-05  2496   0.150E-02    0.116E-02
DAV:  12    -0.135963888276E+04   -0.56853E-06   -0.23572E-05  2280   0.106E-02    0.103E-02
DAV:  13    -0.135963888196E+04    0.80207E-06   -0.13648E-05  1752   0.699E-03    0.503E-03
DAV:  14    -0.135963888186E+04    0.93380E-07   -0.31399E-06  1168   0.505E-03
  11 F= -.13596389E+04 E0= -.13596389E+04  d E =-.581835E+00
 BRION: g(F)=  0.238E+00 g(S)=  0.000E+00 retain N=  8 mean eig= 3.43
 eig:   7.552  7.552  3.698  3.698  1.486  1.486  0.975  0.975
 bond charge predicted
       N       E                     dE             d eps       ncg     rms          rms(c)
DAV:   1    -0.135975868875E+04   -0.11981E+00   -0.78303E+01  1392   0.128E+01    0.156E+00
DAV:   2    -0.136017440132E+04   -0.41571E+00   -0.44312E+00  2288   0.511E+00    0.785E-01
DAV:   3    -0.136020024969E+04   -0.25848E-01   -0.36518E-01  2584   0.103E+00    0.646E-01
DAV:   4    -0.136019512361E+04    0.51261E-02   -0.36890E-02  2608   0.461E-01    0.462E-01
DAV:   5    -0.136018990007E+04    0.52235E-02   -0.19413E-02  2328   0.278E-01    0.184E-01
DAV:   6    -0.136019038736E+04   -0.48728E-03   -0.12356E-02  2424   0.205E-01    0.147E-01
DAV:   7    -0.136019030805E+04    0.79305E-04   -0.50802E-03  2408   0.133E-01    0.101E-01
DAV:   8    -0.136019029497E+04    0.13077E-04   -0.19387E-03  2568   0.848E-02    0.582E-02
DAV:   9    -0.136019027885E+04    0.16129E-04   -0.38031E-04  2504   0.412E-02    0.397E-02
DAV:  10    -0.136019028455E+04   -0.56999E-05   -0.14162E-04  2576   0.227E-02    0.216E-02
DAV:  11    -0.136019028698E+04   -0.24312E-05   -0.56912E-05  2536   0.157E-02    0.127E-02
DAV:  12    -0.136019028664E+04    0.34009E-06   -0.24804E-05  2376   0.116E-02    0.104E-02
DAV:  13    -0.136019028613E+04    0.50678E-06   -0.17464E-05  1928   0.754E-03    0.571E-03
DAV:  14    -0.136019028575E+04    0.38088E-06   -0.21570E-06  1016   0.521E-03
  12 F= -.13601903E+04 E0= -.13601903E+04  d E =-.551404E+00
 BRION: g(F)=  0.190E+00 g(S)=  0.000E+00 retain N=  3 mean eig= 4.39
 eig:   5.807  5.807  1.564
 bond charge predicted
       N       E                     dE             d eps       ncg     rms          rms(c)
DAV:   1    -0.136027422280E+04   -0.83937E-01   -0.82962E+01  1392   0.131E+01    0.155E+00
DAV:   2    -0.136071181222E+04   -0.43759E+00   -0.46558E+00  2280   0.519E+00    0.789E-01
DAV:   3    -0.136073945989E+04   -0.27648E-01   -0.38939E-01  2576   0.106E+00    0.649E-01
DAV:   4    -0.136073440917E+04    0.50507E-02   -0.38377E-02  2600   0.466E-01    0.469E-01
DAV:   5    -0.136072869193E+04    0.57172E-02   -0.17663E-02  2344   0.276E-01    0.203E-01
DAV:   6    -0.136072878777E+04   -0.95839E-04   -0.13791E-02  2368   0.219E-01    0.133E-01
DAV:   7    -0.136072887350E+04   -0.85726E-04   -0.57005E-03  2384   0.140E-01    0.107E-01
DAV:   8    -0.136072884054E+04    0.32960E-04   -0.18343E-03  2576   0.846E-02    0.638E-02
DAV:   9    -0.136072881557E+04    0.24966E-04   -0.56758E-04  2544   0.468E-02    0.381E-02
DAV:  10    -0.136072882753E+04   -0.11955E-04   -0.16735E-04  2584   0.263E-02    0.260E-02
DAV:  11    -0.136072882860E+04   -0.10743E-05   -0.73214E-05  2536   0.177E-02    0.164E-02
DAV:  12    -0.136072882715E+04    0.14546E-05   -0.42374E-05  2336   0.143E-02    0.130E-02
DAV:  13    -0.136072882631E+04    0.83167E-06   -0.27095E-05  2176   0.944E-03    0.685E-03
DAV:  14    -0.136072882611E+04    0.20902E-06   -0.61921E-06  1520   0.568E-03
  13 F= -.13607288E+04 E0= -.13607288E+04  d E =-.538540E+00
 BRION: g(F)=  0.160E+00 g(S)=  0.000E+00 retain N=  3 mean eig= 4.91
 eig:   6.504  6.504  1.736
 bond charge predicted
       N       E                     dE             d eps       ncg     rms          rms(c)
DAV:   1    -0.136084745951E+04   -0.11863E+00   -0.38955E+01  1376   0.899E+00    0.108E+00
DAV:   2    -0.136105061087E+04   -0.20315E+00   -0.21588E+00  2280   0.352E+00    0.549E-01
DAV:   3    -0.136106314135E+04   -0.12530E-01   -0.17947E-01  2584   0.721E-01    0.446E-01
DAV:   4    -0.136106049452E+04    0.26468E-02   -0.17868E-02  2616   0.314E-01    0.319E-01
DAV:   5    -0.136105768940E+04    0.28051E-02   -0.87394E-03  2368   0.198E-01    0.131E-01
DAV:   6    -0.136105781033E+04   -0.12092E-03   -0.66365E-03  2400   0.153E-01    0.966E-02
DAV:   7    -0.136105782754E+04   -0.17209E-04   -0.25028E-03  2408   0.946E-02    0.748E-02
DAV:   8    -0.136105781026E+04    0.17275E-04   -0.91375E-04  2592   0.567E-02    0.406E-02
DAV:   9    -0.136105779964E+04    0.10628E-04   -0.23590E-04  2496   0.313E-02    0.259E-02
DAV:  10    -0.136105780405E+04   -0.44118E-05   -0.82909E-05  2480   0.181E-02    0.178E-02
DAV:  11    -0.136105780289E+04    0.11557E-05   -0.35276E-05  2416   0.124E-02    0.931E-03
DAV:  12    -0.136105780310E+04   -0.21073E-06   -0.16433E-05  2040   0.896E-03    0.816E-03
DAV:  13    -0.136105780253E+04    0.57326E-06   -0.80879E-06  1600   0.606E-03
  14 F= -.13610578E+04 E0= -.13610578E+04  d E =-.328976E+00
 BRION: g(F)=  0.139E+00 g(S)=  0.000E+00 retain N=  3 mean eig= 4.93
 eig:   6.508  6.508  1.770
 bond charge predicted
       N       E                     dE             d eps       ncg     rms          rms(c)
DAV:   1    -0.136116255939E+04   -0.10476E+00   -0.35665E+01  1368   0.855E+00    0.103E+00
DAV:   2    -0.136134906239E+04   -0.18650E+00   -0.19849E+00  2304   0.338E+00    0.525E-01
DAV:   3    -0.136136066221E+04   -0.11600E-01   -0.16573E-01  2576   0.678E-01    0.429E-01
DAV:   4    -0.136135835240E+04    0.23098E-02   -0.16298E-02  2608   0.301E-01    0.309E-01
DAV:   5    -0.136135590124E+04    0.24512E-02   -0.80018E-03  2360   0.183E-01    0.130E-01
DAV:   6    -0.136135597526E+04   -0.74013E-04   -0.57373E-03  2384   0.139E-01    0.935E-02
DAV:   7    -0.136135598798E+04   -0.12719E-04   -0.23865E-03  2424   0.917E-02    0.720E-02
DAV:   8    -0.136135597281E+04    0.15169E-04   -0.92817E-04  2576   0.580E-02    0.430E-02
DAV:   9    -0.136135596089E+04    0.11914E-04   -0.23250E-04  2512   0.305E-02    0.267E-02
DAV:  10    -0.136135596441E+04   -0.35122E-05   -0.75165E-05  2568   0.170E-02    0.171E-02
DAV:  11    -0.136135596483E+04   -0.42017E-06   -0.29252E-05  2304   0.114E-02    0.108E-02
DAV:  12    -0.136135596392E+04    0.90103E-06   -0.17922E-05  2096   0.930E-03    0.785E-03
DAV:  13    -0.136135596377E+04    0.15172E-06   -0.10508E-05  1760   0.625E-03    0.442E-03
DAV:  14    -0.136135596357E+04    0.20393E-06   -0.16358E-06   952   0.422E-03
  15 F= -.13613560E+04 E0= -.13613560E+04  d E =-.298161E+00
 BRION: g(F)=  0.120E+00 g(S)=  0.000E+00 retain N=  2 mean eig= 3.05
 eig:   3.045  3.045
 bond charge predicted
       N       E                     dE             d eps       ncg     rms          rms(c)
DAV:   1    -0.136145599939E+04   -0.10004E+00   -0.24068E+01  1368   0.696E+00    0.826E-01
DAV:   2    -0.136157995832E+04   -0.12396E+00   -0.13101E+00  2312   0.274E+00    0.425E-01
DAV:   3    -0.136158710586E+04   -0.71475E-02   -0.10429E-01  2584   0.543E-01    0.347E-01
DAV:   4    -0.136158554277E+04    0.15631E-02   -0.10155E-02  2600   0.237E-01    0.250E-01
DAV:   5    -0.136158373639E+04    0.18064E-02   -0.50819E-03  2312   0.158E-01    0.106E-01
DAV:   6    -0.136158378498E+04   -0.48593E-04   -0.46222E-03  2312   0.130E-01    0.811E-02
DAV:   7    -0.136158380916E+04   -0.24177E-04   -0.18259E-03  2384   0.798E-02    0.690E-02
DAV:   8    -0.136158378768E+04    0.21481E-04   -0.62117E-04  2584   0.465E-02    0.372E-02
DAV:   9    -0.136158377156E+04    0.16111E-04   -0.22071E-04  2472   0.283E-02    0.202E-02
DAV:  10    -0.136158377744E+04   -0.58703E-05   -0.74044E-05  2480   0.171E-02    0.173E-02
DAV:  11    -0.136158377519E+04    0.22495E-05   -0.27473E-05  2152   0.111E-02    0.102E-02
DAV:  12    -0.136158377491E+04    0.27288E-06   -0.16284E-05  1968   0.863E-03    0.844E-03
DAV:  13    -0.136158377440E+04    0.51204E-06   -0.98413E-06  1752   0.633E-03
  16 F= -.13615838E+04 E0= -.13615838E+04  d E =-.227811E+00
 BRION: g(F)=  0.109E+00 g(S)=  0.000E+00 retain N=  3 mean eig= 3.73
 eig:   4.908  4.908  1.387
 bond charge predicted
       N       E                     dE             d eps       ncg     rms          rms(c)
DAV:   1    -0.136165425117E+04   -0.70476E-01   -0.31567E+01  1368   0.799E+00    0.950E-01
DAV:   2    -0.136181821677E+04   -0.16397E+00   -0.17401E+00  2312   0.318E+00    0.498E-01
DAV:   3    -0.136182729890E+04   -0.90821E-02   -0.13822E-01  2576   0.632E-01    0.401E-01
DAV:   4    -0.136182504258E+04    0.22563E-02   -0.14434E-02  2568   0.280E-01    0.282E-01
DAV:   5    -0.136182301123E+04    0.20314E-02   -0.66066E-03  2384   0.166E-01    0.125E-01
DAV:   6    -0.136182294457E+04    0.66655E-04   -0.47611E-03  2288   0.131E-01    0.808E-02
DAV:   7    -0.136182301282E+04   -0.68247E-04   -0.22976E-03  2400   0.886E-02    0.725E-02
DAV:   8    -0.136182299011E+04    0.22709E-04   -0.78597E-04  2584   0.528E-02    0.457E-02
DAV:   9    -0.136182297366E+04    0.16451E-04   -0.27446E-04  2528   0.310E-02    0.254E-02
DAV:  10    -0.136182297739E+04   -0.37323E-05   -0.81750E-05  2560   0.184E-02    0.181E-02
DAV:  11    -0.136182297690E+04    0.48839E-06   -0.23477E-05  2288   0.106E-02    0.113E-02
DAV:  12    -0.136182297611E+04    0.79075E-06   -0.23681E-05  2000   0.930E-03    0.836E-03
DAV:  13    -0.136182297574E+04    0.37726E-06   -0.99471E-06  1776   0.663E-03
  17 F= -.13618230E+04 E0= -.13618230E+04  d E =-.239201E+00
 BRION: g(F)=  0.934E-01 g(S)=  0.000E+00 retain N=  3 mean eig= 4.50
 eig:   5.991  5.991  1.504
 bond charge predicted
       N       E                     dE             d eps       ncg     rms          rms(c)
DAV:   1    -0.136189069191E+04   -0.67716E-01   -0.25112E+01  1368   0.707E+00    0.824E-01
DAV:   2    -0.136201948204E+04   -0.12879E+00   -0.13585E+00  2312   0.281E+00    0.434E-01
DAV:   3    -0.136202607800E+04   -0.65960E-02   -0.10165E-01  2568   0.555E-01    0.345E-01
DAV:   4    -0.136202435182E+04    0.17262E-02   -0.10730E-02  2552   0.241E-01    0.240E-01
DAV:   5    -0.136202290721E+04    0.14446E-02   -0.49722E-03  2376   0.147E-01    0.105E-01
DAV:   6    -0.136202290891E+04   -0.16987E-05   -0.35098E-03  2320   0.112E-01    0.711E-02
DAV:   7    -0.136202294384E+04   -0.34934E-04   -0.15746E-03  2392   0.744E-02    0.615E-02
DAV:   8    -0.136202293214E+04    0.11704E-04   -0.61172E-04  2592   0.453E-02    0.389E-02
DAV:   9    -0.136202291923E+04    0.12904E-04   -0.18791E-04  2488   0.259E-02    0.219E-02
DAV:  10    -0.136202292127E+04   -0.20387E-05   -0.61664E-05  2520   0.158E-02    0.153E-02
DAV:  11    -0.136202292066E+04    0.60876E-06   -0.17029E-05  2016   0.933E-03    0.913E-03
DAV:  12    -0.136202292024E+04    0.42499E-06   -0.15212E-05  1896   0.799E-03    0.705E-03
DAV:  13    -0.136202291993E+04    0.30892E-06   -0.73469E-06  1616   0.590E-03
  18 F= -.13620229E+04 E0= -.13620229E+04  d E =-.199944E+00
 BRION: g(F)=  0.825E-01 g(S)=  0.000E+00 retain N=  3 mean eig= 4.45
 eig:   5.892  5.892  1.573
 bond charge predicted
       N       E                     dE             d eps       ncg     rms          rms(c)
DAV:   1    -0.136209348767E+04   -0.70567E-01   -0.11667E+01  1376   0.484E+00    0.569E-01
DAV:   2    -0.136215362587E+04   -0.60138E-01   -0.63477E-01  2320   0.194E+00    0.296E-01
DAV:   3    -0.136215673980E+04   -0.31139E-02   -0.47403E-02  2576   0.372E-01    0.235E-01
DAV:   4    -0.136215591694E+04    0.82285E-03   -0.48439E-03  2536   0.165E-01    0.162E-01
DAV:   5    -0.136215525885E+04    0.65810E-03   -0.25225E-03  2312   0.104E-01    0.676E-02
DAV:   6    -0.136215529748E+04   -0.38633E-04   -0.16793E-03  2352   0.783E-02    0.536E-02
DAV:   7    -0.136215530044E+04   -0.29552E-05   -0.71878E-04  2400   0.508E-02    0.413E-02
DAV:   8    -0.136215529701E+04    0.34266E-05   -0.31899E-04  2544   0.323E-02    0.245E-02
DAV:   9    -0.136215529187E+04    0.51423E-05   -0.69310E-05  2440   0.173E-02    0.159E-02
DAV:  10    -0.136215529177E+04    0.97149E-07   -0.33303E-05  2408   0.110E-02    0.934E-03
DAV:  11    -0.136215529175E+04    0.17899E-07   -0.79268E-06  1480   0.766E-03
  19 F= -.13621553E+04 E0= -.13621553E+04  d E =-.132372E+00
 BRION: g(F)=  0.774E-01 g(S)=  0.000E+00 retain N=  3 mean eig= 3.83
 eig:   5.001  5.001  1.489
 bond charge predicted
       N       E                     dE             d eps       ncg     rms          rms(c)
DAV:   1    -0.136222514822E+04   -0.69856E-01   -0.10208E+01  1376   0.454E+00    0.518E-01
DAV:   2    -0.136227715691E+04   -0.52009E-01   -0.54864E-01  2312   0.181E+00    0.268E-01
DAV:   3    -0.136228013798E+04   -0.29811E-02   -0.42204E-02  2568   0.340E-01    0.214E-01
DAV:   4    -0.136227954129E+04    0.59670E-03   -0.38688E-03  2544   0.149E-01    0.155E-01
DAV:   5    -0.136227894621E+04    0.59508E-03   -0.22817E-03  2248   0.954E-02    0.613E-02
DAV:   6    -0.136227900679E+04   -0.60588E-04   -0.14757E-03  2384   0.697E-02    0.537E-02
DAV:   7    -0.136227899869E+04    0.81085E-05   -0.58223E-04  2512   0.453E-02    0.372E-02
DAV:   8    -0.136227899201E+04    0.66728E-05   -0.25747E-04  2512   0.304E-02    0.202E-02
DAV:   9    -0.136227898992E+04    0.20953E-05   -0.43135E-05  2304   0.145E-02    0.140E-02
DAV:  10    -0.136227898969E+04    0.22697E-06   -0.19120E-05  2112   0.869E-03    0.616E-03
DAV:  11    -0.136227898978E+04   -0.90557E-07   -0.21291E-06  1032   0.584E-03
  20 F= -.13622790E+04 E0= -.13622790E+04  d E =-.123698E+00
 BRION: g(F)=  0.728E-01 g(S)=  0.000E+00 retain N=  3 mean eig= 3.77
 eig:   4.977  4.977  1.363
