 running on  160 total cores
 distrk:  each k-point on  160 cores,    1 groups
 distr:  one band on   20 cores,    8 groups
 using from now: INCAR     
 vasp.5.4.4.18Apr17-6-g9f103f2a35 (build May 01 2020 14:22:42) gamma-only       
  
 POSCAR found type information on POSCAR  O  La Zr Li Al
 POSCAR found :  5 types and     186 ions
 scaLAPACK will be used
 LDA part: xc-table for Pade appr. of Perdew
 POSCAR, INCAR and KPOINTS ok, starting setup
 FFT: planning ...
 WAVECAR not read
 WARNING: random wavefunctions but no delay for mixing, default for NELMDL
 entering main loop
       N       E                     dE             d eps       ncg     rms          rms(c)
DAV:   1     0.252885496828E+05    0.25289E+05   -0.42162E+05  1576   0.253E+03
DAV:   2     0.949732084041E+04   -0.15791E+05   -0.14601E+05  1432   0.707E+02
DAV:   3     0.270064190724E+04   -0.67967E+04   -0.62016E+04  1512   0.356E+02
DAV:   4    -0.328381078123E+03   -0.30290E+04   -0.28288E+04  2008   0.227E+02
DAV:   5    -0.138016325919E+04   -0.10518E+04   -0.10086E+04  2536   0.140E+02    0.116E+02
DAV:   6    -0.128750682663E+04    0.92656E+02   -0.15293E+03  2440   0.666E+01    0.501E+01
DAV:   7    -0.131024357178E+04   -0.22737E+02   -0.42934E+02  2544   0.349E+01    0.271E+01
DAV:   8    -0.131435602734E+04   -0.41125E+01   -0.25612E+02  2520   0.283E+01    0.239E+01
DAV:   9    -0.131063943874E+04    0.37166E+01   -0.41409E+01  2536   0.140E+01    0.797E+00
DAV:  10    -0.131122843741E+04   -0.58900E+00   -0.14059E+01  2624   0.736E+00    0.672E+00
DAV:  11    -0.131152259995E+04   -0.29416E+00   -0.53416E+00  2624   0.410E+00    0.415E+00
DAV:  12    -0.131149711168E+04    0.25488E-01   -0.18278E+00  2592   0.321E+00    0.282E+00
DAV:  13    -0.131148444365E+04    0.12668E-01   -0.69935E-01  2560   0.162E+00    0.142E+00
DAV:  14    -0.131149089709E+04   -0.64534E-02   -0.24788E-01  2616   0.944E-01    0.125E+00
DAV:  15    -0.131148569110E+04    0.52060E-02   -0.80971E-02  2584   0.596E-01    0.697E-01
DAV:  16    -0.131148652474E+04   -0.83364E-03   -0.36446E-02  2592   0.347E-01    0.369E-01
DAV:  17    -0.131148638889E+04    0.13584E-03   -0.13917E-02  2528   0.232E-01    0.187E-01
DAV:  18    -0.131148663647E+04   -0.24757E-03   -0.37619E-03  2528   0.112E-01    0.743E-02
DAV:  19    -0.131148673578E+04   -0.99311E-04   -0.16287E-03  2584   0.765E-02    0.651E-02
DAV:  20    -0.131148677844E+04   -0.42662E-04   -0.48126E-04  2576   0.388E-02    0.230E-02
DAV:  21    -0.131148678861E+04   -0.10170E-04   -0.22312E-04  2608   0.269E-02    0.229E-02
DAV:  22    -0.131148680253E+04   -0.13917E-04   -0.75157E-05  2456   0.157E-02    0.109E-02
DAV:  23    -0.131148680643E+04   -0.39042E-05   -0.23411E-05  1368   0.885E-03    0.637E-03
DAV:  24    -0.131148680721E+04   -0.77831E-06   -0.16232E-05  1576   0.772E-03    0.247E-03
DAV:  25    -0.131148680770E+04   -0.48531E-06   -0.42605E-06   992   0.517E-03
   1 F= -.13114868E+04 E0= -.13114592E+04  d E =-.131149E+04
 BRION: g(F)=  0.945E+02 g(S)=  0.000E+00
 bond charge predicted
       N       E                     dE             d eps       ncg     rms          rms(c)
DAV:   1    -0.124464549684E+04    0.66841E+02   -0.10328E+04  1712   0.148E+02    0.432E+01
DAV:   2    -0.133612335010E+04   -0.91478E+02   -0.10393E+03  2568   0.702E+01    0.199E+01
DAV:   3    -0.133145281562E+04    0.46705E+01   -0.59539E+01  2624   0.185E+01    0.128E+01
DAV:   4    -0.132830816299E+04    0.31447E+01   -0.28053E+01  2344   0.109E+01    0.597E+00
DAV:   5    -0.132835287805E+04   -0.44715E-01   -0.84235E+00  2544   0.597E+00    0.438E+00
DAV:   6    -0.132825261608E+04    0.10026E+00   -0.46954E+00  2600   0.359E+00    0.273E+00
DAV:   7    -0.132817697844E+04    0.75638E-01   -0.56969E-01  2520   0.213E+00    0.159E+00
DAV:   8    -0.132817965012E+04   -0.26717E-02   -0.93184E-01  2368   0.154E+00    0.101E+00
DAV:   9    -0.132818104755E+04   -0.13974E-02   -0.14332E-01  2520   0.763E-01    0.773E-01
DAV:  10    -0.132817531248E+04    0.57351E-02   -0.50392E-02  2624   0.405E-01    0.365E-01
DAV:  11    -0.132817577157E+04   -0.45909E-03   -0.35103E-02  2592   0.304E-01    0.204E-01
DAV:  12    -0.132817556281E+04    0.20876E-03   -0.56094E-03  2528   0.174E-01    0.106E-01
DAV:  13    -0.132817563878E+04   -0.75968E-04   -0.23803E-03  2600   0.835E-02    0.337E-02
DAV:  14    -0.132817567240E+04   -0.33617E-04   -0.36056E-04  2624   0.411E-02    0.212E-02
DAV:  15    -0.132817568293E+04   -0.10536E-04   -0.11886E-04  2624   0.196E-02    0.143E-02
DAV:  16    -0.132817568474E+04   -0.18099E-05   -0.38534E-05  2568   0.128E-02    0.907E-03
DAV:  17    -0.132817568563E+04   -0.88848E-06   -0.21332E-05  2208   0.835E-03    0.500E-03
DAV:  18    -0.132817568623E+04   -0.59998E-06   -0.34013E-06  1168   0.488E-03
   2 F= -.13281757E+04 E0= -.13281757E+04  d E =-.166889E+02
 BRION: g(F)=  0.242E+03 g(S)=  0.000E+00 retain N=  1 mean eig= 0.35
 eig:   0.348
 bond charge predicted
       N       E                     dE             d eps       ncg     rms          rms(c)
DAV:   1    -0.131282767205E+04    0.15348E+02   -0.37420E+03  1336   0.767E+01    0.254E+01
DAV:   2    -0.134902061925E+04   -0.36193E+02   -0.45157E+02  2496   0.393E+01    0.235E+01
DAV:   3    -0.134622221812E+04    0.27984E+01   -0.38744E+01  2544   0.131E+01    0.174E+01
DAV:   4    -0.134395287313E+04    0.22693E+01   -0.38141E+01  2096   0.832E+00    0.799E+00
DAV:   5    -0.134487852646E+04   -0.92565E+00   -0.11739E+01  2392   0.512E+00    0.934E+00
DAV:   6    -0.134341663619E+04    0.14619E+01   -0.15576E+01  2328   0.418E+00    0.210E+00
DAV:   7    -0.134345618557E+04   -0.39549E-01   -0.17259E+00  2464   0.283E+00    0.992E-01
DAV:   8    -0.134347420617E+04   -0.18021E-01   -0.39998E-01  2592   0.109E+00    0.659E-01
DAV:   9    -0.134347121810E+04    0.29881E-02   -0.44186E-02  2616   0.485E-01    0.411E-01
DAV:  10    -0.134347144609E+04   -0.22799E-03   -0.42213E-02  2392   0.336E-01    0.247E-01
DAV:  11    -0.134347204266E+04   -0.59656E-03   -0.10478E-02  2432   0.212E-01    0.265E-01
DAV:  12    -0.134347115421E+04    0.88845E-03   -0.49012E-03  2536   0.121E-01    0.140E-01
DAV:  13    -0.134347102287E+04    0.13134E-03   -0.43290E-03  2416   0.101E-01    0.574E-02
DAV:  14    -0.134347104488E+04   -0.22011E-04   -0.72130E-04  2352   0.550E-02    0.445E-02
DAV:  15    -0.134347103852E+04    0.63594E-05   -0.21489E-04  2536   0.253E-02    0.308E-02
DAV:  16    -0.134347102547E+04    0.13050E-04   -0.10609E-04  2472   0.175E-02    0.105E-02
DAV:  17    -0.134347102773E+04   -0.22546E-05   -0.24737E-05  2048   0.103E-02    0.639E-03
DAV:  18    -0.134347102735E+04    0.37646E-06   -0.68936E-06  1512   0.511E-03
   3 F= -.13434710E+04 E0= -.13434710E+04  d E =-.152953E+02
 BRION: g(F)=  0.190E+02 g(S)=  0.000E+00 retain N=  2 mean eig= 2.54
 eig:   0.222  4.854
 bond charge predicted
       N       E                     dE             d eps       ncg     rms          rms(c)
DAV:   1    -0.134373475607E+04   -0.26373E+00   -0.84231E+02  1416   0.383E+01    0.801E+00
DAV:   2    -0.134853217371E+04   -0.47974E+01   -0.55982E+01  2288   0.163E+01    0.410E+00
DAV:   3    -0.134856022677E+04   -0.28053E-01   -0.44138E+00  2576   0.448E+00    0.352E+00
DAV:   4    -0.134837234137E+04    0.18789E+00   -0.10442E+00  2472   0.201E+00    0.190E+00
DAV:   5    -0.134832514105E+04    0.47200E-01   -0.56525E-01  2224   0.144E+00    0.132E+00
DAV:   6    -0.134830901143E+04    0.16130E-01   -0.28069E-01  2504   0.106E+00    0.882E-01
DAV:   7    -0.134830659213E+04    0.24193E-02   -0.15894E-01  2464   0.664E-01    0.538E-01
DAV:   8    -0.134830462719E+04    0.19649E-02   -0.21280E-02  2608   0.306E-01    0.317E-01
DAV:   9    -0.134830416402E+04    0.46317E-03   -0.10362E-02  2608   0.179E-01    0.146E-01
DAV:  10    -0.134830424257E+04   -0.78549E-04   -0.25322E-03  2232   0.103E-01    0.110E-01
DAV:  11    -0.134830413858E+04    0.10399E-03   -0.12071E-03  2600   0.611E-02    0.472E-02
DAV:  12    -0.134830414098E+04   -0.23961E-05   -0.41074E-04  2592   0.382E-02    0.247E-02
DAV:  13    -0.134830414725E+04   -0.62718E-05   -0.90058E-05  2520   0.198E-02    0.152E-02
DAV:  14    -0.134830414884E+04   -0.15862E-05   -0.50968E-05  2360   0.125E-02    0.118E-02
DAV:  15    -0.134830414775E+04    0.10905E-05   -0.15260E-05  2008   0.828E-03    0.635E-03
DAV:  16    -0.134830414735E+04    0.39875E-06   -0.36746E-06  1184   0.553E-03
   4 F= -.13483041E+04 E0= -.13483041E+04  d E =-.483312E+01
 BRION: g(F)=  0.606E+01 g(S)=  0.000E+00 retain N=  2 mean eig= 0.36
 eig:   0.364  0.364
 bond charge predicted
       N       E                     dE             d eps       ncg     rms          rms(c)
DAV:   1    -0.134942141945E+04   -0.11173E+01   -0.30040E+02  1400   0.232E+01    0.406E+00
DAV:   2    -0.135091822927E+04   -0.14968E+01   -0.16283E+01  2288   0.876E+00    0.207E+00
DAV:   3    -0.135093078860E+04   -0.12559E-01   -0.10966E+00  2616   0.201E+00    0.170E+00
DAV:   4    -0.135087241219E+04    0.58376E-01   -0.35252E-01  2504   0.117E+00    0.794E-01
DAV:   5    -0.135086849855E+04    0.39136E-02   -0.11218E-01  2488   0.699E-01    0.613E-01
DAV:   6    -0.135086607942E+04    0.24191E-02   -0.87458E-02  2544   0.522E-01    0.278E-01
DAV:   7    -0.135086615353E+04   -0.74111E-04   -0.16699E-02  2480   0.261E-01    0.247E-01
DAV:   8    -0.135086575063E+04    0.40290E-03   -0.69177E-03  2360   0.140E-01    0.117E-01
DAV:   9    -0.135086571990E+04    0.30738E-04   -0.31510E-03  2536   0.934E-02    0.718E-02
DAV:  10    -0.135086573998E+04   -0.20088E-04   -0.78514E-04  2408   0.568E-02    0.645E-02
DAV:  11    -0.135086570496E+04    0.35021E-04   -0.43130E-04  2528   0.380E-02    0.290E-02
DAV:  12    -0.135086570823E+04   -0.32621E-05   -0.20733E-04  2472   0.249E-02    0.150E-02
DAV:  13    -0.135086570997E+04   -0.17438E-05   -0.32091E-05  2344   0.124E-02    0.965E-03
DAV:  14    -0.135086570977E+04    0.19430E-06   -0.12392E-05  1912   0.670E-03    0.558E-03
DAV:  15    -0.135086570961E+04    0.16874E-06   -0.54728E-06  1384   0.545E-03
   5 F= -.13508657E+04 E0= -.13508657E+04  d E =-.256156E+01
 BRION: g(F)=  0.339E+01 g(S)=  0.000E+00 retain N=  3 mean eig= 0.29
 eig:   0.284  0.294  0.294
 bond charge predicted
       N       E                     dE             d eps       ncg     rms          rms(c)
DAV:   1    -0.135180457307E+04   -0.93886E+00   -0.20164E+02  1336   0.196E+01    0.290E+00
DAV:   2    -0.135277524650E+04   -0.97067E+00   -0.10531E+01  2288   0.729E+00    0.155E+00
DAV:   3    -0.135280877052E+04   -0.33524E-01   -0.77252E-01  2592   0.163E+00    0.137E+00
DAV:   4    -0.135278484549E+04    0.23925E-01   -0.12652E-01  2568   0.748E-01    0.853E-01
DAV:   5    -0.135277184329E+04    0.13002E-01   -0.96555E-02  2208   0.572E-01    0.424E-01
DAV:   6    -0.135277358966E+04   -0.17464E-02   -0.41637E-02  2472   0.389E-01    0.449E-01
DAV:   7    -0.135277128770E+04    0.23020E-02   -0.28097E-02  2464   0.294E-01    0.220E-01
DAV:   8    -0.135277119985E+04    0.87856E-04   -0.66386E-03  2520   0.156E-01    0.114E-01
DAV:   9    -0.135277117817E+04    0.21678E-04   -0.10286E-03  2584   0.673E-02    0.731E-02
DAV:  10    -0.135277121055E+04   -0.32385E-04   -0.69319E-04  2320   0.422E-02    0.492E-02
DAV:  11    -0.135277116886E+04    0.41695E-04   -0.18049E-04  2536   0.319E-02    0.202E-02
DAV:  12    -0.135277118115E+04   -0.12293E-04   -0.24494E-04  2480   0.251E-02    0.206E-02
DAV:  13    -0.135277117476E+04    0.63868E-05   -0.43056E-05  2312   0.133E-02    0.839E-03
DAV:  14    -0.135277117514E+04   -0.37211E-06   -0.13199E-05  1912   0.708E-03    0.299E-03
DAV:  15    -0.135277117519E+04   -0.53435E-07   -0.10033E-06  1008   0.358E-03
   6 F= -.13527712E+04 E0= -.13527712E+04  d E =-.190547E+01
 BRION: g(F)=  0.271E+01 g(S)=  0.000E+00 retain N=  4 mean eig= 0.45
 eig:   0.414  0.414  0.417  0.564
 bond charge predicted
       N       E                     dE             d eps       ncg     rms          rms(c)
DAV:   1    -0.135330920555E+04   -0.53803E+00   -0.33146E+02  1352   0.248E+01    0.335E+00
DAV:   2    -0.135506673085E+04   -0.17575E+01   -0.18356E+01  2320   0.934E+00    0.191E+00
DAV:   3    -0.135510875259E+04   -0.42022E-01   -0.11586E+00  2600   0.194E+00    0.168E+00
DAV:   4    -0.135507250103E+04    0.36252E-01   -0.18521E-01  2584   0.861E-01    0.108E+00
DAV:   5    -0.135503939686E+04    0.33104E-01   -0.12203E-01  2224   0.664E-01    0.414E-01
DAV:   6    -0.135504592879E+04   -0.65319E-02   -0.90936E-02  2384   0.501E-01    0.562E-01
DAV:   7    -0.135504253553E+04    0.33933E-02   -0.21916E-02  2544   0.280E-01    0.369E-01
DAV:   8    -0.135504113870E+04    0.13968E-02   -0.12158E-02  2536   0.181E-01    0.139E-01
DAV:   9    -0.135504111668E+04    0.22027E-04   -0.16326E-03  2424   0.802E-02    0.849E-02
DAV:  10    -0.135504112797E+04   -0.11291E-04   -0.92194E-04  2320   0.477E-02    0.379E-02
DAV:  11    -0.135504113181E+04   -0.38433E-05   -0.18216E-04  2496   0.309E-02    0.317E-02
DAV:  12    -0.135504112203E+04    0.97811E-05   -0.12834E-04  2424   0.190E-02    0.187E-02
DAV:  13    -0.135504111949E+04    0.25409E-05   -0.43202E-05  2312   0.117E-02    0.792E-03
DAV:  14    -0.135504111994E+04   -0.45011E-06   -0.88027E-06  1672   0.619E-03
   7 F= -.13550411E+04 E0= -.13550411E+04  d E =-.226994E+01
 BRION: g(F)=  0.147E+01 g(S)=  0.000E+00 retain N=  5 mean eig= 0.86
 eig:   1.433  1.433  0.513  0.513  0.414
 bond charge predicted
       N       E                     dE             d eps       ncg     rms          rms(c)
DAV:   1    -0.135542976655E+04   -0.38865E+00   -0.15966E+02  1376   0.172E+01    0.242E+00
DAV:   2    -0.135623796269E+04   -0.80820E+00   -0.84509E+00  2296   0.644E+00    0.130E+00
DAV:   3    -0.135625917833E+04   -0.21216E-01   -0.55348E-01  2616   0.126E+00    0.105E+00
DAV:   4    -0.135623585797E+04    0.23320E-01   -0.11863E-01  2520   0.696E-01    0.521E-01
DAV:   5    -0.135623194470E+04    0.39133E-02   -0.40440E-02  2488   0.400E-01    0.299E-01
DAV:   6    -0.135623208170E+04   -0.13700E-03   -0.17109E-02  2560   0.238E-01    0.162E-01
DAV:   7    -0.135623183476E+04    0.24695E-03   -0.53730E-03  2240   0.146E-01    0.107E-01
DAV:   8    -0.135623193919E+04   -0.10443E-03   -0.24056E-03  2336   0.786E-02    0.701E-02
DAV:   9    -0.135623188807E+04    0.51114E-04   -0.45134E-04  2576   0.449E-02    0.404E-02
DAV:  10    -0.135623189492E+04   -0.68515E-05   -0.41879E-04  2512   0.354E-02    0.272E-02
DAV:  11    -0.135623189021E+04    0.47110E-05   -0.12870E-04  2440   0.231E-02    0.986E-03
DAV:  12    -0.135623189219E+04   -0.19784E-05   -0.30733E-05  2144   0.126E-02    0.672E-03
DAV:  13    -0.135623189240E+04   -0.20514E-06   -0.90035E-06  1640   0.629E-03
   8 F= -.13562319E+04 E0= -.13562319E+04  d E =-.119077E+01
 BRION: g(F)=  0.632E+00 g(S)=  0.000E+00 retain N=  6 mean eig= 1.11
 eig:   2.651  2.651  0.007  0.092  0.635  0.635
 bond charge predicted
       N       E                     dE             d eps       ncg     rms          rms(c)
DAV:   1    -0.135656687638E+04   -0.33498E+00   -0.77000E+01  1360   0.124E+01    0.163E+00
DAV:   2    -0.135693125930E+04   -0.36438E+00   -0.38499E+00  2288   0.462E+00    0.836E-01
DAV:   3    -0.135694608967E+04   -0.14830E-01   -0.27445E-01  2616   0.912E-01    0.664E-01
DAV:   4    -0.135693763281E+04    0.84569E-02   -0.41373E-02  2512   0.436E-01    0.356E-01
DAV:   5    -0.135693568328E+04    0.19495E-02   -0.18672E-02  2440   0.278E-01    0.181E-01
DAV:   6    -0.135693594140E+04   -0.25812E-03   -0.76865E-03  2584   0.168E-01    0.123E-01
DAV:   7    -0.135693587215E+04    0.69254E-04   -0.21943E-03  2512   0.924E-02    0.761E-02
DAV:   8    -0.135693587497E+04   -0.28268E-05   -0.76197E-04  2576   0.516E-02    0.415E-02
DAV:   9    -0.135693586370E+04    0.11271E-04   -0.17285E-04  2600   0.291E-02    0.251E-02
DAV:  10    -0.135693586990E+04   -0.61955E-05   -0.11868E-04  2328   0.196E-02    0.174E-02
DAV:  11    -0.135693586746E+04    0.24410E-05   -0.38845E-05  2400   0.134E-02    0.734E-03
DAV:  12    -0.135693586792E+04   -0.46348E-06   -0.14987E-05  1856   0.808E-03    0.634E-03
DAV:  13    -0.135693586743E+04    0.49514E-06   -0.29291E-06  1088   0.571E-03
   9 F= -.13569359E+04 E0= -.13569359E+04  d E =-.703975E+00
 BRION: g(F)=  0.569E+00 g(S)=  0.000E+00 retain N=  7 mean eig= 1.48
 eig:   4.002  2.127  2.127  0.704  0.704  0.237  0.489
 bond charge predicted
       N       E                     dE             d eps       ncg     rms          rms(c)
DAV:   1    -0.135725879082E+04   -0.32292E+00   -0.85380E+01  1376   0.131E+01    0.160E+00
DAV:   2    -0.135767435636E+04   -0.41557E+00   -0.43730E+00  2288   0.501E+00    0.801E-01
DAV:   3    -0.135769420551E+04   -0.19849E-01   -0.32140E-01  2624   0.973E-01    0.632E-01
DAV:   4    -0.135768681143E+04    0.73941E-02   -0.34945E-02  2568   0.425E-01    0.391E-01
DAV:   5    -0.135768333178E+04    0.34797E-02   -0.17923E-02  2328   0.267E-01    0.144E-01
DAV:   6    -0.135768392153E+04   -0.58975E-03   -0.79244E-03  2560   0.166E-01    0.125E-01
DAV:   7    -0.135768386368E+04    0.57848E-04   -0.24022E-03  2584   0.961E-02    0.826E-02
DAV:   8    -0.135768384495E+04    0.18739E-04   -0.10371E-03  2600   0.605E-02    0.439E-02
DAV:   9    -0.135768383845E+04    0.64932E-05   -0.16817E-04  2528   0.301E-02    0.311E-02
DAV:  10    -0.135768384163E+04   -0.31795E-05   -0.14453E-04  2520   0.219E-02    0.161E-02
DAV:  11    -0.135768384052E+04    0.11101E-05   -0.34800E-05  2376   0.136E-02    0.691E-03
DAV:  12    -0.135768384196E+04   -0.14342E-05   -0.16766E-05  1992   0.799E-03    0.669E-03
DAV:  13    -0.135768384119E+04    0.76070E-06   -0.12670E-06   992   0.504E-03
  10 F= -.13576838E+04 E0= -.13576838E+04  d E =-.747974E+00
 BRION: g(F)=  0.393E+00 g(S)=  0.000E+00 retain N=  8 mean eig= 1.73
 eig:   3.345  3.345  2.432  2.432  0.638  0.638  0.351  0.689
 bond charge predicted
       N       E                     dE             d eps       ncg     rms          rms(c)
DAV:   1    -0.135786776408E+04   -0.18392E+00   -0.10870E+02  1376   0.149E+01    0.179E+00
DAV:   2    -0.135841055972E+04   -0.54280E+00   -0.57353E+00  2288   0.577E+00    0.924E-01
DAV:   3    -0.135843755298E+04   -0.26993E-01   -0.42947E-01  2592   0.113E+00    0.735E-01
DAV:   4    -0.135842870409E+04    0.88489E-02   -0.47772E-02  2576   0.496E-01    0.473E-01
DAV:   5    -0.135842379525E+04    0.49088E-02   -0.24904E-02  2320   0.305E-01    0.184E-01
DAV:   6    -0.135842447560E+04   -0.68034E-03   -0.10982E-02  2536   0.198E-01    0.153E-01
DAV:   7    -0.135842436690E+04    0.10869E-03   -0.46324E-03  2520   0.131E-01    0.967E-02
DAV:   8    -0.135842438343E+04   -0.16525E-04   -0.18245E-03  2600   0.810E-02    0.608E-02
DAV:   9    -0.135842436077E+04    0.22659E-04   -0.30845E-04  2568   0.391E-02    0.419E-02
DAV:  10    -0.135842436256E+04   -0.17918E-05   -0.21895E-04  2552   0.258E-02    0.190E-02
DAV:  11    -0.135842436391E+04   -0.13447E-05   -0.61669E-05  2480   0.173E-02    0.792E-03
DAV:  12    -0.135842436531E+04   -0.14023E-05   -0.20452E-05  2240   0.101E-02    0.811E-03
DAV:  13    -0.135842436447E+04    0.83806E-06   -0.39014E-06  1216   0.554E-03
  11 F= -.13584244E+04 E0= -.13584244E+04  d E =-.740523E+00
 BRION: g(F)=  0.323E+00 g(S)=  0.000E+00 retain N=  9 mean eig= 2.34
 eig:   4.552  4.552  4.246  4.246  0.742  0.742  0.823  0.823  0.370
 bond charge predicted
       N       E                     dE             d eps       ncg     rms          rms(c)
DAV:   1    -0.135861484823E+04   -0.19048E+00   -0.66386E+01  1376   0.116E+01    0.138E+00
DAV:   2    -0.135894928338E+04   -0.33444E+00   -0.35438E+00  2288   0.453E+00    0.720E-01
DAV:   3    -0.135896566551E+04   -0.16382E-01   -0.26922E-01  2584   0.896E-01    0.574E-01
DAV:   4    -0.135895990578E+04    0.57597E-02   -0.30019E-02  2544   0.394E-01    0.374E-01
DAV:   5    -0.135895636909E+04    0.35367E-02   -0.15220E-02  2344   0.242E-01    0.146E-01
DAV:   6    -0.135895672342E+04   -0.35433E-03   -0.77749E-03  2448   0.166E-01    0.117E-01
DAV:   7    -0.135895669924E+04    0.24179E-04   -0.30591E-03  2456   0.105E-01    0.817E-02
DAV:   8    -0.135895670179E+04   -0.25477E-05   -0.12663E-03  2600   0.653E-02    0.485E-02
DAV:   9    -0.135895668867E+04    0.13127E-04   -0.22544E-04  2536   0.328E-02    0.347E-02
DAV:  10    -0.135895668896E+04   -0.29340E-06   -0.16594E-04  2520   0.229E-02    0.188E-02
DAV:  11    -0.135895668843E+04    0.52691E-06   -0.57282E-05  2416   0.164E-02    0.748E-03
DAV:  12    -0.135895668974E+04   -0.13043E-05   -0.19436E-05  2144   0.981E-03    0.799E-03
DAV:  13    -0.135895668898E+04    0.75444E-06   -0.58513E-06  1456   0.574E-03
  12 F= -.13589567E+04 E0= -.13589567E+04  d E =-.532325E+00
 BRION: g(F)=  0.241E+00 g(S)=  0.000E+00 retain N= 10 mean eig= 2.59
 eig:   5.138  5.138  4.796  4.796  2.027  2.027  0.587  0.587  0.332  0.514
 bond charge predicted
       N       E                     dE             d eps       ncg     rms          rms(c)
DAV:   1    -0.135914296892E+04   -0.18628E+00   -0.34527E+01  1376   0.838E+00    0.103E+00
DAV:   2    -0.135931658829E+04   -0.17362E+00   -0.18363E+00  2288   0.325E+00    0.518E-01
DAV:   3    -0.135932521706E+04   -0.86288E-02   -0.13956E-01  2608   0.653E-01    0.419E-01
DAV:   4    -0.135932216945E+04    0.30476E-02   -0.16504E-02  2600   0.293E-01    0.264E-01
DAV:   5    -0.135932046673E+04    0.17027E-02   -0.73224E-03  2384   0.175E-01    0.106E-01
DAV:   6    -0.135932063993E+04   -0.17321E-03   -0.39418E-03  2464   0.119E-01    0.821E-02
DAV:   7    -0.135932062257E+04    0.17367E-04   -0.15237E-03  2432   0.762E-02    0.589E-02
DAV:   8    -0.135932062830E+04   -0.57273E-05   -0.69257E-04  2576   0.471E-02    0.346E-02
DAV:   9    -0.135932062095E+04    0.73466E-05   -0.11445E-04  2528   0.241E-02    0.252E-02
DAV:  10    -0.135932062112E+04   -0.16912E-06   -0.94406E-05  2464   0.170E-02    0.144E-02
DAV:  11    -0.135932062050E+04    0.62207E-06   -0.30701E-05  2272   0.123E-02    0.619E-03
DAV:  12    -0.135932062111E+04   -0.61109E-06   -0.11515E-05  1776   0.768E-03    0.636E-03
DAV:  13    -0.135932062041E+04    0.69212E-06   -0.17562E-06   992   0.502E-03
  13 F= -.13593206E+04 E0= -.13593206E+04  d E =-.363931E+00
 BRION: g(F)=  0.202E+00 g(S)=  0.000E+00 retain N= 11 mean eig= 3.03
 eig:   7.279  7.279  4.510  4.510  3.423  3.423  0.624  0.624  0.645  0.645
 bond charge predicted
       N       E                     dE             d eps       ncg     rms          rms(c)
DAV:   1    -0.135937874323E+04   -0.58122E-01   -0.98295E+01  1376   0.141E+01    0.162E+00
DAV:   2    -0.135987897363E+04   -0.50023E+00   -0.52824E+00  2280   0.550E+00    0.832E-01
DAV:   3    -0.135990741790E+04   -0.28444E-01   -0.41625E-01  2608   0.110E+00    0.685E-01
DAV:   4    -0.135990155369E+04    0.58642E-02   -0.40087E-02  2600   0.472E-01    0.488E-01
DAV:   5    -0.135989526068E+04    0.62930E-02   -0.17658E-02  2360   0.271E-01    0.221E-01
DAV:   6    -0.135989501935E+04    0.24132E-03   -0.14872E-02  2232   0.230E-01    0.131E-01
DAV:   7    -0.135989525740E+04   -0.23804E-03   -0.72230E-03  2424   0.155E-01    0.125E-01
DAV:   8    -0.135989517959E+04    0.77803E-04   -0.20208E-03  2576   0.889E-02    0.804E-02
DAV:   9    -0.135989512301E+04    0.56582E-04   -0.77571E-04  2536   0.518E-02    0.425E-02
DAV:  10    -0.135989513707E+04   -0.14061E-04   -0.23276E-04  2552   0.302E-02    0.279E-02
DAV:  11    -0.135989514078E+04   -0.37079E-05   -0.62293E-05  2448   0.172E-02    0.201E-02
DAV:  12    -0.135989513718E+04    0.35971E-05   -0.71293E-05  2240   0.167E-02    0.158E-02
DAV:  13    -0.135989513562E+04    0.15611E-05   -0.34889E-05  2264   0.115E-02    0.101E-02
DAV:  14    -0.135989513509E+04    0.53436E-06   -0.14510E-05  1864   0.690E-03    0.369E-03
DAV:  15    -0.135989513498E+04    0.11224E-06   -0.95558E-07   936   0.400E-03
  14 F= -.13598951E+04 E0= -.13598951E+04  d E =-.574515E+00
 BRION: g(F)=  0.160E+00 g(S)=  0.000E+00 retain N=  7 mean eig= 3.82
 eig:   7.995  7.995  3.716  3.716  0.553  1.399  1.399
 bond charge predicted
       N       E                     dE             d eps       ncg     rms          rms(c)
DAV:   1    -0.135997823758E+04   -0.83102E-01   -0.61616E+01  1376   0.112E+01    0.129E+00
DAV:   2    -0.136029336423E+04   -0.31513E+00   -0.33417E+00  2288   0.439E+00    0.673E-01
DAV:   3    -0.136031189547E+04   -0.18531E-01   -0.26833E-01  2600   0.880E-01    0.555E-01
DAV:   4    -0.136030820373E+04    0.36917E-02   -0.26771E-02  2608   0.386E-01    0.389E-01
DAV:   5    -0.136030467848E+04    0.35252E-02   -0.11385E-02  2400   0.216E-01    0.178E-01
DAV:   6    -0.136030452621E+04    0.15227E-03   -0.85168E-03  2240   0.181E-01    0.107E-01
DAV:   7    -0.136030467734E+04   -0.15113E-03   -0.46651E-03  2424   0.124E-01    0.104E-01
DAV:   8    -0.136030462763E+04    0.49712E-04   -0.13516E-03  2576   0.723E-02    0.696E-02
DAV:   9    -0.136030458508E+04    0.42544E-04   -0.51282E-04  2552   0.416E-02    0.362E-02
DAV:  10    -0.136030459276E+04   -0.76751E-05   -0.14678E-04  2536   0.241E-02    0.226E-02
DAV:  11    -0.136030459584E+04   -0.30821E-05   -0.34604E-05  2312   0.129E-02    0.166E-02
DAV:  12    -0.136030459256E+04    0.32824E-05   -0.44108E-05  2048   0.134E-02    0.116E-02
DAV:  13    -0.136030459234E+04    0.21546E-06   -0.22917E-05  2136   0.947E-03    0.827E-03
DAV:  14    -0.136030459173E+04    0.61445E-06   -0.87011E-06  1584   0.590E-03
  15 F= -.13603046E+04 E0= -.13603046E+04  d E =-.409457E+00
 BRION: g(F)=  0.134E+00 g(S)=  0.000E+00 retain N=  5 mean eig= 4.40
 eig:   7.931  7.931  2.396  2.396  1.370
 bond charge predicted
       N       E                     dE             d eps       ncg     rms          rms(c)
DAV:   1    -0.136040677560E+04   -0.10218E+00   -0.21837E+01  1376   0.667E+00    0.772E-01
DAV:   2    -0.136051704701E+04   -0.11027E+00   -0.11634E+00  2296   0.260E+00    0.388E-01
DAV:   3    -0.136052369890E+04   -0.66519E-02   -0.92315E-02  2608   0.501E-01    0.319E-01
DAV:   4    -0.136052243867E+04    0.12602E-02   -0.82188E-03  2608   0.220E-01    0.228E-01
DAV:   5    -0.136052108418E+04    0.13545E-02   -0.44586E-03  2288   0.137E-01    0.906E-02
DAV:   6    -0.136052119818E+04   -0.11400E-03   -0.33415E-03  2376   0.107E-01    0.762E-02
DAV:   7    -0.136052118353E+04    0.14655E-04   -0.12863E-03  2424   0.675E-02    0.548E-02
DAV:   8    -0.136052117398E+04    0.95468E-05   -0.51910E-04  2544   0.424E-02    0.294E-02
DAV:   9    -0.136052116726E+04    0.67186E-05   -0.99738E-05  2360   0.216E-02    0.206E-02
DAV:  10    -0.136052116719E+04    0.70417E-07   -0.43301E-05  2424   0.122E-02    0.106E-02
DAV:  11    -0.136052116755E+04   -0.36090E-06   -0.10381E-05  1800   0.804E-03    0.607E-03
DAV:  12    -0.136052116796E+04   -0.40489E-06   -0.92327E-06  1592   0.639E-03
  16 F= -.13605212E+04 E0= -.13605212E+04  d E =-.216576E+00
 BRION: g(F)=  0.117E+00 g(S)=  0.000E+00 retain N=  4 mean eig= 3.84
 eig:   6.383  6.383  1.292  1.292
 bond charge predicted
       N       E                     dE             d eps       ncg     rms          rms(c)
DAV:   1    -0.136063467950E+04   -0.11351E+00   -0.25307E+01  1376   0.717E+00    0.824E-01
DAV:   2    -0.136076552296E+04   -0.13084E+00   -0.13843E+00  2304   0.279E+00    0.422E-01
DAV:   3    -0.136077327397E+04   -0.77510E-02   -0.10930E-01  2576   0.556E-01    0.345E-01
DAV:   4    -0.136077180576E+04    0.14682E-02   -0.10918E-02  2584   0.247E-01    0.242E-01
DAV:   5    -0.136077045146E+04    0.13543E-02   -0.49108E-03  2392   0.141E-01    0.106E-01
DAV:   6    -0.136077047238E+04   -0.20923E-04   -0.34101E-03  2312   0.112E-01    0.723E-02
DAV:   7    -0.136077049698E+04   -0.24597E-04   -0.16736E-03  2448   0.769E-02    0.606E-02
DAV:   8    -0.136077048529E+04    0.11689E-04   -0.57325E-04  2568   0.451E-02    0.382E-02
DAV:   9    -0.136077047351E+04    0.11776E-04   -0.16513E-04  2520   0.250E-02    0.228E-02
DAV:  10    -0.136077047524E+04   -0.17234E-05   -0.58485E-05  2560   0.148E-02    0.145E-02
DAV:  11    -0.136077047569E+04   -0.45329E-06   -0.17270E-05  2104   0.930E-03    0.970E-03
DAV:  12    -0.136077047503E+04    0.65540E-06   -0.14391E-05  1816   0.809E-03    0.778E-03
DAV:  13    -0.136077047461E+04    0.42802E-06   -0.84587E-06  1712   0.612E-03
  17 F= -.13607705E+04 E0= -.13607705E+04  d E =-.249307E+00
 BRION: g(F)=  0.107E+00 g(S)=  0.000E+00 retain N=  3 mean eig= 3.52
 eig:   4.625  4.625  1.322
 bond charge predicted
       N       E                     dE             d eps       ncg     rms          rms(c)
DAV:   1    -0.136085607143E+04   -0.85596E-01   -0.30916E+01  1376   0.793E+00    0.904E-01
DAV:   2    -0.136101519057E+04   -0.15912E+00   -0.16820E+00  2304   0.309E+00    0.463E-01
DAV:   3    -0.136102510624E+04   -0.99157E-02   -0.13649E-01  2592   0.609E-01    0.383E-01
DAV:   4    -0.136102352827E+04    0.15780E-02   -0.12697E-02  2616   0.270E-01    0.277E-01
DAV:   5    -0.136102173268E+04    0.17956E-02   -0.54834E-03  2384   0.152E-01    0.129E-01
DAV:   6    -0.136102163676E+04    0.95915E-04   -0.45918E-03  2232   0.130E-01    0.782E-02
DAV:   7    -0.136102171271E+04   -0.75945E-04   -0.24846E-03  2448   0.897E-02    0.741E-02
DAV:   8    -0.136102168478E+04    0.27934E-04   -0.65569E-04  2560   0.514E-02    0.496E-02
DAV:   9    -0.136102165964E+04    0.25135E-04   -0.27179E-04  2488   0.303E-02    0.250E-02
DAV:  10    -0.136102166451E+04   -0.48693E-05   -0.87312E-05  2512   0.181E-02    0.163E-02
DAV:  11    -0.136102166597E+04   -0.14584E-05   -0.24843E-05  2152   0.107E-02    0.127E-02
DAV:  12    -0.136102166427E+04    0.17000E-05   -0.25718E-05  2072   0.105E-02    0.101E-02
DAV:  13    -0.136102166361E+04    0.66029E-06   -0.12971E-05  1824   0.736E-03    0.674E-03
DAV:  14    -0.136102166312E+04    0.48567E-06   -0.45878E-06  1328   0.490E-03
  18 F= -.13610217E+04 E0= -.13610217E+04  d E =-.251189E+00
 BRION: g(F)=  0.951E-01 g(S)=  0.000E+00 retain N=  3 mean eig= 3.34
 eig:   4.381  4.381  1.243
 bond charge predicted
       N       E                     dE             d eps       ncg     rms          rms(c)
DAV:   1    -0.136110792797E+04   -0.86264E-01   -0.23081E+01  1376   0.681E+00    0.783E-01
DAV:   2    -0.136122640899E+04   -0.11848E+00   -0.12476E+00  2320   0.265E+00    0.394E-01
DAV:   3    -0.136123326771E+04   -0.68587E-02   -0.96608E-02  2600   0.523E-01    0.319E-01
DAV:   4    -0.136123192585E+04    0.13419E-02   -0.92709E-03  2608   0.229E-01    0.223E-01
DAV:   5    -0.136123066905E+04    0.12568E-02   -0.41025E-03  2392   0.132E-01    0.968E-02
DAV:   6    -0.136123069377E+04   -0.24729E-04   -0.30239E-03  2336   0.103E-01    0.641E-02
DAV:   7    -0.136123071648E+04   -0.22704E-04   -0.13810E-03  2440   0.691E-02    0.537E-02
DAV:   8    -0.136123070795E+04    0.85231E-05   -0.44797E-04  2552   0.406E-02    0.334E-02
DAV:   9    -0.136123069838E+04    0.95742E-05   -0.13557E-04  2512   0.226E-02    0.200E-02
DAV:  10    -0.136123070006E+04   -0.16766E-05   -0.49781E-05  2536   0.135E-02    0.127E-02
DAV:  11    -0.136123070006E+04   -0.14115E-08   -0.14781E-05  1944   0.863E-03    0.807E-03
DAV:  12    -0.136123069987E+04    0.18848E-06   -0.13126E-05  1712   0.758E-03    0.683E-03
DAV:  13    -0.136123069947E+04    0.39637E-06   -0.54391E-06  1472   0.567E-03
  19 F= -.13612307E+04 E0= -.13612307E+04  d E =-.209036E+00
 BRION: g(F)=  0.842E-01 g(S)=  0.000E+00 retain N=  3 mean eig= 4.37
 eig:   5.818  5.818  1.468
 bond charge predicted
       N       E                     dE             d eps       ncg     rms          rms(c)
DAV:   1    -0.136130905571E+04   -0.78356E-01   -0.22012E+01  1376   0.662E+00    0.749E-01
DAV:   2    -0.136142187400E+04   -0.11282E+00   -0.11900E+00  2312   0.257E+00    0.383E-01
DAV:   3    -0.136142874815E+04   -0.68742E-02   -0.94759E-02  2600   0.497E-01    0.316E-01
DAV:   4    -0.136142764052E+04    0.11076E-02   -0.83760E-03  2616   0.220E-01    0.231E-01
DAV:   5    -0.136142625628E+04    0.13842E-02   -0.39488E-03  2360   0.128E-01    0.104E-01
DAV:   6    -0.136142621816E+04    0.38121E-04   -0.34226E-03  2264   0.108E-01    0.679E-02
DAV:   7    -0.136142624861E+04   -0.30448E-04   -0.16424E-03  2480   0.732E-02    0.583E-02
DAV:   8    -0.136142623261E+04    0.15998E-04   -0.47372E-04  2520   0.434E-02    0.367E-02
DAV:   9    -0.136142621951E+04    0.13102E-04   -0.17556E-04  2496   0.243E-02    0.200E-02
DAV:  10    -0.136142622245E+04   -0.29455E-05   -0.52366E-05  2536   0.141E-02    0.138E-02
DAV:  11    -0.136142622259E+04   -0.13280E-06   -0.16416E-05  1952   0.886E-03    0.102E-02
DAV:  12    -0.136142622185E+04    0.73129E-06   -0.16987E-05  1800   0.855E-03    0.846E-03
DAV:  13    -0.136142622138E+04    0.47751E-06   -0.87483E-06  1688   0.635E-03
  20 F= -.13614262E+04 E0= -.13614262E+04  d E =-.195522E+00
 BRION: g(F)=  0.763E-01 g(S)=  0.000E+00 retain N=  3 mean eig= 4.83
 eig:   6.479  6.479  1.533
