 running on  160 total cores
 distrk:  each k-point on  160 cores,    1 groups
 distr:  one band on   20 cores,    8 groups
 using from now: INCAR     
 vasp.5.4.4.18Apr17-6-g9f103f2a35 (build May 01 2020 14:22:42) gamma-only       
  
 POSCAR found type information on POSCAR  O  La Zr Li Al
 POSCAR found :  5 types and     186 ions
 scaLAPACK will be used
 LDA part: xc-table for Pade appr. of Perdew
 POSCAR, INCAR and KPOINTS ok, starting setup
 FFT: planning ...
 WAVECAR not read
 WARNING: random wavefunctions but no delay for mixing, default for NELMDL
 entering main loop
       N       E                     dE             d eps       ncg     rms          rms(c)
DAV:   1     0.252692025703E+05    0.25269E+05   -0.42023E+05  1592   0.253E+03
DAV:   2     0.940175970633E+04   -0.15867E+05   -0.14681E+05  1424   0.703E+02
DAV:   3     0.269394034141E+04   -0.67078E+04   -0.60996E+04  1488   0.355E+02
DAV:   4    -0.338302837515E+03   -0.30322E+04   -0.28329E+04  2056   0.223E+02
DAV:   5    -0.138187567990E+04   -0.10436E+04   -0.10000E+04  2536   0.141E+02    0.116E+02
DAV:   6    -0.127914392858E+04    0.10273E+03   -0.14815E+03  2472   0.670E+01    0.501E+01
DAV:   7    -0.130287830883E+04   -0.23734E+02   -0.42293E+02  2552   0.349E+01    0.285E+01
DAV:   8    -0.130444736023E+04   -0.15691E+01   -0.19834E+02  2544   0.265E+01    0.208E+01
DAV:   9    -0.130571576072E+04   -0.12684E+01   -0.33009E+01  2560   0.130E+01    0.124E+01
DAV:  10    -0.130371088085E+04    0.20049E+01   -0.17128E+01  2568   0.722E+00    0.670E+00
DAV:  11    -0.130385049237E+04   -0.13961E+00   -0.58140E+00  2616   0.453E+00    0.498E+00
DAV:  12    -0.130390360720E+04   -0.53115E-01   -0.21746E+00  2616   0.277E+00    0.388E+00
DAV:  13    -0.130388189287E+04    0.21714E-01   -0.85470E-01  2504   0.210E+00    0.172E+00
DAV:  14    -0.130384538491E+04    0.36508E-01   -0.42182E-01  2544   0.141E+00    0.118E+00
DAV:  15    -0.130384363738E+04    0.17475E-02   -0.13281E-01  2528   0.785E-01    0.648E-01
DAV:  16    -0.130384346962E+04    0.16775E-03   -0.63296E-02  2472   0.445E-01    0.427E-01
DAV:  17    -0.130384243596E+04    0.10337E-02   -0.16487E-02  2448   0.312E-01    0.167E-01
DAV:  18    -0.130384272867E+04   -0.29272E-03   -0.50249E-03  2504   0.134E-01    0.110E-01
DAV:  19    -0.130384277976E+04   -0.51082E-04   -0.16125E-03  2576   0.899E-02    0.900E-02
DAV:  20    -0.130384273731E+04    0.42442E-04   -0.95259E-04  2616   0.537E-02    0.446E-02
DAV:  21    -0.130384274451E+04   -0.71923E-05   -0.29485E-04  2568   0.388E-02    0.218E-02
DAV:  22    -0.130384274820E+04   -0.36887E-05   -0.92669E-05  2600   0.167E-02    0.136E-02
DAV:  23    -0.130384274949E+04   -0.12926E-05   -0.24478E-05  2312   0.112E-02    0.765E-03
DAV:  24    -0.130384275296E+04   -0.34756E-05   -0.12658E-05  1800   0.747E-03    0.498E-03
DAV:  25    -0.130384275235E+04    0.61133E-06   -0.37234E-06  1200   0.602E-03
   1 F= -.13038428E+04 E0= -.13037996E+04  d E =-.130384E+04
 BRION: g(F)=  0.105E+03 g(S)=  0.000E+00
 bond charge predicted
       N       E                     dE             d eps       ncg     rms          rms(c)
DAV:   1    -0.121288447392E+04    0.90958E+02   -0.13409E+04  1736   0.176E+02    0.447E+01
DAV:   2    -0.133284858999E+04   -0.11996E+03   -0.13683E+03  2592   0.831E+01    0.215E+01
DAV:   3    -0.132856918700E+04    0.42794E+01   -0.78820E+01  2616   0.222E+01    0.135E+01
DAV:   4    -0.132476346501E+04    0.38057E+01   -0.31401E+01  2456   0.114E+01    0.642E+00
DAV:   5    -0.132459641125E+04    0.16705E+00   -0.86678E+00  2576   0.642E+00    0.455E+00
DAV:   6    -0.132444840405E+04    0.14801E+00   -0.46591E+00  2600   0.375E+00    0.238E+00
DAV:   7    -0.132440977006E+04    0.38634E-01   -0.72632E-01  2544   0.221E+00    0.149E+00
DAV:   8    -0.132442199034E+04   -0.12220E-01   -0.81875E-01  2496   0.153E+00    0.115E+00
DAV:   9    -0.132441434806E+04    0.76423E-02   -0.14457E-01  2528   0.850E-01    0.802E-01
DAV:  10    -0.132441069190E+04    0.36562E-02   -0.83192E-02  2616   0.490E-01    0.326E-01
DAV:  11    -0.132441216315E+04   -0.14712E-02   -0.29635E-02  2616   0.312E-01    0.239E-01
DAV:  12    -0.132441176321E+04    0.39995E-03   -0.55353E-03  2560   0.173E-01    0.118E-01
DAV:  13    -0.132441183397E+04   -0.70767E-04   -0.38414E-03  2616   0.102E-01    0.403E-02
DAV:  14    -0.132441187441E+04   -0.40442E-04   -0.44185E-04  2608   0.477E-02    0.217E-02
DAV:  15    -0.132441188211E+04   -0.76905E-05   -0.11039E-04  2624   0.194E-02    0.126E-02
DAV:  16    -0.132441188403E+04   -0.19254E-05   -0.41368E-05  2624   0.141E-02    0.763E-03
DAV:  17    -0.132441188590E+04   -0.18735E-05   -0.10880E-05  1608   0.733E-03    0.430E-03
DAV:  18    -0.132441188610E+04   -0.19872E-06   -0.34572E-06  1208   0.586E-03
   2 F= -.13244119E+04 E0= -.13244119E+04  d E =-.205691E+02
 BRION: g(F)=  0.129E+03 g(S)=  0.000E+00 retain N=  1 mean eig= 0.47
 eig:   0.468
 bond charge predicted
       N       E                     dE             d eps       ncg     rms          rms(c)
DAV:   1    -0.129716802778E+04    0.27244E+02   -0.54042E+03  1368   0.102E+02    0.273E+01
DAV:   2    -0.134758724395E+04   -0.50419E+02   -0.61445E+02  2544   0.481E+01    0.246E+01
DAV:   3    -0.134516774067E+04    0.24195E+01   -0.38881E+01  2608   0.161E+01    0.190E+01
DAV:   4    -0.134280943818E+04    0.23583E+01   -0.37748E+01  2136   0.880E+00    0.955E+00
DAV:   5    -0.134329711374E+04   -0.48768E+00   -0.89830E+00  2448   0.577E+00    0.950E+00
DAV:   6    -0.134172442979E+04    0.15727E+01   -0.10707E+01  2424   0.538E+00    0.217E+00
DAV:   7    -0.134183178951E+04   -0.10736E+00   -0.22265E+00  2352   0.299E+00    0.117E+00
DAV:   8    -0.134184934449E+04   -0.17555E-01   -0.37006E-01  2608   0.107E+00    0.807E-01
DAV:   9    -0.134184325512E+04    0.60894E-02   -0.88220E-02  2616   0.617E-01    0.425E-01
DAV:  10    -0.134184601378E+04   -0.27587E-02   -0.36886E-02  2560   0.355E-01    0.271E-01
DAV:  11    -0.134184525188E+04    0.76190E-03   -0.63372E-03  2616   0.199E-01    0.178E-01
DAV:  12    -0.134184534372E+04   -0.91845E-04   -0.99386E-03  2296   0.154E-01    0.107E-01
DAV:  13    -0.134184531110E+04    0.32621E-04   -0.13424E-03  2536   0.913E-02    0.813E-02
DAV:  14    -0.134184524534E+04    0.65765E-04   -0.99519E-04  2592   0.536E-02    0.261E-02
DAV:  15    -0.134184525798E+04   -0.12642E-04   -0.18841E-04  2536   0.277E-02    0.128E-02
DAV:  16    -0.134184526240E+04   -0.44219E-05   -0.43865E-05  2576   0.127E-02    0.763E-03
DAV:  17    -0.134184526287E+04   -0.46405E-06   -0.12835E-05  2040   0.887E-03    0.546E-03
DAV:  18    -0.134184526263E+04    0.23584E-06   -0.29419E-06  1152   0.564E-03
   3 F= -.13418453E+04 E0= -.13418453E+04  d E =-.174334E+02
 BRION: g(F)=  0.111E+02 g(S)=  0.000E+00 retain N=  2 mean eig= 2.10
 eig:   0.351  3.856
 bond charge predicted
       N       E                     dE             d eps       ncg     rms          rms(c)
DAV:   1    -0.134315311535E+04   -0.13079E+01   -0.58548E+02  1368   0.349E+01    0.676E+00
DAV:   2    -0.134628178043E+04   -0.31287E+01   -0.35453E+01  2312   0.134E+01    0.329E+00
DAV:   3    -0.134637111806E+04   -0.89338E-01   -0.28173E+00  2608   0.337E+00    0.277E+00
DAV:   4    -0.134627536363E+04    0.95754E-01   -0.65816E-01  2616   0.170E+00    0.146E+00
DAV:   5    -0.134626027096E+04    0.15093E-01   -0.27660E-01  2368   0.104E+00    0.904E-01
DAV:   6    -0.134625557892E+04    0.46920E-02   -0.12801E-01  2552   0.719E-01    0.563E-01
DAV:   7    -0.134625492021E+04    0.65871E-03   -0.65055E-02  2472   0.458E-01    0.327E-01
DAV:   8    -0.134625470559E+04    0.21461E-03   -0.11356E-02  2624   0.227E-01    0.184E-01
DAV:   9    -0.134625469083E+04    0.14763E-04   -0.44028E-03  2592   0.125E-01    0.107E-01
DAV:  10    -0.134625478776E+04   -0.96925E-04   -0.14909E-03  2408   0.806E-02    0.915E-02
DAV:  11    -0.134625471076E+04    0.76991E-04   -0.10198E-03  2424   0.576E-02    0.335E-02
DAV:  12    -0.134625472534E+04   -0.14574E-04   -0.33108E-04  2512   0.359E-02    0.221E-02
DAV:  13    -0.134625472482E+04    0.51576E-06   -0.62348E-05  2608   0.181E-02    0.126E-02
DAV:  14    -0.134625472682E+04   -0.20021E-05   -0.36495E-05  2448   0.105E-02    0.644E-03
DAV:  15    -0.134625472692E+04   -0.93947E-07   -0.37418E-06  1296   0.573E-03
   4 F= -.13462547E+04 E0= -.13462547E+04  d E =-.440946E+01
 BRION: g(F)=  0.413E+01 g(S)=  0.000E+00 retain N=  3 mean eig= 2.32
 eig:   6.041  0.453  0.453
 bond charge predicted
       N       E                     dE             d eps       ncg     rms          rms(c)
DAV:   1    -0.134712508782E+04   -0.87036E+00   -0.24032E+02  1376   0.219E+01    0.362E+00
DAV:   2    -0.134830216244E+04   -0.11771E+01   -0.12772E+01  2272   0.804E+00    0.175E+00
DAV:   3    -0.134833467930E+04   -0.32517E-01   -0.93002E-01  2608   0.180E+00    0.147E+00
DAV:   4    -0.134829639395E+04    0.38285E-01   -0.18919E-01  2568   0.947E-01    0.791E-01
DAV:   5    -0.134828788063E+04    0.85133E-02   -0.96285E-02  2368   0.622E-01    0.472E-01
DAV:   6    -0.134828756300E+04    0.31762E-03   -0.49499E-02  2560   0.429E-01    0.304E-01
DAV:   7    -0.134828734140E+04    0.22160E-03   -0.16879E-02  2520   0.244E-01    0.196E-01
DAV:   8    -0.134828716612E+04    0.17528E-03   -0.31496E-03  2624   0.115E-01    0.108E-01
DAV:   9    -0.134828715606E+04    0.10060E-04   -0.14135E-03  2576   0.674E-02    0.716E-02
DAV:  10    -0.134828714907E+04    0.69908E-05   -0.48896E-04  2264   0.454E-02    0.557E-02
DAV:  11    -0.134828712919E+04    0.19884E-04   -0.47834E-04  2320   0.351E-02    0.250E-02
DAV:  12    -0.134828712685E+04    0.23350E-05   -0.10398E-04  2504   0.203E-02    0.149E-02
DAV:  13    -0.134828712671E+04    0.14377E-06   -0.38541E-05  2400   0.118E-02    0.764E-03
DAV:  14    -0.134828712711E+04   -0.40617E-06   -0.13140E-05  1840   0.677E-03    0.432E-03
DAV:  15    -0.134828712709E+04    0.19092E-07   -0.15983E-06  1048   0.439E-03
   5 F= -.13482871E+04 E0= -.13482871E+04  d E =-.203240E+01
 BRION: g(F)=  0.229E+01 g(S)=  0.000E+00 retain N=  4 mean eig= 1.97
 eig:   5.952  0.928  0.506  0.506
 bond charge predicted
       N       E                     dE             d eps       ncg     rms          rms(c)
DAV:   1    -0.134859386207E+04   -0.30673E+00   -0.38146E+02  1352   0.274E+01    0.414E+00
DAV:   2    -0.135046136376E+04   -0.18675E+01   -0.19757E+01  2280   0.102E+01    0.203E+00
DAV:   3    -0.135052475375E+04   -0.63390E-01   -0.14165E+00  2584   0.216E+00    0.164E+00
DAV:   4    -0.135047620019E+04    0.48554E-01   -0.24656E-01  2536   0.106E+00    0.903E-01
DAV:   5    -0.135046388723E+04    0.12313E-01   -0.11858E-01  2416   0.662E-01    0.470E-01
DAV:   6    -0.135046448728E+04   -0.60005E-03   -0.49712E-02  2560   0.434E-01    0.294E-01
DAV:   7    -0.135046440679E+04    0.80492E-04   -0.16737E-02  2536   0.249E-01    0.185E-01
DAV:   8    -0.135046436820E+04    0.38593E-04   -0.40605E-03  2616   0.128E-01    0.102E-01
DAV:   9    -0.135046435525E+04    0.12949E-04   -0.13358E-03  2616   0.721E-02    0.633E-02
DAV:  10    -0.135046438214E+04   -0.26892E-04   -0.55904E-04  2416   0.450E-02    0.434E-02
DAV:  11    -0.135046436862E+04    0.13524E-04   -0.28345E-04  2600   0.322E-02    0.192E-02
DAV:  12    -0.135046437124E+04   -0.26192E-05   -0.84324E-05  2520   0.181E-02    0.129E-02
DAV:  13    -0.135046437055E+04    0.68250E-06   -0.24206E-05  2384   0.103E-02    0.654E-03
DAV:  14    -0.135046437095E+04   -0.39159E-06   -0.78228E-06  1640   0.600E-03
   6 F= -.13504644E+04 E0= -.13504644E+04  d E =-.217724E+01
 BRION: g(F)=  0.119E+01 g(S)=  0.000E+00 retain N=  5 mean eig= 1.81
 eig:   5.856  1.174  1.174  0.321  0.525
 bond charge predicted
       N       E                     dE             d eps       ncg     rms          rms(c)
DAV:   1    -0.135100472425E+04   -0.54035E+00   -0.13947E+02  1376   0.169E+01    0.251E+00
DAV:   2    -0.135168293072E+04   -0.67821E+00   -0.71621E+00  2280   0.620E+00    0.115E+00
DAV:   3    -0.135171626615E+04   -0.33335E-01   -0.55102E-01  2616   0.131E+00    0.917E-01
DAV:   4    -0.135170198409E+04    0.14282E-01   -0.76441E-02  2584   0.629E-01    0.531E-01
DAV:   5    -0.135169797739E+04    0.40067E-02   -0.39781E-02  2360   0.418E-01    0.244E-01
DAV:   6    -0.135169881786E+04   -0.84048E-03   -0.18202E-02  2552   0.261E-01    0.190E-01
DAV:   7    -0.135169871846E+04    0.99400E-04   -0.49637E-03  2568   0.139E-01    0.123E-01
DAV:   8    -0.135169862012E+04    0.98340E-04   -0.14630E-03  2624   0.757E-02    0.637E-02
DAV:   9    -0.135169862482E+04   -0.46990E-05   -0.35637E-04  2624   0.427E-02    0.344E-02
DAV:  10    -0.135169863355E+04   -0.87308E-05   -0.18485E-04  2552   0.259E-02    0.243E-02
DAV:  11    -0.135169862898E+04    0.45787E-05   -0.74586E-05  2552   0.175E-02    0.115E-02
DAV:  12    -0.135169863013E+04   -0.11535E-05   -0.26872E-05  2352   0.100E-02    0.864E-03
DAV:  13    -0.135169862917E+04    0.95666E-06   -0.97265E-06  1616   0.735E-03
   7 F= -.13516986E+04 E0= -.13516986E+04  d E =-.123426E+01
 BRION: g(F)=  0.864E+00 g(S)=  0.000E+00 retain N=  6 mean eig= 2.07
 eig:   5.970  2.482  2.482  0.208  0.652  0.652
 bond charge predicted
       N       E                     dE             d eps       ncg     rms          rms(c)
DAV:   1    -0.135225236272E+04   -0.55373E+00   -0.72387E+01  1376   0.123E+01    0.152E+00
DAV:   2    -0.135262467023E+04   -0.37231E+00   -0.39597E+00  2280   0.469E+00    0.802E-01
DAV:   3    -0.135264609017E+04   -0.21420E-01   -0.31720E-01  2592   0.986E-01    0.661E-01
DAV:   4    -0.135264078181E+04    0.53084E-02   -0.34553E-02  2592   0.443E-01    0.451E-01
DAV:   5    -0.135263684426E+04    0.39376E-02   -0.21064E-02  2320   0.280E-01    0.181E-01
DAV:   6    -0.135263739824E+04   -0.55398E-03   -0.98714E-03  2544   0.192E-01    0.162E-01
DAV:   7    -0.135263726659E+04    0.13165E-03   -0.48922E-03  2560   0.130E-01    0.967E-02
DAV:   8    -0.135263724215E+04    0.24448E-04   -0.15317E-03  2608   0.776E-02    0.528E-02
DAV:   9    -0.135263723288E+04    0.92639E-05   -0.27747E-04  2544   0.365E-02    0.372E-02
DAV:  10    -0.135263724512E+04   -0.12235E-04   -0.21030E-04  2472   0.253E-02    0.233E-02
DAV:  11    -0.135263723973E+04    0.53905E-05   -0.72240E-05  2464   0.194E-02    0.878E-03
DAV:  12    -0.135263724279E+04   -0.30635E-05   -0.36262E-05  2376   0.117E-02    0.109E-02
DAV:  13    -0.135263724104E+04    0.17539E-05   -0.83000E-06  1576   0.658E-03    0.507E-03
DAV:  14    -0.135263724088E+04    0.15950E-06   -0.41914E-06  1216   0.596E-03
   8 F= -.13526372E+04 E0= -.13526372E+04  d E =-.938612E+00
 BRION: g(F)=  0.728E+00 g(S)=  0.000E+00 retain N=  7 mean eig= 2.20
 eig:   6.015  3.434  3.434  0.798  0.798  0.204  0.701
 bond charge predicted
       N       E                     dE             d eps       ncg     rms          rms(c)
DAV:   1    -0.135322380392E+04   -0.58656E+00   -0.88241E+01  1376   0.136E+01    0.171E+00
DAV:   2    -0.135368631183E+04   -0.46251E+00   -0.48936E+00  2288   0.526E+00    0.865E-01
DAV:   3    -0.135371334937E+04   -0.27038E-01   -0.39309E-01  2616   0.109E+00    0.696E-01
DAV:   4    -0.135370661784E+04    0.67315E-02   -0.40725E-02  2608   0.494E-01    0.466E-01
DAV:   5    -0.135370218421E+04    0.44336E-02   -0.21920E-02  2368   0.303E-01    0.181E-01
DAV:   6    -0.135370289401E+04   -0.70980E-03   -0.11481E-02  2512   0.204E-01    0.150E-01
DAV:   7    -0.135370281788E+04    0.76135E-04   -0.43636E-03  2520   0.126E-01    0.994E-02
DAV:   8    -0.135370279798E+04    0.19898E-04   -0.17472E-03  2616   0.799E-02    0.535E-02
DAV:   9    -0.135370278244E+04    0.15536E-04   -0.30553E-04  2512   0.392E-02    0.391E-02
DAV:  10    -0.135370278667E+04   -0.42314E-05   -0.22208E-04  2568   0.269E-02    0.210E-02
DAV:  11    -0.135370278596E+04    0.71021E-06   -0.70334E-05  2480   0.183E-02    0.904E-03
DAV:  12    -0.135370278790E+04   -0.19321E-05   -0.24096E-05  2392   0.110E-02    0.919E-03
DAV:  13    -0.135370278692E+04    0.97675E-06   -0.88408E-06  1616   0.633E-03
   9 F= -.13537028E+04 E0= -.13537028E+04  d E =-.106555E+01
 BRION: g(F)=  0.554E+00 g(S)=  0.000E+00 retain N=  8 mean eig= 2.66
 eig:   6.663  4.983  4.983  1.475  1.475  0.212  0.758  0.758
 bond charge predicted
       N       E                     dE             d eps       ncg     rms          rms(c)
DAV:   1    -0.135430911097E+04   -0.60632E+00   -0.70346E+01  1384   0.120E+01    0.145E+00
DAV:   2    -0.135468186181E+04   -0.37275E+00   -0.39470E+00  2296   0.464E+00    0.750E-01
DAV:   3    -0.135470300010E+04   -0.21138E-01   -0.31478E-01  2592   0.946E-01    0.608E-01
DAV:   4    -0.135469745257E+04    0.55475E-02   -0.32549E-02  2600   0.437E-01    0.417E-01
DAV:   5    -0.135469284301E+04    0.46096E-02   -0.16610E-02  2368   0.279E-01    0.165E-01
DAV:   6    -0.135469326930E+04   -0.42629E-03   -0.11416E-02  2448   0.205E-01    0.135E-01
DAV:   7    -0.135469325327E+04    0.16038E-04   -0.40641E-03  2464   0.123E-01    0.101E-01
DAV:   8    -0.135469322503E+04    0.28235E-04   -0.16693E-03  2576   0.748E-02    0.510E-02
DAV:   9    -0.135469320088E+04    0.24153E-04   -0.38537E-04  2432   0.409E-02    0.353E-02
DAV:  10    -0.135469320269E+04   -0.18110E-05   -0.15249E-04  2552   0.247E-02    0.221E-02
DAV:  11    -0.135469320195E+04    0.74031E-06   -0.64694E-05  2416   0.170E-02    0.109E-02
DAV:  12    -0.135469320341E+04   -0.14599E-05   -0.26269E-05  2304   0.112E-02    0.108E-02
DAV:  13    -0.135469320226E+04    0.11506E-05   -0.16033E-05  1808   0.759E-03    0.519E-03
DAV:  14    -0.135469320218E+04    0.82480E-07   -0.33484E-06  1184   0.542E-03
  10 F= -.13546932E+04 E0= -.13546932E+04  d E =-.990415E+00
 BRION: g(F)=  0.474E+00 g(S)=  0.000E+00 retain N=  9 mean eig= 2.98
 eig:   6.681  6.118  6.118  2.542  2.542  0.175  0.925  0.925  0.825
 bond charge predicted
       N       E                     dE             d eps       ncg     rms          rms(c)
DAV:   1    -0.135530210059E+04   -0.60890E+00   -0.92325E+01  1392   0.136E+01    0.165E+00
DAV:   2    -0.135579728967E+04   -0.49519E+00   -0.52534E+00  2288   0.544E+00    0.852E-01
DAV:   3    -0.135582514252E+04   -0.27853E-01   -0.42239E-01  2592   0.109E+00    0.687E-01
DAV:   4    -0.135581771463E+04    0.74279E-02   -0.43350E-02  2624   0.498E-01    0.469E-01
DAV:   5    -0.135581171412E+04    0.60005E-02   -0.20092E-02  2368   0.297E-01    0.195E-01
DAV:   6    -0.135581190719E+04   -0.19307E-03   -0.13540E-02  2440   0.219E-01    0.138E-01
DAV:   7    -0.135581194428E+04   -0.37091E-04   -0.54577E-03  2400   0.140E-01    0.108E-01
DAV:   8    -0.135581193110E+04    0.13175E-04   -0.20689E-03  2584   0.856E-02    0.650E-02
DAV:   9    -0.135581189518E+04    0.35925E-04   -0.55619E-04  2528   0.468E-02    0.410E-02
DAV:  10    -0.135581190169E+04   -0.65101E-05   -0.24094E-04  2616   0.295E-02    0.265E-02
DAV:  11    -0.135581190238E+04   -0.69107E-06   -0.10391E-04  2456   0.207E-02    0.154E-02
DAV:  12    -0.135581190122E+04    0.11588E-05   -0.38298E-05  2328   0.144E-02    0.133E-02
DAV:  13    -0.135581190016E+04    0.10608E-05   -0.33164E-05  2104   0.982E-03    0.671E-03
DAV:  14    -0.135581190014E+04    0.21697E-07   -0.78574E-06  1664   0.587E-03
  11 F= -.13558119E+04 E0= -.13558119E+04  d E =-.111870E+01
 BRION: g(F)=  0.393E+00 g(S)=  0.000E+00 retain N=  8 mean eig= 2.85
 eig:   5.958  5.958  2.864  2.864  1.537  1.537  1.032  1.032
 bond charge predicted
       N       E                     dE             d eps       ncg     rms          rms(c)
DAV:   1    -0.135632537861E+04   -0.51348E+00   -0.74185E+01  1392   0.123E+01    0.150E+00
DAV:   2    -0.135672673674E+04   -0.40136E+00   -0.42702E+00  2296   0.492E+00    0.774E-01
DAV:   3    -0.135674980727E+04   -0.23071E-01   -0.35157E-01  2592   0.100E+00    0.631E-01
DAV:   4    -0.135674380613E+04    0.60011E-02   -0.36219E-02  2616   0.461E-01    0.435E-01
DAV:   5    -0.135673868324E+04    0.51229E-02   -0.17406E-02  2384   0.269E-01    0.183E-01
DAV:   6    -0.135673877702E+04   -0.93782E-04   -0.11611E-02  2432   0.203E-01    0.132E-01
DAV:   7    -0.135673878951E+04   -0.12492E-04   -0.48383E-03  2440   0.132E-01    0.102E-01
DAV:   8    -0.135673876979E+04    0.19721E-04   -0.19360E-03  2592   0.824E-02    0.594E-02
DAV:   9    -0.135673874529E+04    0.24498E-04   -0.46377E-04  2520   0.433E-02    0.391E-02
DAV:  10    -0.135673874842E+04   -0.31284E-05   -0.18106E-04  2568   0.257E-02    0.251E-02
DAV:  11    -0.135673874894E+04   -0.52286E-06   -0.88514E-05  2440   0.189E-02    0.144E-02
DAV:  12    -0.135673874775E+04    0.11898E-05   -0.33532E-05  2312   0.136E-02    0.118E-02
DAV:  13    -0.135673874723E+04    0.52262E-06   -0.27118E-05  2088   0.892E-03    0.631E-03
DAV:  14    -0.135673874694E+04    0.29412E-06   -0.35644E-06  1200   0.531E-03
  12 F= -.13567387E+04 E0= -.13567387E+04  d E =-.926847E+00
 BRION: g(F)=  0.343E+00 g(S)=  0.000E+00 retain N=  7 mean eig= 3.64
 eig:   7.938  7.938  2.863  2.863  1.317  1.317  1.274
 bond charge predicted
       N       E                     dE             d eps       ncg     rms          rms(c)
DAV:   1    -0.135710714006E+04   -0.36839E+00   -0.44629E+01  1392   0.954E+00    0.113E+00
DAV:   2    -0.135733776889E+04   -0.23063E+00   -0.24386E+00  2296   0.367E+00    0.574E-01
DAV:   3    -0.135735126468E+04   -0.13496E-01   -0.19882E-01  2608   0.742E-01    0.473E-01
DAV:   4    -0.135734812485E+04    0.31398E-02   -0.19297E-02  2616   0.337E-01    0.334E-01
DAV:   5    -0.135734491458E+04    0.32103E-02   -0.99891E-03  2344   0.201E-01    0.137E-01
DAV:   6    -0.135734502128E+04   -0.10670E-03   -0.71234E-03  2376   0.157E-01    0.105E-01
DAV:   7    -0.135734500865E+04    0.12632E-04   -0.28183E-03  2424   0.101E-01    0.787E-02
DAV:   8    -0.135734499154E+04    0.17104E-04   -0.10911E-03  2576   0.615E-02    0.426E-02
DAV:   9    -0.135734497737E+04    0.14171E-04   -0.24742E-04  2408   0.328E-02    0.291E-02
DAV:  10    -0.135734497916E+04   -0.17866E-05   -0.95018E-05  2440   0.182E-02    0.182E-02
DAV:  11    -0.135734497898E+04    0.17675E-06   -0.44054E-05  2392   0.136E-02    0.100E-02
DAV:  12    -0.135734497909E+04   -0.11286E-06   -0.18986E-05  2224   0.991E-03    0.912E-03
DAV:  13    -0.135734497847E+04    0.62709E-06   -0.11814E-05  1760   0.655E-03    0.490E-03
DAV:  14    -0.135734497825E+04    0.21956E-06   -0.21783E-06  1032   0.472E-03
  13 F= -.13573450E+04 E0= -.13573450E+04  d E =-.606231E+00
 BRION: g(F)=  0.313E+00 g(S)=  0.000E+00 retain N=  4 mean eig= 4.58
 eig:   7.422  7.422  1.740  1.740
 bond charge predicted
       N       E                     dE             d eps       ncg     rms          rms(c)
DAV:   1    -0.135767783961E+04   -0.33286E+00   -0.83169E+01  1392   0.129E+01    0.148E+00
DAV:   2    -0.135810624482E+04   -0.42841E+00   -0.45160E+00  2296   0.491E+00    0.769E-01
DAV:   3    -0.135813188174E+04   -0.25637E-01   -0.36995E-01  2600   0.101E+00    0.639E-01
DAV:   4    -0.135812697403E+04    0.49077E-02   -0.35461E-02  2616   0.450E-01    0.462E-01
DAV:   5    -0.135812089820E+04    0.60758E-02   -0.16071E-02  2336   0.255E-01    0.208E-01
DAV:   6    -0.135812052691E+04    0.37129E-03   -0.13687E-02  2240   0.217E-01    0.127E-01
DAV:   7    -0.135812074911E+04   -0.22221E-03   -0.66194E-03  2440   0.145E-01    0.119E-01
DAV:   8    -0.135812065294E+04    0.96171E-04   -0.17038E-03  2584   0.841E-02    0.704E-02
DAV:   9    -0.135812060966E+04    0.43285E-04   -0.81985E-04  2544   0.514E-02    0.366E-02
DAV:  10    -0.135812062747E+04   -0.17818E-04   -0.20689E-04  2584   0.294E-02    0.311E-02
DAV:  11    -0.135812062225E+04    0.52284E-05   -0.93831E-05  2392   0.193E-02    0.200E-02
DAV:  12    -0.135812062051E+04    0.17379E-05   -0.83055E-05  2272   0.174E-02    0.167E-02
DAV:  13    -0.135812061881E+04    0.17018E-05   -0.33074E-05  2152   0.111E-02    0.109E-02
DAV:  14    -0.135812061799E+04    0.81706E-06   -0.12768E-05  1752   0.662E-03    0.427E-03
DAV:  15    -0.135812061779E+04    0.19575E-06   -0.13551E-06   944   0.428E-03
  14 F= -.13581206E+04 E0= -.13581206E+04  d E =-.775640E+00
 BRION: g(F)=  0.273E+00 g(S)=  0.000E+00 retain N=  4 mean eig= 4.71
 eig:   7.339  7.339  2.079  2.079
 bond charge predicted
       N       E                     dE             d eps       ncg     rms          rms(c)
DAV:   1    -0.135839529778E+04   -0.27468E+00   -0.82714E+01  1400   0.130E+01    0.153E+00
DAV:   2    -0.135882809356E+04   -0.43280E+00   -0.45666E+00  2296   0.507E+00    0.784E-01
DAV:   3    -0.135885328765E+04   -0.25194E-01   -0.37090E-01  2608   0.101E+00    0.642E-01
DAV:   4    -0.135884761544E+04    0.56722E-02   -0.36985E-02  2608   0.461E-01    0.452E-01
DAV:   5    -0.135884189915E+04    0.57163E-02   -0.16247E-02  2368   0.260E-01    0.196E-01
DAV:   6    -0.135884173095E+04    0.16820E-03   -0.12743E-02  2304   0.213E-01    0.123E-01
DAV:   7    -0.135884187283E+04   -0.14188E-03   -0.58686E-03  2384   0.139E-01    0.108E-01
DAV:   8    -0.135884182803E+04    0.44799E-04   -0.16857E-03  2592   0.799E-02    0.653E-02
DAV:   9    -0.135884179180E+04    0.36228E-04   -0.62617E-04  2560   0.475E-02    0.372E-02
DAV:  10    -0.135884180378E+04   -0.11977E-04   -0.20203E-04  2552   0.280E-02    0.277E-02
DAV:  11    -0.135884180224E+04    0.15435E-05   -0.87477E-05  2448   0.188E-02    0.171E-02
DAV:  12    -0.135884180100E+04    0.12400E-05   -0.61812E-05  2312   0.161E-02    0.145E-02
DAV:  13    -0.135884179948E+04    0.15140E-05   -0.28169E-05  2200   0.103E-02    0.858E-03
DAV:  14    -0.135884179924E+04    0.24780E-06   -0.12402E-05  1760   0.657E-03    0.342E-03
DAV:  15    -0.135884179920E+04    0.38795E-07   -0.11353E-06   960   0.406E-03
  15 F= -.13588418E+04 E0= -.13588418E+04  d E =-.721181E+00
 BRION: g(F)=  0.243E+00 g(S)=  0.000E+00 retain N=  3 mean eig= 3.29
 eig:   4.307  4.307  1.257
 bond charge predicted
       N       E                     dE             d eps       ncg     rms          rms(c)
DAV:   1    -0.135910302097E+04   -0.26122E+00   -0.43590E+01  1392   0.940E+00    0.111E+00
DAV:   2    -0.135932898481E+04   -0.22596E+00   -0.23891E+00  2304   0.360E+00    0.570E-01
DAV:   3    -0.135934247758E+04   -0.13493E-01   -0.19837E-01  2616   0.735E-01    0.467E-01
DAV:   4    -0.135933931053E+04    0.31670E-02   -0.19780E-02  2608   0.338E-01    0.322E-01
DAV:   5    -0.135933657006E+04    0.27405E-02   -0.88900E-03  2360   0.187E-01    0.133E-01
DAV:   6    -0.135933659641E+04   -0.26349E-04   -0.59231E-03  2384   0.143E-01    0.907E-02
DAV:   7    -0.135933662964E+04   -0.33232E-04   -0.25907E-03  2384   0.947E-02    0.712E-02
DAV:   8    -0.135933661880E+04    0.10842E-04   -0.88353E-04  2600   0.567E-02    0.418E-02
DAV:   9    -0.135933660780E+04    0.11006E-04   -0.24318E-04  2520   0.312E-02    0.282E-02
DAV:  10    -0.135933661103E+04   -0.32287E-05   -0.91480E-05  2552   0.181E-02    0.195E-02
DAV:  11    -0.135933661051E+04    0.51172E-06   -0.49031E-05  2360   0.141E-02    0.117E-02
DAV:  12    -0.135933660962E+04    0.89657E-06   -0.21859E-05  2200   0.109E-02    0.928E-03
DAV:  13    -0.135933660925E+04    0.36966E-06   -0.14174E-05  1800   0.701E-03    0.495E-03
DAV:  14    -0.135933660903E+04    0.22077E-06   -0.25364E-06  1064   0.500E-03
  16 F= -.13593366E+04 E0= -.13593366E+04  d E =-.494810E+00
 BRION: g(F)=  0.212E+00 g(S)=  0.000E+00 retain N=  4 mean eig= 4.60
 eig:   7.811  7.811  1.390  1.390
 bond charge predicted
       N       E                     dE             d eps       ncg     rms          rms(c)
DAV:   1    -0.135956249117E+04   -0.22588E+00   -0.29845E+01  1392   0.776E+00    0.888E-01
DAV:   2    -0.135971634758E+04   -0.15386E+00   -0.16222E+00  2304   0.296E+00    0.463E-01
DAV:   3    -0.135972573957E+04   -0.93920E-02   -0.13379E-01  2584   0.604E-01    0.379E-01
DAV:   4    -0.135972393253E+04    0.18070E-02   -0.12845E-02  2616   0.267E-01    0.273E-01
DAV:   5    -0.135972178429E+04    0.21482E-02   -0.58027E-03  2352   0.157E-01    0.117E-01
DAV:   6    -0.135972173871E+04    0.45579E-04   -0.48063E-03  2296   0.128E-01    0.745E-02
DAV:   7    -0.135972178860E+04   -0.49895E-04   -0.19722E-03  2384   0.816E-02    0.631E-02
DAV:   8    -0.135972177366E+04    0.14943E-04   -0.58753E-04  2592   0.471E-02    0.363E-02
DAV:   9    -0.135972176163E+04    0.12028E-04   -0.20256E-04  2520   0.277E-02    0.215E-02
DAV:  10    -0.135972176590E+04   -0.42693E-05   -0.64347E-05  2512   0.157E-02    0.161E-02
DAV:  11    -0.135972176477E+04    0.11293E-05   -0.30385E-05  2296   0.112E-02    0.968E-03
DAV:  12    -0.135972176440E+04    0.37201E-06   -0.16186E-05  1960   0.903E-03    0.825E-03
DAV:  13    -0.135972176387E+04    0.53085E-06   -0.85388E-06  1720   0.614E-03
  17 F= -.13597218E+04 E0= -.13597218E+04  d E =-.385155E+00
 BRION: g(F)=  0.191E+00 g(S)=  0.000E+00 retain N=  4 mean eig= 4.72
 eig:   7.958  7.958  1.472  1.472
 bond charge predicted
       N       E                     dE             d eps       ncg     rms          rms(c)
DAV:   1    -0.135993788307E+04   -0.21612E+00   -0.34981E+01  1392   0.839E+00    0.984E-01
DAV:   2    -0.136012080218E+04   -0.18292E+00   -0.19302E+00  2296   0.327E+00    0.501E-01
DAV:   3    -0.136013201385E+04   -0.11212E-01   -0.15985E-01  2592   0.656E-01    0.410E-01
DAV:   4    -0.136012972058E+04    0.22933E-02   -0.15185E-02  2624   0.293E-01    0.292E-01
DAV:   5    -0.136012729219E+04    0.24284E-02   -0.70540E-03  2360   0.168E-01    0.121E-01
DAV:   6    -0.136012731038E+04   -0.18187E-04   -0.53055E-03  2360   0.131E-01    0.827E-02
DAV:   7    -0.136012733482E+04   -0.24437E-04   -0.21944E-03  2392   0.866E-02    0.648E-02
DAV:   8    -0.136012732479E+04    0.10026E-04   -0.72468E-04  2592   0.517E-02    0.377E-02
DAV:   9    -0.136012731436E+04    0.10432E-04   -0.19856E-04  2496   0.283E-02    0.244E-02
DAV:  10    -0.136012731788E+04   -0.35186E-05   -0.74409E-05  2480   0.161E-02    0.161E-02
DAV:  11    -0.136012731769E+04    0.19003E-06   -0.31556E-05  2336   0.116E-02    0.100E-02
DAV:  12    -0.136012731720E+04    0.49047E-06   -0.17128E-05  2104   0.922E-03    0.829E-03
DAV:  13    -0.136012731672E+04    0.47700E-06   -0.98185E-06  1760   0.625E-03
  18 F= -.13601273E+04 E0= -.13601273E+04  d E =-.405553E+00
 BRION: g(F)=  0.176E+00 g(S)=  0.000E+00 retain N=  4 mean eig= 4.59
 eig:   7.665  7.665  1.509  1.509
 bond charge predicted
       N       E                     dE             d eps       ncg     rms          rms(c)
DAV:   1    -0.136032362385E+04   -0.19631E+00   -0.33279E+01  1392   0.819E+00    0.945E-01
DAV:   2    -0.136049571659E+04   -0.17209E+00   -0.18166E+00  2304   0.316E+00    0.486E-01
DAV:   3    -0.136050641207E+04   -0.10695E-01   -0.15088E-01  2592   0.630E-01    0.397E-01
DAV:   4    -0.136050426301E+04    0.21491E-02   -0.13861E-02  2600   0.283E-01    0.283E-01
DAV:   5    -0.136050192772E+04    0.23353E-02   -0.68692E-03  2336   0.166E-01    0.114E-01
DAV:   6    -0.136050198443E+04   -0.56709E-04   -0.49988E-03  2368   0.129E-01    0.828E-02
DAV:   7    -0.136050199800E+04   -0.13573E-04   -0.19322E-03  2424   0.823E-02    0.622E-02
DAV:   8    -0.136050198784E+04    0.10157E-04   -0.66603E-04  2576   0.498E-02    0.342E-02
DAV:   9    -0.136050197984E+04    0.80071E-05   -0.16753E-04  2432   0.265E-02    0.234E-02
DAV:  10    -0.136050198214E+04   -0.23023E-05   -0.60053E-05  2464   0.145E-02    0.151E-02
DAV:  11    -0.136050198183E+04    0.31076E-06   -0.28423E-05  2344   0.112E-02    0.912E-03
DAV:  12    -0.136050198161E+04    0.22090E-06   -0.13513E-05  1896   0.855E-03    0.792E-03
DAV:  13    -0.136050198119E+04    0.41231E-06   -0.88831E-06  1680   0.609E-03
  19 F= -.13605020E+04 E0= -.13605020E+04  d E =-.374664E+00
 BRION: g(F)=  0.164E+00 g(S)=  0.000E+00 retain N=  4 mean eig= 4.08
 eig:   6.777  6.777  1.385  1.385
 bond charge predicted
       N       E                     dE             d eps       ncg     rms          rms(c)
DAV:   1    -0.136068336577E+04   -0.18138E+00   -0.23107E+01  1384   0.680E+00    0.778E-01
DAV:   2    -0.136080279067E+04   -0.11942E+00   -0.12624E+00  2288   0.259E+00    0.405E-01
DAV:   3    -0.136081048055E+04   -0.76899E-02   -0.10689E-01  2584   0.538E-01    0.335E-01
DAV:   4    -0.136080914888E+04    0.13317E-02   -0.96870E-03  2608   0.236E-01    0.245E-01
DAV:   5    -0.136080742419E+04    0.17247E-02   -0.47448E-03  2344   0.140E-01    0.105E-01
DAV:   6    -0.136080740212E+04    0.22069E-04   -0.39189E-03  2336   0.114E-01    0.716E-02
DAV:   7    -0.136080742164E+04   -0.19517E-04   -0.15585E-03  2456   0.745E-02    0.567E-02
DAV:   8    -0.136080740959E+04    0.12051E-04   -0.52812E-04  2584   0.442E-02    0.322E-02
DAV:   9    -0.136080740163E+04    0.79612E-05   -0.14633E-04  2480   0.240E-02    0.202E-02
DAV:  10    -0.136080740379E+04   -0.21624E-05   -0.47973E-05  2496   0.132E-02    0.133E-02
DAV:  11    -0.136080740372E+04    0.74811E-07   -0.18873E-05  2064   0.938E-03    0.900E-03
DAV:  12    -0.136080740320E+04    0.51592E-06   -0.11815E-05  1776   0.779E-03    0.744E-03
DAV:  13    -0.136080740281E+04    0.39022E-06   -0.78932E-06  1680   0.583E-03
  20 F= -.13608074E+04 E0= -.13608074E+04  d E =-.305422E+00
 BRION: g(F)=  0.151E+00 g(S)=  0.000E+00 retain N=  4 mean eig= 4.34
 eig:   7.355  7.355  1.329  1.329
