 running on  160 total cores
 distrk:  each k-point on  160 cores,    1 groups
 distr:  one band on   20 cores,    8 groups
 using from now: INCAR     
 vasp.5.4.4.18Apr17-6-g9f103f2a35 (build May 01 2020 14:22:42) gamma-only       
  
 POSCAR found type information on POSCAR  O  La Zr Li Al
 POSCAR found :  5 types and     186 ions
 scaLAPACK will be used
 LDA part: xc-table for Pade appr. of Perdew
 POSCAR, INCAR and KPOINTS ok, starting setup
 FFT: planning ...
 WAVECAR not read
 WARNING: random wavefunctions but no delay for mixing, default for NELMDL
 entering main loop
       N       E                     dE             d eps       ncg     rms          rms(c)
DAV:   1     0.252357090635E+05    0.25236E+05   -0.42186E+05  1616   0.253E+03
DAV:   2     0.943223728816E+04   -0.15803E+05   -0.14541E+05  1424   0.709E+02
DAV:   3     0.269496222351E+04   -0.67373E+04   -0.61382E+04  1512   0.355E+02
DAV:   4    -0.336254241789E+03   -0.30312E+04   -0.28272E+04  2048   0.221E+02
DAV:   5    -0.139383147185E+04   -0.10576E+04   -0.10137E+04  2528   0.141E+02    0.116E+02
DAV:   6    -0.129081951799E+04    0.10301E+03   -0.14798E+03  2448   0.661E+01    0.502E+01
DAV:   7    -0.131261233716E+04   -0.21793E+02   -0.39820E+02  2552   0.343E+01    0.260E+01
DAV:   8    -0.131873703166E+04   -0.61247E+01   -0.25855E+02  2520   0.275E+01    0.252E+01
DAV:   9    -0.131303594554E+04    0.57011E+01   -0.46536E+01  2528   0.145E+01    0.798E+00
DAV:  10    -0.131367071289E+04   -0.63477E+00   -0.15600E+01  2624   0.766E+00    0.688E+00
DAV:  11    -0.131400017516E+04   -0.32946E+00   -0.53410E+00  2624   0.407E+00    0.408E+00
DAV:  12    -0.131389008627E+04    0.11009E+00   -0.18886E+00  2576   0.329E+00    0.289E+00
DAV:  13    -0.131391732215E+04   -0.27236E-01   -0.90707E-01  2576   0.170E+00    0.183E+00
DAV:  14    -0.131390755717E+04    0.97650E-02   -0.21676E-01  2616   0.100E+00    0.111E+00
DAV:  15    -0.131391301403E+04   -0.54569E-02   -0.77370E-02  2568   0.534E-01    0.806E-01
DAV:  16    -0.131391287222E+04    0.14181E-03   -0.24779E-02  2624   0.304E-01    0.465E-01
DAV:  17    -0.131391282102E+04    0.51196E-04   -0.19690E-02  2408   0.263E-01    0.253E-01
DAV:  18    -0.131391298255E+04   -0.16153E-03   -0.43142E-03  2416   0.142E-01    0.131E-01
DAV:  19    -0.131391293706E+04    0.45493E-04   -0.22109E-03  2512   0.897E-02    0.772E-02
DAV:  20    -0.131391298550E+04   -0.48450E-04   -0.50128E-04  2528   0.413E-02    0.303E-02
DAV:  21    -0.131391300785E+04   -0.22348E-04   -0.16642E-04  2576   0.244E-02    0.299E-02
DAV:  22    -0.131391302096E+04   -0.13110E-04   -0.58371E-05  2520   0.135E-02    0.138E-02
DAV:  23    -0.131391301958E+04    0.13787E-05   -0.27976E-05  1984   0.102E-02    0.842E-03
DAV:  24    -0.131391302350E+04   -0.39152E-05   -0.15457E-05  1800   0.815E-03    0.266E-03
DAV:  25    -0.131391302291E+04    0.58500E-06   -0.33938E-06   992   0.514E-03
   1 F= -.13139130E+04 E0= -.13139130E+04  d E =-.131391E+04
 BRION: g(F)=  0.826E+02 g(S)=  0.000E+00
 bond charge predicted
       N       E                     dE             d eps       ncg     rms          rms(c)
DAV:   1    -0.125681777815E+04    0.57095E+02   -0.95148E+03  1824   0.149E+02    0.334E+01
DAV:   2    -0.133611177600E+04   -0.79294E+02   -0.91123E+02  2576   0.673E+01    0.179E+01
DAV:   3    -0.133298864511E+04    0.31231E+01   -0.54094E+01  2608   0.183E+01    0.117E+01
DAV:   4    -0.132991870883E+04    0.30699E+01   -0.21959E+01  2408   0.937E+00    0.549E+00
DAV:   5    -0.132979400365E+04    0.12471E+00   -0.61979E+00  2560   0.525E+00    0.393E+00
DAV:   6    -0.132968189785E+04    0.11211E+00   -0.41504E+00  2592   0.359E+00    0.238E+00
DAV:   7    -0.132961673637E+04    0.65161E-01   -0.59900E-01  2536   0.210E+00    0.152E+00
DAV:   8    -0.132961728476E+04   -0.54839E-03   -0.80374E-01  2512   0.147E+00    0.949E-01
DAV:   9    -0.132961376686E+04    0.35179E-02   -0.10728E-01  2544   0.738E-01    0.665E-01
DAV:  10    -0.132961039884E+04    0.33680E-02   -0.58350E-02  2576   0.407E-01    0.246E-01
DAV:  11    -0.132961128744E+04   -0.88860E-03   -0.17410E-02  2624   0.251E-01    0.160E-01
DAV:  12    -0.132961138208E+04   -0.94635E-04   -0.31139E-03  2560   0.118E-01    0.959E-02
DAV:  13    -0.132961131603E+04    0.66047E-04   -0.16766E-03  2568   0.778E-02    0.283E-02
DAV:  14    -0.132961134900E+04   -0.32970E-04   -0.34642E-04  2600   0.393E-02    0.149E-02
DAV:  15    -0.132961135784E+04   -0.88397E-05   -0.91318E-05  2624   0.206E-02    0.974E-03
DAV:  16    -0.132961135940E+04   -0.15581E-05   -0.35783E-05  2624   0.120E-02    0.695E-03
DAV:  17    -0.132961136047E+04   -0.10715E-05   -0.10525E-05  1800   0.795E-03    0.471E-03
DAV:  18    -0.132961136093E+04   -0.46000E-06   -0.40791E-06  1232   0.534E-03
   2 F= -.13296114E+04 E0= -.13296114E+04  d E =-.156983E+02
 BRION: g(F)=  0.239E+03 g(S)=  0.000E+00 retain N=  1 mean eig= 0.33
 eig:   0.327
 bond charge predicted
       N       E                     dE             d eps       ncg     rms          rms(c)
DAV:   1    -0.131240118164E+04    0.17210E+02   -0.30348E+03  1352   0.665E+01    0.244E+01
DAV:   2    -0.135112259138E+04   -0.38721E+02   -0.51505E+02  2496   0.356E+01    0.213E+01
DAV:   3    -0.134638842840E+04    0.47342E+01   -0.56647E+01  2536   0.151E+01    0.147E+01
DAV:   4    -0.134270306502E+04    0.36854E+01   -0.33647E+01  2200   0.727E+00    0.528E+00
DAV:   5    -0.134333345427E+04   -0.63039E+00   -0.84978E+00  2456   0.474E+00    0.629E+00
DAV:   6    -0.134262470419E+04    0.70875E+00   -0.48624E+00  2520   0.334E+00    0.157E+00
DAV:   7    -0.134274992886E+04   -0.12522E+00   -0.15562E+00  2488   0.222E+00    0.200E+00
DAV:   8    -0.134267581233E+04    0.74117E-01   -0.33240E-01  2528   0.118E+00    0.915E-01
DAV:   9    -0.134267462682E+04    0.11855E-02   -0.16390E-01  2512   0.683E-01    0.296E-01
DAV:  10    -0.134267548064E+04   -0.85382E-03   -0.19470E-02  2392   0.300E-01    0.134E-01
DAV:  11    -0.134267580423E+04   -0.32359E-03   -0.51474E-03  2624   0.133E-01    0.881E-02
DAV:  12    -0.134267583220E+04   -0.27974E-04   -0.13184E-03  2624   0.750E-02    0.453E-02
DAV:  13    -0.134267589250E+04   -0.60298E-04   -0.56121E-04  2624   0.467E-02    0.421E-02
DAV:  14    -0.134267587323E+04    0.19269E-04   -0.20157E-04  2616   0.290E-02    0.182E-02
DAV:  15    -0.134267588114E+04   -0.79128E-05   -0.12929E-04  2608   0.203E-02    0.136E-02
DAV:  16    -0.134267587934E+04    0.18005E-05   -0.21674E-05  2416   0.104E-02    0.754E-03
DAV:  17    -0.134267587967E+04   -0.33337E-06   -0.10203E-05  2032   0.614E-03    0.244E-03
DAV:  18    -0.134267587973E+04   -0.53187E-07   -0.86099E-07   992   0.346E-03
   3 F= -.13426759E+04 E0= -.13426759E+04  d E =-.130645E+02
 BRION: g(F)=  0.218E+02 g(S)=  0.000E+00 retain N=  2 mean eig= 2.40
 eig:   0.197  4.603
 bond charge predicted
       N       E                     dE             d eps       ncg     rms          rms(c)
DAV:   1    -0.134145748423E+04    0.12184E+01   -0.10620E+03  1400   0.421E+01    0.976E+00
DAV:   2    -0.134821699868E+04   -0.67595E+01   -0.82985E+01  2480   0.187E+01    0.578E+00
DAV:   3    -0.134804393176E+04    0.17307E+00   -0.57324E+00  2584   0.586E+00    0.473E+00
DAV:   4    -0.134774995063E+04    0.29398E+00   -0.23974E+00  2384   0.257E+00    0.223E+00
DAV:   5    -0.134772649560E+04    0.23455E-01   -0.72518E-01  2456   0.168E+00    0.186E+00
DAV:   6    -0.134768333521E+04    0.43160E-01   -0.51577E-01  2520   0.143E+00    0.887E-01
DAV:   7    -0.134768632876E+04   -0.29935E-02   -0.24830E-01  2416   0.847E-01    0.707E-01
DAV:   8    -0.134768454070E+04    0.17881E-02   -0.58830E-02  2600   0.440E-01    0.430E-01
DAV:   9    -0.134768210932E+04    0.24314E-02   -0.19908E-02  2608   0.266E-01    0.209E-01
DAV:  10    -0.134768289759E+04   -0.78827E-03   -0.14425E-02  2568   0.192E-01    0.180E-01
DAV:  11    -0.134768239527E+04    0.50232E-03   -0.21711E-03  2568   0.114E-01    0.806E-02
DAV:  12    -0.134768244438E+04   -0.49105E-04   -0.19834E-03  2496   0.715E-02    0.411E-02
DAV:  13    -0.134768244984E+04   -0.54693E-05   -0.23621E-04  2576   0.354E-02    0.234E-02
DAV:  14    -0.134768244985E+04   -0.91968E-08   -0.98615E-05  2408   0.171E-02    0.110E-02
DAV:  15    -0.134768245162E+04   -0.17674E-05   -0.23937E-05  2256   0.106E-02    0.353E-03
DAV:  16    -0.134768245188E+04   -0.25766E-06   -0.30688E-06  1184   0.450E-03
   4 F= -.13476825E+04 E0= -.13476825E+04  d E =-.500657E+01
 BRION: g(F)=  0.682E+01 g(S)=  0.000E+00 retain N=  2 mean eig= 0.34
 eig:   0.342  0.342
 bond charge predicted
       N       E                     dE             d eps       ncg     rms          rms(c)
DAV:   1    -0.134905493478E+04   -0.13725E+01   -0.29552E+02  1376   0.230E+01    0.439E+00
DAV:   2    -0.135048893562E+04   -0.14340E+01   -0.15537E+01  2264   0.860E+00    0.221E+00
DAV:   3    -0.135048420683E+04    0.47288E-02   -0.99900E-01  2616   0.189E+00    0.177E+00
DAV:   4    -0.135042638883E+04    0.57818E-01   -0.44458E-01  2400   0.126E+00    0.746E-01
DAV:   5    -0.135042738284E+04   -0.99401E-03   -0.11280E-01  2464   0.713E-01    0.666E-01
DAV:   6    -0.135042444171E+04    0.29411E-02   -0.11246E-01  2352   0.548E-01    0.292E-01
DAV:   7    -0.135042413608E+04    0.30563E-03   -0.19477E-02  2432   0.289E-01    0.241E-01
DAV:   8    -0.135042376750E+04    0.36858E-03   -0.84429E-03  2536   0.144E-01    0.764E-02
DAV:   9    -0.135042386881E+04   -0.10130E-03   -0.19443E-03  2568   0.826E-02    0.702E-02
DAV:  10    -0.135042382576E+04    0.43052E-04   -0.64045E-04  2544   0.510E-02    0.377E-02
DAV:  11    -0.135042383889E+04   -0.13139E-04   -0.39027E-04  2600   0.334E-02    0.200E-02
DAV:  12    -0.135042383831E+04    0.58016E-06   -0.54453E-05  2544   0.142E-02    0.125E-02
DAV:  13    -0.135042383711E+04    0.12058E-05   -0.18946E-05  1984   0.959E-03    0.565E-03
DAV:  14    -0.135042383771E+04   -0.60229E-06   -0.11735E-05  1800   0.667E-03    0.262E-03
DAV:  15    -0.135042383779E+04   -0.77824E-07   -0.12384E-06  1016   0.416E-03
   5 F= -.13504238E+04 E0= -.13504238E+04  d E =-.274139E+01
 BRION: g(F)=  0.382E+01 g(S)=  0.000E+00 retain N=  3 mean eig= 0.33
 eig:   0.506  0.239  0.239
 bond charge predicted
       N       E                     dE             d eps       ncg     rms          rms(c)
DAV:   1    -0.135119798028E+04   -0.77414E+00   -0.19251E+02  1360   0.189E+01    0.291E+00
DAV:   2    -0.135210635912E+04   -0.90838E+00   -0.96974E+00  2272   0.695E+00    0.151E+00
DAV:   3    -0.135212411737E+04   -0.17758E-01   -0.65464E-01  2616   0.147E+00    0.121E+00
DAV:   4    -0.135209363049E+04    0.30487E-01   -0.14566E-01  2496   0.792E-01    0.602E-01
DAV:   5    -0.135208906598E+04    0.45645E-02   -0.55568E-02  2472   0.476E-01    0.356E-01
DAV:   6    -0.135208910416E+04   -0.38174E-04   -0.31988E-02  2600   0.322E-01    0.184E-01
DAV:   7    -0.135208906051E+04    0.43650E-04   -0.61614E-03  2440   0.163E-01    0.145E-01
DAV:   8    -0.135208901450E+04    0.46011E-04   -0.26962E-03  2424   0.868E-02    0.705E-02
DAV:   9    -0.135208899399E+04    0.20507E-04   -0.87454E-04  2616   0.560E-02    0.457E-02
DAV:  10    -0.135208901086E+04   -0.16872E-04   -0.36769E-04  2552   0.370E-02    0.430E-02
DAV:  11    -0.135208898968E+04    0.21184E-04   -0.19842E-04  2496   0.273E-02    0.159E-02
DAV:  12    -0.135208899344E+04   -0.37609E-05   -0.86315E-05  2408   0.170E-02    0.105E-02
DAV:  13    -0.135208899338E+04    0.61569E-07   -0.12920E-05  1792   0.842E-03    0.708E-03
DAV:  14    -0.135208899308E+04    0.29201E-06   -0.60370E-06  1488   0.558E-03
   6 F= -.13520890E+04 E0= -.13520890E+04  d E =-.166516E+01
 BRION: g(F)=  0.284E+01 g(S)=  0.000E+00 retain N=  4 mean eig= 0.74
 eig:   1.801  0.272  0.442  0.442
 bond charge predicted
       N       E                     dE             d eps       ncg     rms          rms(c)
DAV:   1    -0.135278220478E+04   -0.69321E+00   -0.23908E+02  1352   0.210E+01    0.303E+00
DAV:   2    -0.135397463439E+04   -0.11924E+01   -0.12462E+01  2304   0.777E+00    0.162E+00
DAV:   3    -0.135400255859E+04   -0.27924E-01   -0.82366E-01  2624   0.159E+00    0.137E+00
DAV:   4    -0.135396759091E+04    0.34968E-01   -0.17708E-01  2496   0.832E-01    0.704E-01
DAV:   5    -0.135395909807E+04    0.84928E-02   -0.65313E-02  2464   0.503E-01    0.387E-01
DAV:   6    -0.135395905891E+04    0.39163E-04   -0.28399E-02  2584   0.313E-01    0.232E-01
DAV:   7    -0.135395865485E+04    0.40406E-03   -0.10053E-02  2432   0.187E-01    0.139E-01
DAV:   8    -0.135395877537E+04   -0.12051E-03   -0.37263E-03  2488   0.105E-01    0.813E-02
DAV:   9    -0.135395869263E+04    0.82733E-04   -0.70164E-04  2520   0.557E-02    0.504E-02
DAV:  10    -0.135395870760E+04   -0.14963E-04   -0.70921E-04  2328   0.453E-02    0.417E-02
DAV:  11    -0.135395869080E+04    0.16794E-04   -0.25828E-04  2472   0.322E-02    0.144E-02
DAV:  12    -0.135395869698E+04   -0.61825E-05   -0.86228E-05  2456   0.176E-02    0.115E-02
DAV:  13    -0.135395869638E+04    0.59922E-06   -0.18790E-05  2152   0.939E-03    0.599E-03
DAV:  14    -0.135395869630E+04    0.87006E-07   -0.30470E-06  1096   0.552E-03
   7 F= -.13539587E+04 E0= -.13539587E+04  d E =-.186970E+01
 BRION: g(F)=  0.122E+01 g(S)=  0.000E+00 retain N=  5 mean eig= 0.93
 eig:   1.825  1.825  0.210  0.210  0.587
 bond charge predicted
       N       E                     dE             d eps       ncg     rms          rms(c)
DAV:   1    -0.135430231148E+04   -0.34362E+00   -0.11938E+02  1376   0.151E+01    0.204E+00
DAV:   2    -0.135491579184E+04   -0.61348E+00   -0.64815E+00  2288   0.567E+00    0.109E+00
DAV:   3    -0.135494019617E+04   -0.24404E-01   -0.48259E-01  2616   0.118E+00    0.885E-01
DAV:   4    -0.135492610664E+04    0.14090E-01   -0.71136E-02  2528   0.590E-01    0.507E-01
DAV:   5    -0.135492097471E+04    0.51319E-02   -0.28171E-02  2376   0.324E-01    0.221E-01
DAV:   6    -0.135492144625E+04   -0.47154E-03   -0.13287E-02  2512   0.217E-01    0.155E-01
DAV:   7    -0.135492133458E+04    0.11167E-03   -0.51814E-03  2320   0.137E-01    0.108E-01
DAV:   8    -0.135492137872E+04   -0.44150E-04   -0.23205E-03  2408   0.810E-02    0.655E-02
DAV:   9    -0.135492134314E+04    0.35588E-04   -0.41327E-04  2408   0.442E-02    0.481E-02
DAV:  10    -0.135492134902E+04   -0.58830E-05   -0.55078E-04  2240   0.378E-02    0.367E-02
DAV:  11    -0.135492133482E+04    0.14197E-04   -0.18186E-04  2440   0.288E-02    0.129E-02
DAV:  12    -0.135492133964E+04   -0.48225E-05   -0.70264E-05  2336   0.160E-02    0.121E-02
DAV:  13    -0.135492133798E+04    0.16609E-05   -0.17795E-05  2016   0.926E-03    0.546E-03
DAV:  14    -0.135492133832E+04   -0.33756E-06   -0.73003E-06  1560   0.595E-03
   8 F= -.13549213E+04 E0= -.13549213E+04  d E =-.962642E+00
 BRION: g(F)=  0.556E+00 g(S)=  0.000E+00 retain N=  6 mean eig= 1.36
 eig:   3.277  3.277  0.014  0.125  0.725  0.725
 bond charge predicted
       N       E                     dE             d eps       ncg     rms          rms(c)
DAV:   1    -0.135512736716E+04   -0.20603E+00   -0.10341E+02  1384   0.142E+01    0.189E+00
DAV:   2    -0.135564651508E+04   -0.51915E+00   -0.54744E+00  2288   0.540E+00    0.953E-01
DAV:   3    -0.135566854336E+04   -0.22028E-01   -0.39970E-01  2608   0.109E+00    0.747E-01
DAV:   4    -0.135565688144E+04    0.11662E-01   -0.54433E-02  2528   0.537E-01    0.414E-01
DAV:   5    -0.135565364941E+04    0.32320E-02   -0.23344E-02  2424   0.312E-01    0.172E-01
DAV:   6    -0.135565425075E+04   -0.60134E-03   -0.10003E-02  2568   0.186E-01    0.123E-01
DAV:   7    -0.135565421631E+04    0.34441E-04   -0.25235E-03  2504   0.106E-01    0.893E-02
DAV:   8    -0.135565422570E+04   -0.93900E-05   -0.13923E-03  2512   0.637E-02    0.486E-02
DAV:   9    -0.135565420870E+04    0.17007E-04   -0.23988E-04  2592   0.362E-02    0.337E-02
DAV:  10    -0.135565420517E+04    0.35223E-05   -0.24280E-04  2424   0.298E-02    0.198E-02
DAV:  11    -0.135565420544E+04   -0.27077E-06   -0.65671E-05  2408   0.179E-02    0.101E-02
DAV:  12    -0.135565420748E+04   -0.20331E-05   -0.37192E-05  2320   0.104E-02    0.879E-03
DAV:  13    -0.135565420636E+04    0.11189E-05   -0.40366E-06  1216   0.661E-03    0.516E-03
DAV:  14    -0.135565420729E+04   -0.93573E-06   -0.18051E-05  1624   0.792E-03    0.526E-03
DAV:  15    -0.135565420688E+04    0.41866E-06   -0.15718E-06  1016   0.516E-03
   9 F= -.13556542E+04 E0= -.13556542E+04  d E =-.732869E+00
 BRION: g(F)=  0.509E+00 g(S)=  0.000E+00 retain N=  7 mean eig= 1.43
 eig:   3.409  3.409  1.507  0.460  0.460  0.186  0.601
 bond charge predicted
       N       E                     dE             d eps       ncg     rms          rms(c)
DAV:   1    -0.135592372827E+04   -0.26952E+00   -0.48211E+01  1392   0.988E+00    0.128E+00
DAV:   2    -0.135617446483E+04   -0.25074E+00   -0.26600E+00  2280   0.385E+00    0.630E-01
DAV:   3    -0.135618828059E+04   -0.13816E-01   -0.21014E-01  2608   0.774E-01    0.513E-01
DAV:   4    -0.135618423871E+04    0.40419E-02   -0.23940E-02  2584   0.369E-01    0.324E-01
DAV:   5    -0.135618217021E+04    0.20685E-02   -0.10683E-02  2408   0.208E-01    0.130E-01
DAV:   6    -0.135618246471E+04   -0.29450E-03   -0.54863E-03  2472   0.143E-01    0.999E-02
DAV:   7    -0.135618244619E+04    0.18522E-04   -0.23890E-03  2480   0.945E-02    0.721E-02
DAV:   8    -0.135618245085E+04   -0.46628E-05   -0.98992E-04  2592   0.577E-02    0.427E-02
DAV:   9    -0.135618243815E+04    0.12695E-04   -0.19421E-04  2528   0.300E-02    0.315E-02
DAV:  10    -0.135618243950E+04   -0.13445E-05   -0.16409E-04  2528   0.223E-02    0.196E-02
DAV:  11    -0.135618243734E+04    0.21598E-05   -0.54331E-05  2336   0.156E-02    0.818E-03
DAV:  12    -0.135618243849E+04   -0.11537E-05   -0.18774E-05  2136   0.994E-03    0.772E-03
DAV:  13    -0.135618243793E+04    0.55978E-06   -0.75493E-06  1584   0.594E-03
  10 F= -.13561824E+04 E0= -.13561824E+04  d E =-.528231E+00
 BRION: g(F)=  0.432E+00 g(S)=  0.000E+00 retain N=  8 mean eig= 1.55
 eig:   3.520  3.520  1.694  1.694  0.261  0.261  0.709  0.709
 bond charge predicted
       N       E                     dE             d eps       ncg     rms          rms(c)
DAV:   1    -0.135638276734E+04   -0.20033E+00   -0.78375E+01  1392   0.126E+01    0.156E+00
DAV:   2    -0.135680056932E+04   -0.41780E+00   -0.44422E+00  2288   0.498E+00    0.788E-01
DAV:   3    -0.135682477377E+04   -0.24204E-01   -0.35624E-01  2608   0.995E-01    0.640E-01
DAV:   4    -0.135681870856E+04    0.60652E-02   -0.37816E-02  2600   0.472E-01    0.426E-01
DAV:   5    -0.135681479396E+04    0.39146E-02   -0.16808E-02  2440   0.252E-01    0.176E-01
DAV:   6    -0.135681501830E+04   -0.22435E-03   -0.91876E-03  2448   0.183E-01    0.118E-01
DAV:   7    -0.135681508407E+04   -0.65763E-04   -0.44178E-03  2456   0.126E-01    0.924E-02
DAV:   8    -0.135681508501E+04   -0.94004E-06   -0.16031E-03  2600   0.755E-02    0.595E-02
DAV:   9    -0.135681505823E+04    0.26775E-04   -0.38120E-04  2552   0.404E-02    0.408E-02
DAV:  10    -0.135681505958E+04   -0.13463E-05   -0.22720E-04  2568   0.264E-02    0.241E-02
DAV:  11    -0.135681506023E+04   -0.64922E-06   -0.73955E-05  2448   0.181E-02    0.133E-02
DAV:  12    -0.135681505992E+04    0.30277E-06   -0.33249E-05  2312   0.127E-02    0.108E-02
DAV:  13    -0.135681505923E+04    0.69414E-06   -0.19370E-05  2096   0.806E-03    0.551E-03
DAV:  14    -0.135681505924E+04   -0.14305E-07   -0.66450E-06  1544   0.559E-03
  11 F= -.13568151E+04 E0= -.13568151E+04  d E =-.632621E+00
 BRION: g(F)=  0.271E+00 g(S)=  0.000E+00 retain N=  9 mean eig= 2.16
 eig:   4.818  4.818  3.451  3.451  0.583  0.583  0.736  0.485  0.485
 bond charge predicted
       N       E                     dE             d eps       ncg     rms          rms(c)
DAV:   1    -0.135701922820E+04   -0.20417E+00   -0.36676E+01  1384   0.865E+00    0.108E+00
DAV:   2    -0.135721970029E+04   -0.20047E+00   -0.21295E+00  2296   0.351E+00    0.555E-01
DAV:   3    -0.135723113805E+04   -0.11438E-01   -0.17043E-01  2624   0.689E-01    0.452E-01
DAV:   4    -0.135722806263E+04    0.30754E-02   -0.18451E-02  2608   0.329E-01    0.299E-01
DAV:   5    -0.135722604207E+04    0.20206E-02   -0.77734E-03  2408   0.177E-01    0.122E-01
DAV:   6    -0.135722616834E+04   -0.12626E-03   -0.47304E-03  2432   0.128E-01    0.777E-02
DAV:   7    -0.135722619815E+04   -0.29819E-04   -0.19416E-03  2432   0.838E-02    0.623E-02
DAV:   8    -0.135722619515E+04    0.30009E-05   -0.68924E-04  2592   0.497E-02    0.367E-02
DAV:   9    -0.135722618858E+04    0.65688E-05   -0.17927E-04  2560   0.273E-02    0.249E-02
DAV:  10    -0.135722619140E+04   -0.28157E-05   -0.80598E-05  2560   0.170E-02    0.162E-02
DAV:  11    -0.135722619093E+04    0.47378E-06   -0.32436E-05  2296   0.118E-02    0.840E-03
DAV:  12    -0.135722619084E+04    0.88156E-07   -0.15000E-05  1992   0.889E-03    0.670E-03
DAV:  13    -0.135722619062E+04    0.21883E-06   -0.74362E-06  1616   0.550E-03
  12 F= -.13572262E+04 E0= -.13572262E+04  d E =-.411131E+00
 BRION: g(F)=  0.210E+00 g(S)=  0.000E+00 retain N= 10 mean eig= 2.52
 eig:   6.394  6.394  4.198  4.198  1.004  1.004  0.548  0.548  0.458  0.458
 bond charge predicted
       N       E                     dE             d eps       ncg     rms          rms(c)
DAV:   1    -0.135740492572E+04   -0.17873E+00   -0.33973E+01  1384   0.828E+00    0.103E+00
DAV:   2    -0.135758799747E+04   -0.18307E+00   -0.19350E+00  2296   0.334E+00    0.518E-01
DAV:   3    -0.135759852688E+04   -0.10529E-01   -0.15352E-01  2624   0.647E-01    0.421E-01
DAV:   4    -0.135759577312E+04    0.27538E-02   -0.15619E-02  2608   0.304E-01    0.285E-01
DAV:   5    -0.135759367048E+04    0.21026E-02   -0.73542E-03  2376   0.174E-01    0.110E-01
DAV:   6    -0.135759387941E+04   -0.20893E-03   -0.47987E-03  2448   0.126E-01    0.829E-02
DAV:   7    -0.135759387270E+04    0.67147E-05   -0.16967E-03  2464   0.785E-02    0.626E-02
DAV:   8    -0.135759386411E+04    0.85861E-05   -0.66157E-04  2592   0.481E-02    0.347E-02
DAV:   9    -0.135759385500E+04    0.91101E-05   -0.15105E-04  2472   0.253E-02    0.233E-02
DAV:  10    -0.135759385730E+04   -0.22992E-05   -0.72112E-05  2528   0.163E-02    0.138E-02
DAV:  11    -0.135759385710E+04    0.19626E-06   -0.23523E-05  2312   0.108E-02    0.740E-03
DAV:  12    -0.135759385740E+04   -0.29302E-06   -0.11814E-05  1864   0.792E-03    0.671E-03
DAV:  13    -0.135759385675E+04    0.64079E-06   -0.39524E-06  1216   0.551E-03
  13 F= -.13575939E+04 E0= -.13575939E+04  d E =-.367666E+00
 BRION: g(F)=  0.189E+00 g(S)=  0.000E+00 retain N= 11 mean eig= 2.67
 eig:   7.255  7.255  3.778  3.778  2.330  2.330  0.301  0.301  0.603  0.603
 bond charge predicted
       N       E                     dE             d eps       ncg     rms          rms(c)
DAV:   1    -0.135774137661E+04   -0.14752E+00   -0.56084E+01  1392   0.107E+01    0.128E+00
DAV:   2    -0.135803887350E+04   -0.29750E+00   -0.31454E+00  2288   0.426E+00    0.646E-01
DAV:   3    -0.135805666114E+04   -0.17788E-01   -0.25342E-01  2600   0.830E-01    0.524E-01
DAV:   4    -0.135805274041E+04    0.39207E-02   -0.24033E-02  2592   0.378E-01    0.371E-01
DAV:   5    -0.135804901684E+04    0.37236E-02   -0.12496E-02  2336   0.222E-01    0.146E-01
DAV:   6    -0.135804930673E+04   -0.28988E-03   -0.84173E-03  2416   0.166E-01    0.112E-01
DAV:   7    -0.135804929361E+04    0.13118E-04   -0.31533E-03  2456   0.106E-01    0.825E-02
DAV:   8    -0.135804927392E+04    0.19694E-04   -0.11940E-03  2584   0.663E-02    0.473E-02
DAV:   9    -0.135804925798E+04    0.15941E-04   -0.25720E-04  2472   0.334E-02    0.315E-02
DAV:  10    -0.135804926043E+04   -0.24552E-05   -0.11432E-04  2520   0.198E-02    0.162E-02
DAV:  11    -0.135804926174E+04   -0.13118E-05   -0.33786E-05  2400   0.131E-02    0.970E-03
DAV:  12    -0.135804926194E+04   -0.19808E-06   -0.18224E-05  2272   0.952E-03    0.889E-03
DAV:  13    -0.135804926130E+04    0.64533E-06   -0.10281E-05  1760   0.626E-03    0.479E-03
DAV:  14    -0.135804926106E+04    0.23018E-06   -0.28619E-06  1104   0.495E-03
  14 F= -.13580493E+04 E0= -.13580493E+04  d E =-.455404E+00
 BRION: g(F)=  0.166E+00 g(S)=  0.000E+00 retain N= 11 mean eig= 2.56
 eig:   5.899  5.899  3.543  3.543  2.580  2.580  0.674  0.674  1.061  1.061
 bond charge predicted
       N       E                     dE             d eps       ncg     rms          rms(c)
DAV:   1    -0.135820356638E+04   -0.15431E+00   -0.45990E+01  1392   0.966E+00    0.113E+00
DAV:   2    -0.135844518851E+04   -0.24162E+00   -0.25518E+00  2288   0.380E+00    0.582E-01
DAV:   3    -0.135845963365E+04   -0.14445E-01   -0.20672E-01  2600   0.748E-01    0.470E-01
DAV:   4    -0.135845657524E+04    0.30584E-02   -0.19571E-02  2600   0.338E-01    0.335E-01
DAV:   5    -0.135845340176E+04    0.31735E-02   -0.96092E-03  2312   0.197E-01    0.136E-01
DAV:   6    -0.135845353464E+04   -0.13287E-03   -0.70821E-03  2368   0.152E-01    0.957E-02
DAV:   7    -0.135845355311E+04   -0.18471E-04   -0.26294E-03  2456   0.957E-02    0.743E-02
DAV:   8    -0.135845353605E+04    0.17062E-04   -0.93255E-04  2576   0.593E-02    0.424E-02
DAV:   9    -0.135845352364E+04    0.12402E-04   -0.23309E-04  2496   0.308E-02    0.275E-02
DAV:  10    -0.135845352677E+04   -0.31279E-05   -0.82991E-05  2536   0.175E-02    0.163E-02
DAV:  11    -0.135845352702E+04   -0.24321E-06   -0.28731E-05  2368   0.117E-02    0.960E-03
DAV:  12    -0.135845352701E+04    0.90076E-08   -0.17594E-05  2176   0.919E-03    0.835E-03
DAV:  13    -0.135845352650E+04    0.50222E-06   -0.91620E-06  1744   0.610E-03
  15 F= -.13584535E+04 E0= -.13584535E+04  d E =-.404265E+00
 BRION: g(F)=  0.151E+00 g(S)=  0.000E+00 retain N=  8 mean eig= 3.44
 eig:   7.882  7.882  3.662  3.662  1.326  1.326  0.877  0.877
 bond charge predicted
       N       E                     dE             d eps       ncg     rms          rms(c)
DAV:   1    -0.135860103448E+04   -0.14751E+00   -0.25750E+01  1392   0.721E+00    0.847E-01
DAV:   2    -0.135873285067E+04   -0.13182E+00   -0.13882E+00  2280   0.280E+00    0.428E-01
DAV:   3    -0.135874072225E+04   -0.78716E-02   -0.11266E-01  2592   0.562E-01    0.344E-01
DAV:   4    -0.135873894718E+04    0.17751E-02   -0.10628E-02  2592   0.248E-01    0.243E-01
DAV:   5    -0.135873722275E+04    0.17244E-02   -0.57607E-03  2304   0.151E-01    0.930E-02
DAV:   6    -0.135873738271E+04   -0.15996E-03   -0.38384E-03  2440   0.113E-01    0.759E-02
DAV:   7    -0.135873736630E+04    0.16415E-04   -0.13191E-03  2448   0.682E-02    0.532E-02
DAV:   8    -0.135873735918E+04    0.71121E-05   -0.48264E-04  2544   0.421E-02    0.290E-02
DAV:   9    -0.135873735436E+04    0.48247E-05   -0.10006E-04  2448   0.210E-02    0.199E-02
DAV:  10    -0.135873735520E+04   -0.84516E-06   -0.41474E-05  2512   0.125E-02    0.107E-02
DAV:  11    -0.135873735535E+04   -0.14457E-06   -0.14417E-05  2048   0.870E-03    0.551E-03
DAV:  12    -0.135873735565E+04   -0.30157E-06   -0.76817E-06  1680   0.617E-03
  16 F= -.13587374E+04 E0= -.13587374E+04  d E =-.283829E+00
 BRION: g(F)=  0.139E+00 g(S)=  0.000E+00 retain N=  7 mean eig= 3.67
 eig:   7.217  7.217  3.517  3.517  1.521  1.521  1.193
 bond charge predicted
       N       E                     dE             d eps       ncg     rms          rms(c)
DAV:   1    -0.135889599479E+04   -0.15864E+00   -0.17571E+01  1392   0.598E+00    0.705E-01
DAV:   2    -0.135898609221E+04   -0.90097E-01   -0.95462E-01  2280   0.233E+00    0.358E-01
DAV:   3    -0.135899183661E+04   -0.57444E-02   -0.80995E-02  2592   0.482E-01    0.288E-01
DAV:   4    -0.135899064622E+04    0.11904E-02   -0.77135E-03  2584   0.211E-01    0.203E-01
DAV:   5    -0.135898950749E+04    0.11387E-02   -0.43317E-03  2312   0.131E-01    0.805E-02
DAV:   6    -0.135898961033E+04   -0.10284E-03   -0.27182E-03  2432   0.996E-02    0.692E-02
DAV:   7    -0.135898959544E+04    0.14896E-04   -0.11729E-03  2440   0.635E-02    0.471E-02
DAV:   8    -0.135898959149E+04    0.39459E-05   -0.39259E-04  2528   0.383E-02    0.266E-02
DAV:   9    -0.135898958785E+04    0.36414E-05   -0.73144E-05  2512   0.184E-02    0.187E-02
DAV:  10    -0.135898958802E+04   -0.17116E-06   -0.39047E-05  2456   0.113E-02    0.945E-03
DAV:  11    -0.135898958825E+04   -0.22608E-06   -0.12318E-05  1960   0.841E-03    0.483E-03
DAV:  12    -0.135898958843E+04   -0.18252E-06   -0.56939E-06  1488   0.580E-03
  17 F= -.13589896E+04 E0= -.13589896E+04  d E =-.252233E+00
 BRION: g(F)=  0.133E+00 g(S)=  0.000E+00 retain N=  4 mean eig= 3.84
 eig:   6.102  6.102  1.573  1.573
 bond charge predicted
       N       E                     dE             d eps       ncg     rms          rms(c)
DAV:   1    -0.135914557187E+04   -0.15598E+00   -0.23869E+01  1384   0.696E+00    0.815E-01
DAV:   2    -0.135926847507E+04   -0.12290E+00   -0.12992E+00  2288   0.271E+00    0.415E-01
DAV:   3    -0.135927601371E+04   -0.75386E-02   -0.10718E-01  2576   0.549E-01    0.332E-01
DAV:   4    -0.135927440565E+04    0.16081E-02   -0.10562E-02  2584   0.244E-01    0.232E-01
DAV:   5    -0.135927293932E+04    0.14663E-02   -0.54610E-03  2320   0.145E-01    0.893E-02
DAV:   6    -0.135927307281E+04   -0.13349E-03   -0.32172E-03  2464   0.104E-01    0.702E-02
DAV:   7    -0.135927306292E+04    0.98866E-05   -0.11841E-03  2488   0.648E-02    0.473E-02
DAV:   8    -0.135927306180E+04    0.11220E-05   -0.42147E-04  2544   0.398E-02    0.278E-02
DAV:   9    -0.135927305858E+04    0.32210E-05   -0.84412E-05  2496   0.194E-02    0.195E-02
DAV:  10    -0.135927305905E+04   -0.46701E-06   -0.36380E-05  2560   0.115E-02    0.102E-02
DAV:  11    -0.135927305951E+04   -0.46680E-06   -0.12854E-05  1992   0.817E-03    0.565E-03
DAV:  12    -0.135927305950E+04    0.13242E-07   -0.56848E-06  1504   0.596E-03
  18 F= -.13592731E+04 E0= -.13592731E+04  d E =-.283471E+00
 BRION: g(F)=  0.127E+00 g(S)=  0.000E+00 retain N=  4 mean eig= 4.32
 eig:   7.229  7.229  1.416  1.416
 bond charge predicted
       N       E                     dE             d eps       ncg     rms          rms(c)
DAV:   1    -0.135940951435E+04   -0.13645E+00   -0.87647E+00  1368   0.420E+00    0.494E-01
DAV:   2    -0.135945497532E+04   -0.45461E-01   -0.48119E-01  2272   0.165E+00    0.255E-01
DAV:   3    -0.135945777254E+04   -0.27972E-02   -0.39865E-02  2584   0.338E-01    0.202E-01
DAV:   4    -0.135945715843E+04    0.61411E-03   -0.39305E-03  2584   0.150E-01    0.141E-01
DAV:   5    -0.135945661192E+04    0.54651E-03   -0.19981E-03  2352   0.892E-02    0.546E-02
DAV:   6    -0.135945665539E+04   -0.43470E-04   -0.12126E-03  2440   0.639E-02    0.422E-02
DAV:   7    -0.135945665491E+04    0.48580E-06   -0.43772E-04  2464   0.395E-02    0.293E-02
DAV:   8    -0.135945665426E+04    0.64317E-06   -0.15444E-04  2552   0.238E-02    0.168E-02
DAV:   9    -0.135945665294E+04    0.13205E-05   -0.32748E-05  2448   0.121E-02    0.117E-02
DAV:  10    -0.135945665305E+04   -0.10642E-06   -0.12440E-05  1920   0.741E-03    0.629E-03
DAV:  11    -0.135945665279E+04    0.25948E-06   -0.21174E-06   992   0.572E-03
  19 F= -.13594567E+04 E0= -.13594567E+04  d E =-.183593E+00
 BRION: g(F)=  0.124E+00 g(S)=  0.000E+00 retain N=  4 mean eig= 2.92
 eig:   4.702  4.702  1.130  1.130
 bond charge predicted
       N       E                     dE             d eps       ncg     rms          rms(c)
DAV:   1    -0.135959562389E+04   -0.13897E+00   -0.94259E+00  1384   0.438E+00    0.521E-01
DAV:   2    -0.135964454058E+04   -0.48917E-01   -0.51835E-01  2280   0.172E+00    0.266E-01
DAV:   3    -0.135964760211E+04   -0.30615E-02   -0.43534E-02  2584   0.354E-01    0.211E-01
DAV:   4    -0.135964693337E+04    0.66874E-03   -0.43809E-03  2576   0.157E-01    0.145E-01
DAV:   5    -0.135964640920E+04    0.52416E-03   -0.21858E-03  2360   0.915E-02    0.574E-02
DAV:   6    -0.135964645757E+04   -0.48370E-04   -0.11990E-03  2488   0.644E-02    0.436E-02
DAV:   7    -0.135964645334E+04    0.42295E-05   -0.47663E-04  2472   0.419E-02    0.295E-02
DAV:   8    -0.135964645477E+04   -0.14269E-05   -0.18108E-04  2568   0.257E-02    0.187E-02
DAV:   9    -0.135964645296E+04    0.18069E-05   -0.32436E-05  2480   0.123E-02    0.128E-02
DAV:  10    -0.135964645265E+04    0.30987E-06   -0.13581E-05  1960   0.733E-03    0.640E-03
DAV:  11    -0.135964645263E+04    0.23836E-07   -0.21221E-06  1008   0.558E-03
  20 F= -.13596465E+04 E0= -.13596465E+04  d E =-.189800E+00
 BRION: g(F)=  0.119E+00 g(S)=  0.000E+00 retain N=  4 mean eig= 3.41
 eig:   5.539  5.539  1.276  1.276
