 running on  160 total cores
 distrk:  each k-point on  160 cores,    1 groups
 distr:  one band on   20 cores,    8 groups
 using from now: INCAR     
 vasp.5.4.4.18Apr17-6-g9f103f2a35 (build May 01 2020 14:22:42) gamma-only       
  
 POSCAR found type information on POSCAR  O  La Zr Li Al
 POSCAR found :  5 types and     186 ions
 scaLAPACK will be used
 LDA part: xc-table for Pade appr. of Perdew
 POSCAR, INCAR and KPOINTS ok, starting setup
 FFT: planning ...
 WAVECAR not read
 WARNING: random wavefunctions but no delay for mixing, default for NELMDL
 entering main loop
       N       E                     dE             d eps       ncg     rms          rms(c)
DAV:   1     0.253189432720E+05    0.25319E+05   -0.42112E+05  1592   0.253E+03
DAV:   2     0.946731833533E+04   -0.15852E+05   -0.14573E+05  1416   0.708E+02
DAV:   3     0.269879998956E+04   -0.67685E+04   -0.61807E+04  1520   0.356E+02
DAV:   4    -0.358427984033E+03   -0.30572E+04   -0.28513E+04  2048   0.224E+02
DAV:   5    -0.140544841957E+04   -0.10470E+04   -0.10091E+04  2528   0.142E+02    0.117E+02
DAV:   6    -0.129272640035E+04    0.11272E+03   -0.14465E+03  2440   0.662E+01    0.501E+01
DAV:   7    -0.131528731239E+04   -0.22561E+02   -0.38962E+02  2576   0.343E+01    0.257E+01
DAV:   8    -0.132170586046E+04   -0.64185E+01   -0.24581E+02  2544   0.264E+01    0.246E+01
DAV:   9    -0.131653472773E+04    0.51711E+01   -0.45263E+01  2544   0.142E+01    0.811E+00
DAV:  10    -0.131718855439E+04   -0.65383E+00   -0.17123E+01  2616   0.766E+00    0.673E+00
DAV:  11    -0.131758274634E+04   -0.39419E+00   -0.46147E+00  2624   0.400E+00    0.436E+00
DAV:  12    -0.131746403105E+04    0.11872E+00   -0.19722E+00  2576   0.313E+00    0.335E+00
DAV:  13    -0.131747497514E+04   -0.10944E-01   -0.10512E+00  2568   0.189E+00    0.227E+00
DAV:  14    -0.131746487416E+04    0.10101E-01   -0.19122E-01  2600   0.957E-01    0.139E+00
DAV:  15    -0.131746478839E+04    0.85767E-04   -0.82401E-02  2560   0.548E-01    0.915E-01
DAV:  16    -0.131746463998E+04    0.14841E-03   -0.29033E-02  2600   0.312E-01    0.573E-01
DAV:  17    -0.131746500021E+04   -0.36023E-03   -0.13774E-02  2440   0.240E-01    0.330E-01
DAV:  18    -0.131746493057E+04    0.69639E-04   -0.43866E-03  2408   0.130E-01    0.149E-01
DAV:  19    -0.131746493573E+04   -0.51627E-05   -0.27816E-03  2552   0.103E-01    0.992E-02
DAV:  20    -0.131746497304E+04   -0.37311E-04   -0.64104E-04  2536   0.461E-02    0.371E-02
DAV:  21    -0.131746498633E+04   -0.13283E-04   -0.20312E-04  2600   0.292E-02    0.463E-02
DAV:  22    -0.131746499874E+04   -0.12415E-04   -0.74313E-05  2528   0.151E-02    0.139E-02
DAV:  23    -0.131746499688E+04    0.18665E-05   -0.28249E-05  2040   0.108E-02    0.130E-02
DAV:  24    -0.131746499967E+04   -0.27926E-05   -0.77873E-06  1080   0.661E-03    0.465E-03
DAV:  25    -0.131746499919E+04    0.47994E-06   -0.82633E-06  1392   0.610E-03
   1 F= -.13174650E+04 E0= -.13174572E+04  d E =-.131746E+04
 BRION: g(F)=  0.694E+02 g(S)=  0.000E+00
 bond charge predicted
       N       E                     dE             d eps       ncg     rms          rms(c)
DAV:   1    -0.125608219456E+04    0.61383E+02   -0.10086E+04  1696   0.150E+02    0.379E+01
DAV:   2    -0.134257823518E+04   -0.86496E+02   -0.98338E+02  2568   0.691E+01    0.183E+01
DAV:   3    -0.133901147759E+04    0.35668E+01   -0.54423E+01  2616   0.184E+01    0.118E+01
DAV:   4    -0.133582280525E+04    0.31887E+01   -0.23838E+01  2400   0.982E+00    0.545E+00
DAV:   5    -0.133576461577E+04    0.58189E-01   -0.65928E+00  2528   0.543E+00    0.408E+00
DAV:   6    -0.133561916955E+04    0.14545E+00   -0.40514E+00  2600   0.343E+00    0.218E+00
DAV:   7    -0.133558101702E+04    0.38153E-01   -0.48467E-01  2496   0.190E+00    0.141E+00
DAV:   8    -0.133557626393E+04    0.47531E-02   -0.65031E-01  2440   0.134E+00    0.818E-01
DAV:   9    -0.133557658276E+04   -0.31883E-03   -0.96048E-02  2488   0.661E-01    0.653E-01
DAV:  10    -0.133557318476E+04    0.33980E-02   -0.47624E-02  2512   0.381E-01    0.283E-01
DAV:  11    -0.133557396255E+04   -0.77779E-03   -0.26079E-02  2576   0.268E-01    0.190E-01
DAV:  12    -0.133557388316E+04    0.79394E-04   -0.43557E-03  2448   0.148E-01    0.129E-01
DAV:  13    -0.133557378891E+04    0.94247E-04   -0.26649E-03  2504   0.854E-02    0.352E-02
DAV:  14    -0.133557381905E+04   -0.30142E-04   -0.40984E-04  2624   0.423E-02    0.182E-02
DAV:  15    -0.133557382855E+04   -0.95003E-05   -0.11472E-04  2616   0.222E-02    0.119E-02
DAV:  16    -0.133557382931E+04   -0.76108E-06   -0.37014E-05  2624   0.137E-02    0.687E-03
DAV:  17    -0.133557383083E+04   -0.15170E-05   -0.15754E-05  2144   0.829E-03    0.507E-03
DAV:  18    -0.133557383096E+04   -0.13127E-06   -0.22076E-06  1096   0.474E-03
   2 F= -.13355738E+04 E0= -.13355738E+04  d E =-.181088E+02
 BRION: g(F)=  0.144E+03 g(S)=  0.000E+00 retain N=  1 mean eig= 0.37
 eig:   0.374
 bond charge predicted
       N       E                     dE             d eps       ncg     rms          rms(c)
DAV:   1    -0.131828338773E+04    0.17290E+02   -0.26920E+03  1320   0.663E+01    0.239E+01
DAV:   2    -0.135126298635E+04   -0.32980E+02   -0.42855E+02  2544   0.357E+01    0.214E+01
DAV:   3    -0.134798054523E+04    0.32824E+01   -0.45188E+01  2584   0.138E+01    0.164E+01
DAV:   4    -0.134493028513E+04    0.30503E+01   -0.46027E+01  2144   0.707E+00    0.826E+00
DAV:   5    -0.134627826305E+04   -0.13480E+01   -0.12702E+01  2448   0.437E+00    0.103E+01
DAV:   6    -0.134447488891E+04    0.18034E+01   -0.20661E+01  2424   0.392E+00    0.227E+00
DAV:   7    -0.134459988683E+04   -0.12500E+00   -0.22805E+00  2520   0.331E+00    0.220E+00
DAV:   8    -0.134451440561E+04    0.85481E-01   -0.73769E-01  2504   0.139E+00    0.725E-01
DAV:   9    -0.134451711690E+04   -0.27113E-02   -0.14479E-01  2496   0.683E-01    0.390E-01
DAV:  10    -0.134451964334E+04   -0.25264E-02   -0.40876E-02  2368   0.354E-01    0.415E-01
DAV:  11    -0.134451815161E+04    0.14917E-02   -0.93796E-03  2584   0.203E-01    0.337E-01
DAV:  12    -0.134451604938E+04    0.21022E-02   -0.12711E-02  2368   0.162E-01    0.914E-02
DAV:  13    -0.134451632761E+04   -0.27823E-03   -0.49848E-03  2456   0.110E-01    0.711E-02
DAV:  14    -0.134451633834E+04   -0.10733E-04   -0.67673E-04  2576   0.534E-02    0.516E-02
DAV:  15    -0.134451631396E+04    0.24382E-04   -0.18707E-04  2624   0.251E-02    0.247E-02
DAV:  16    -0.134451631541E+04   -0.14500E-05   -0.14754E-04  2480   0.207E-02    0.120E-02
DAV:  17    -0.134451631589E+04   -0.48455E-06   -0.18404E-05  2184   0.107E-02    0.926E-03
DAV:  18    -0.134451631504E+04    0.84702E-06   -0.13594E-05  1704   0.597E-03    0.410E-03
DAV:  19    -0.134451631498E+04    0.68540E-07   -0.13378E-06  1056   0.406E-03
   3 F= -.13445163E+04 E0= -.13445163E+04  d E =-.894248E+01
 BRION: g(F)=  0.181E+02 g(S)=  0.000E+00 retain N=  2 mean eig= 1.73
 eig:   0.216  3.239
 bond charge predicted
       N       E                     dE             d eps       ncg     rms          rms(c)
DAV:   1    -0.134384383730E+04    0.67248E+00   -0.83973E+02  1408   0.361E+01    0.865E+00
DAV:   2    -0.134916090320E+04   -0.53171E+01   -0.62979E+01  2384   0.159E+01    0.467E+00
DAV:   3    -0.134903980824E+04    0.12109E+00   -0.41977E+00  2600   0.475E+00    0.387E+00
DAV:   4    -0.134881770867E+04    0.22210E+00   -0.18208E+00  2344   0.217E+00    0.178E+00
DAV:   5    -0.134881681197E+04    0.89670E-03   -0.52873E-01  2472   0.139E+00    0.169E+00
DAV:   6    -0.134877711471E+04    0.39697E-01   -0.42907E-01  2496   0.119E+00    0.652E-01
DAV:   7    -0.134877987194E+04   -0.27572E-02   -0.14598E-01  2440   0.662E-01    0.613E-01
DAV:   8    -0.134877842958E+04    0.14424E-02   -0.34369E-02  2624   0.322E-01    0.413E-01
DAV:   9    -0.134877589374E+04    0.25358E-02   -0.14949E-02  2504   0.215E-01    0.184E-01
DAV:  10    -0.134877664408E+04   -0.75034E-03   -0.13367E-02  2480   0.168E-01    0.172E-01
DAV:  11    -0.134877615888E+04    0.48520E-03   -0.17544E-03  2544   0.956E-02    0.820E-02
DAV:  12    -0.134877616153E+04   -0.26469E-05   -0.15717E-03  2520   0.575E-02    0.320E-02
DAV:  13    -0.134877617274E+04   -0.11208E-04   -0.15428E-04  2496   0.280E-02    0.204E-02
DAV:  14    -0.134877616922E+04    0.35219E-05   -0.37937E-05  2528   0.114E-02    0.122E-02
DAV:  15    -0.134877616913E+04    0.89072E-07   -0.15265E-05  2112   0.809E-03    0.513E-03
DAV:  16    -0.134877616883E+04    0.29652E-06   -0.26965E-06  1144   0.429E-03
   4 F= -.13487762E+04 E0= -.13487762E+04  d E =-.425985E+01
 BRION: g(F)=  0.612E+01 g(S)=  0.000E+00 retain N=  3 mean eig= 2.85
 eig:   7.786  0.382  0.382
 bond charge predicted
       N       E                     dE             d eps       ncg     rms          rms(c)
DAV:   1    -0.135024770011E+04   -0.14715E+01   -0.27291E+02  1368   0.226E+01    0.391E+00
DAV:   2    -0.135161321913E+04   -0.13655E+01   -0.14568E+01  2288   0.828E+00    0.206E+00
DAV:   3    -0.135162503360E+04   -0.11814E-01   -0.94087E-01  2600   0.181E+00    0.164E+00
DAV:   4    -0.135157500404E+04    0.50030E-01   -0.34148E-01  2432   0.114E+00    0.718E-01
DAV:   5    -0.135157549896E+04   -0.49493E-03   -0.10064E-01  2480   0.670E-01    0.609E-01
DAV:   6    -0.135157299028E+04    0.25087E-02   -0.84994E-02  2448   0.478E-01    0.247E-01
DAV:   7    -0.135157284769E+04    0.14259E-03   -0.12291E-02  2472   0.243E-01    0.190E-01
DAV:   8    -0.135157269292E+04    0.15477E-03   -0.61821E-03  2440   0.130E-01    0.728E-02
DAV:   9    -0.135157276328E+04   -0.70355E-04   -0.14727E-03  2600   0.767E-02    0.685E-02
DAV:  10    -0.135157272656E+04    0.36711E-04   -0.53525E-04  2560   0.443E-02    0.348E-02
DAV:  11    -0.135157273216E+04   -0.55945E-05   -0.31520E-04  2592   0.314E-02    0.205E-02
DAV:  12    -0.135157273084E+04    0.13238E-05   -0.49494E-05  2552   0.150E-02    0.128E-02
DAV:  13    -0.135157273088E+04   -0.41196E-07   -0.25724E-05  2424   0.946E-03    0.595E-03
DAV:  14    -0.135157273097E+04   -0.96145E-07   -0.68097E-06  1616   0.589E-03
   5 F= -.13515727E+04 E0= -.13515727E+04  d E =-.279656E+01
 BRION: g(F)=  0.314E+01 g(S)=  0.000E+00 retain N=  4 mean eig= 2.30
 eig:   7.836  0.458  0.461  0.461
 bond charge predicted
       N       E                     dE             d eps       ncg     rms          rms(c)
DAV:   1    -0.135253390763E+04   -0.96118E+00   -0.22486E+02  1360   0.207E+01    0.308E+00
DAV:   2    -0.135358439111E+04   -0.10505E+01   -0.11211E+01  2256   0.751E+00    0.157E+00
DAV:   3    -0.135361390125E+04   -0.29510E-01   -0.78577E-01  2592   0.163E+00    0.132E+00
DAV:   4    -0.135358116889E+04    0.32732E-01   -0.14268E-01  2544   0.804E-01    0.744E-01
DAV:   5    -0.135357118443E+04    0.99845E-02   -0.83653E-02  2336   0.574E-01    0.403E-01
DAV:   6    -0.135357183068E+04   -0.64625E-03   -0.40521E-02  2520   0.389E-01    0.303E-01
DAV:   7    -0.135357131451E+04    0.51617E-03   -0.16071E-02  2520   0.229E-01    0.182E-01
DAV:   8    -0.135357120082E+04    0.11370E-03   -0.34081E-03  2584   0.116E-01    0.955E-02
DAV:   9    -0.135357117384E+04    0.26977E-04   -0.11303E-03  2600   0.623E-02    0.646E-02
DAV:  10    -0.135357118410E+04   -0.10261E-04   -0.53819E-04  2256   0.421E-02    0.505E-02
DAV:  11    -0.135357115426E+04    0.29835E-04   -0.30392E-04  2336   0.315E-02    0.202E-02
DAV:  12    -0.135357115881E+04   -0.45499E-05   -0.13602E-04  2336   0.211E-02    0.172E-02
DAV:  13    -0.135357115715E+04    0.16661E-05   -0.42171E-05  2328   0.130E-02    0.113E-02
DAV:  14    -0.135357115674E+04    0.40531E-06   -0.28166E-05  1952   0.863E-03    0.478E-03
DAV:  15    -0.135357115659E+04    0.15409E-06   -0.23503E-06  1104   0.542E-03
   6 F= -.13535712E+04 E0= -.13535712E+04  d E =-.199843E+01
 BRION: g(F)=  0.224E+01 g(S)=  0.000E+00 retain N=  5 mean eig= 2.25
 eig:   7.876  1.411  0.637  0.637  0.704
 bond charge predicted
       N       E                     dE             d eps       ncg     rms          rms(c)
DAV:   1    -0.135384094415E+04   -0.26979E+00   -0.39156E+02  1344   0.277E+01    0.373E+00
DAV:   2    -0.135590943334E+04   -0.20685E+01   -0.21627E+01  2296   0.104E+01    0.201E+00
DAV:   3    -0.135597912271E+04   -0.69689E-01   -0.14685E+00  2576   0.216E+00    0.172E+00
DAV:   4    -0.135593867225E+04    0.40450E-01   -0.21807E-01  2552   0.967E-01    0.110E+00
DAV:   5    -0.135590982123E+04    0.28851E-01   -0.12839E-01  2296   0.678E-01    0.436E-01
DAV:   6    -0.135591425182E+04   -0.44306E-02   -0.71395E-02  2472   0.477E-01    0.470E-01
DAV:   7    -0.135591201268E+04    0.22391E-02   -0.22688E-02  2568   0.295E-01    0.291E-01
DAV:   8    -0.135591146217E+04    0.55051E-03   -0.11978E-02  2536   0.186E-01    0.108E-01
DAV:   9    -0.135591148018E+04   -0.18011E-04   -0.13802E-03  2416   0.820E-02    0.800E-02
DAV:  10    -0.135591150071E+04   -0.20530E-04   -0.50143E-04  2368   0.402E-02    0.400E-02
DAV:  11    -0.135591149807E+04    0.26350E-05   -0.14747E-04  2600   0.276E-02    0.252E-02
DAV:  12    -0.135591149991E+04   -0.18371E-05   -0.12582E-04  2496   0.193E-02    0.207E-02
DAV:  13    -0.135591149592E+04    0.39918E-05   -0.43906E-05  2360   0.129E-02    0.102E-02
DAV:  14    -0.135591149624E+04   -0.32465E-06   -0.98840E-06  1760   0.660E-03
   7 F= -.13559115E+04 E0= -.13559115E+04  d E =-.234034E+01
 BRION: g(F)=  0.107E+01 g(S)=  0.000E+00 retain N=  5 mean eig= 0.89
 eig:   1.657  1.657  0.469  0.334  0.334
 bond charge predicted
       N       E                     dE             d eps       ncg     rms          rms(c)
DAV:   1    -0.135627285382E+04   -0.36136E+00   -0.12491E+02  1368   0.158E+01    0.218E+00
DAV:   2    -0.135690097336E+04   -0.62812E+00   -0.66349E+00  2288   0.609E+00    0.113E+00
DAV:   3    -0.135692549902E+04   -0.24526E-01   -0.48834E-01  2616   0.122E+00    0.898E-01
DAV:   4    -0.135690924906E+04    0.16250E-01   -0.77108E-02  2512   0.606E-01    0.479E-01
DAV:   5    -0.135690567886E+04    0.35702E-02   -0.33182E-02  2376   0.372E-01    0.238E-01
DAV:   6    -0.135690627875E+04   -0.59989E-03   -0.15559E-02  2592   0.233E-01    0.152E-01
DAV:   7    -0.135690620451E+04    0.74241E-04   -0.37955E-03  2416   0.126E-01    0.105E-01
DAV:   8    -0.135690621554E+04   -0.11026E-04   -0.16613E-03  2472   0.711E-02    0.553E-02
DAV:   9    -0.135690619303E+04    0.22505E-04   -0.29727E-04  2592   0.402E-02    0.363E-02
DAV:  10    -0.135690620396E+04   -0.10924E-04   -0.32791E-04  2456   0.315E-02    0.288E-02
DAV:  11    -0.135690619662E+04    0.73389E-05   -0.98733E-05  2496   0.217E-02    0.110E-02
DAV:  12    -0.135690619931E+04   -0.26927E-05   -0.41620E-05  2312   0.120E-02    0.935E-03
DAV:  13    -0.135690619851E+04    0.79753E-06   -0.95253E-06  1704   0.724E-03
   8 F= -.13569062E+04 E0= -.13569062E+04  d E =-.994702E+00
 BRION: g(F)=  0.576E+00 g(S)=  0.000E+00 retain N=  6 mean eig= 1.16
 eig:   2.639  2.639  0.115  0.132  0.722  0.722
 bond charge predicted
       N       E                     dE             d eps       ncg     rms          rms(c)
DAV:   1    -0.135718991904E+04   -0.28372E+00   -0.84365E+01  1368   0.131E+01    0.182E+00
DAV:   2    -0.135760621867E+04   -0.41630E+00   -0.44045E+00  2264   0.499E+00    0.884E-01
DAV:   3    -0.135762616026E+04   -0.19942E-01   -0.34039E-01  2616   0.101E+00    0.703E-01
DAV:   4    -0.135761687110E+04    0.92892E-02   -0.46896E-02  2544   0.486E-01    0.382E-01
DAV:   5    -0.135761488926E+04    0.19818E-02   -0.21392E-02  2376   0.297E-01    0.180E-01
DAV:   6    -0.135761534766E+04   -0.45839E-03   -0.88709E-03  2600   0.181E-01    0.126E-01
DAV:   7    -0.135761528759E+04    0.60071E-04   -0.24259E-03  2560   0.986E-02    0.823E-02
DAV:   8    -0.135761527886E+04    0.87275E-05   -0.89537E-04  2624   0.573E-02    0.456E-02
DAV:   9    -0.135761526870E+04    0.10160E-04   -0.19169E-04  2560   0.324E-02    0.276E-02
DAV:  10    -0.135761527611E+04   -0.74101E-05   -0.14663E-04  2464   0.214E-02    0.192E-02
DAV:  11    -0.135761527308E+04    0.30279E-05   -0.39975E-05  2440   0.141E-02    0.798E-03
DAV:  12    -0.135761527396E+04   -0.88209E-06   -0.15205E-05  1832   0.787E-03    0.675E-03
DAV:  13    -0.135761527347E+04    0.49674E-06   -0.22736E-06  1024   0.544E-03
   9 F= -.13576153E+04 E0= -.13576153E+04  d E =-.709075E+00
 BRION: g(F)=  0.533E+00 g(S)=  0.000E+00 retain N=  7 mean eig= 1.27
 eig:   2.975  2.975  1.017  1.017  0.240  0.076  0.599
 bond charge predicted
       N       E                     dE             d eps       ncg     rms          rms(c)
DAV:   1    -0.135782471736E+04   -0.20944E+00   -0.95591E+01  1368   0.140E+01    0.174E+00
DAV:   2    -0.135831169908E+04   -0.48698E+00   -0.51424E+00  2296   0.543E+00    0.873E-01
DAV:   3    -0.135833794668E+04   -0.26248E-01   -0.40101E-01  2600   0.106E+00    0.699E-01
DAV:   4    -0.135832968982E+04    0.82569E-02   -0.44834E-02  2600   0.491E-01    0.447E-01
DAV:   5    -0.135832506806E+04    0.46218E-02   -0.23177E-02  2328   0.303E-01    0.169E-01
DAV:   6    -0.135832578420E+04   -0.71614E-03   -0.10749E-02  2560   0.198E-01    0.146E-01
DAV:   7    -0.135832570965E+04    0.74553E-04   -0.39871E-03  2584   0.122E-01    0.931E-02
DAV:   8    -0.135832569307E+04    0.16582E-04   -0.14116E-03  2608   0.732E-02    0.513E-02
DAV:   9    -0.135832568752E+04    0.55425E-05   -0.24344E-04  2552   0.353E-02    0.381E-02
DAV:  10    -0.135832569327E+04   -0.57518E-05   -0.18190E-04  2440   0.241E-02    0.215E-02
DAV:  11    -0.135832569154E+04    0.17306E-05   -0.59269E-05  2488   0.174E-02    0.937E-03
DAV:  12    -0.135832569348E+04   -0.19320E-05   -0.27447E-05  2352   0.105E-02    0.930E-03
DAV:  13    -0.135832569228E+04    0.11953E-05   -0.59729E-06  1416   0.621E-03    0.446E-03
DAV:  14    -0.135832569265E+04   -0.37179E-06   -0.83759E-06  1536   0.631E-03
  10 F= -.13583257E+04 E0= -.13583257E+04  d E =-.710419E+00
 BRION: g(F)=  0.399E+00 g(S)=  0.000E+00 retain N=  8 mean eig= 1.91
 eig:   4.299  4.299  1.863  1.863  0.914  0.914  0.416  0.750
 bond charge predicted
       N       E                     dE             d eps       ncg     rms          rms(c)
DAV:   1    -0.135843492411E+04   -0.10923E+00   -0.10560E+02  1368   0.145E+01    0.178E+00
DAV:   2    -0.135897198269E+04   -0.53706E+00   -0.56536E+00  2288   0.563E+00    0.905E-01
DAV:   3    -0.135899864219E+04   -0.26659E-01   -0.43458E-01  2608   0.110E+00    0.720E-01
DAV:   4    -0.135898799923E+04    0.10643E-01   -0.49231E-02  2584   0.512E-01    0.455E-01
DAV:   5    -0.135898204899E+04    0.59502E-02   -0.24490E-02  2376   0.324E-01    0.166E-01
DAV:   6    -0.135898287662E+04   -0.82763E-03   -0.13309E-02  2512   0.212E-01    0.143E-01
DAV:   7    -0.135898280348E+04    0.73143E-04   -0.37596E-03  2480   0.121E-01    0.995E-02
DAV:   8    -0.135898279028E+04    0.13192E-04   -0.16462E-03  2544   0.728E-02    0.523E-02
DAV:   9    -0.135898277901E+04    0.11270E-04   -0.28931E-04  2496   0.382E-02    0.388E-02
DAV:  10    -0.135898277880E+04    0.21387E-06   -0.18186E-04  2472   0.260E-02    0.219E-02
DAV:  11    -0.135898277888E+04   -0.76019E-07   -0.70953E-05  2456   0.176E-02    0.923E-03
DAV:  12    -0.135898278076E+04   -0.18836E-05   -0.23357E-05  2368   0.102E-02    0.894E-03
DAV:  13    -0.135898277994E+04    0.82377E-06   -0.83854E-06  1592   0.655E-03
  11 F= -.13589828E+04 E0= -.13589828E+04  d E =-.657087E+00
 BRION: g(F)=  0.222E+00 g(S)=  0.000E+00 retain N=  9 mean eig= 2.51
 eig:   6.437  6.437  2.670  2.670  1.038  1.038  0.363  0.949  0.949
 bond charge predicted
       N       E                     dE             d eps       ncg     rms          rms(c)
DAV:   1    -0.135903913586E+04   -0.56355E-01   -0.79947E+01  1376   0.127E+01    0.157E+00
DAV:   2    -0.135944956015E+04   -0.41042E+00   -0.43324E+00  2304   0.494E+00    0.802E-01
DAV:   3    -0.135947056407E+04   -0.21004E-01   -0.33396E-01  2592   0.959E-01    0.651E-01
DAV:   4    -0.135946351377E+04    0.70503E-02   -0.38384E-02  2576   0.451E-01    0.429E-01
DAV:   5    -0.135945859581E+04    0.49180E-02   -0.18998E-02  2344   0.275E-01    0.162E-01
DAV:   6    -0.135945915779E+04   -0.56198E-03   -0.10064E-02  2472   0.185E-01    0.135E-01
DAV:   7    -0.135945902919E+04    0.12860E-03   -0.36278E-03  2496   0.117E-01    0.867E-02
DAV:   8    -0.135945904667E+04   -0.17481E-04   -0.16147E-03  2584   0.734E-02    0.528E-02
DAV:   9    -0.135945903489E+04    0.11781E-04   -0.25628E-04  2520   0.352E-02    0.391E-02
DAV:  10    -0.135945903309E+04    0.17960E-05   -0.14139E-04  2576   0.218E-02    0.203E-02
DAV:  11    -0.135945903421E+04   -0.11200E-05   -0.50413E-05  2496   0.151E-02    0.102E-02
DAV:  12    -0.135945903438E+04   -0.16960E-06   -0.19662E-05  2224   0.986E-03    0.767E-03
DAV:  13    -0.135945903427E+04    0.10883E-06   -0.10689E-05  1696   0.652E-03    0.414E-03
DAV:  14    -0.135945903415E+04    0.12464E-06   -0.18607E-06  1008   0.485E-03
  12 F= -.13594590E+04 E0= -.13594590E+04  d E =-.476254E+00
 BRION: g(F)=  0.178E+00 g(S)=  0.000E+00 retain N=  9 mean eig= 2.18
 eig:   5.360  5.360  1.993  1.993  0.673  0.673  1.344  1.344  0.919
 bond charge predicted
       N       E                     dE             d eps       ncg     rms          rms(c)
DAV:   1    -0.135954928863E+04   -0.90254E-01   -0.39585E+01  1384   0.894E+00    0.112E+00
DAV:   2    -0.135974869799E+04   -0.19941E+00   -0.21064E+00  2296   0.340E+00    0.566E-01
DAV:   3    -0.135975865749E+04   -0.99595E-02   -0.16402E-01  2600   0.685E-01    0.449E-01
DAV:   4    -0.135975468023E+04    0.39773E-02   -0.19356E-02  2544   0.318E-01    0.278E-01
DAV:   5    -0.135975263768E+04    0.20425E-02   -0.90434E-03  2336   0.195E-01    0.108E-01
DAV:   6    -0.135975288312E+04   -0.24544E-03   -0.44897E-03  2472   0.126E-01    0.858E-02
DAV:   7    -0.135975285987E+04    0.23257E-04   -0.14317E-03  2440   0.741E-02    0.594E-02
DAV:   8    -0.135975286202E+04   -0.21499E-05   -0.67650E-04  2496   0.462E-02    0.338E-02
DAV:   9    -0.135975285719E+04    0.48221E-05   -0.12466E-04  2440   0.246E-02    0.256E-02
DAV:  10    -0.135975285563E+04    0.15672E-05   -0.90633E-05  2488   0.178E-02    0.156E-02
DAV:  11    -0.135975285498E+04    0.64996E-06   -0.36443E-05  2304   0.126E-02    0.623E-03
DAV:  12    -0.135975285565E+04   -0.67310E-06   -0.97944E-06  1760   0.735E-03
  13 F= -.13597529E+04 E0= -.13597529E+04  d E =-.293822E+00
 BRION: g(F)=  0.153E+00 g(S)=  0.000E+00 retain N=  6 mean eig= 3.36
 eig:   7.348  7.348  1.818  1.818  0.923  0.923
 bond charge predicted
       N       E                     dE             d eps       ncg     rms          rms(c)
DAV:   1    -0.135956960885E+04    0.18325E+00   -0.11295E+02  1384   0.151E+01    0.177E+00
DAV:   2    -0.136014792333E+04   -0.57831E+00   -0.60807E+00  2288   0.592E+00    0.916E-01
DAV:   3    -0.136017853467E+04   -0.30611E-01   -0.47314E-01  2600   0.115E+00    0.745E-01
DAV:   4    -0.136017045227E+04    0.80824E-02   -0.47570E-02  2616   0.510E-01    0.530E-01
DAV:   5    -0.136016185387E+04    0.85984E-02   -0.21995E-02  2344   0.306E-01    0.228E-01
DAV:   6    -0.136016164667E+04    0.20719E-03   -0.18673E-02  2288   0.253E-01    0.139E-01
DAV:   7    -0.136016187858E+04   -0.23191E-03   -0.83140E-03  2344   0.165E-01    0.124E-01
DAV:   8    -0.136016181958E+04    0.58999E-04   -0.21234E-03  2584   0.908E-02    0.796E-02
DAV:   9    -0.136016176635E+04    0.53231E-04   -0.85644E-04  2576   0.545E-02    0.431E-02
DAV:  10    -0.136016178697E+04   -0.20617E-04   -0.28840E-04  2568   0.330E-02    0.322E-02
DAV:  11    -0.136016178549E+04    0.14809E-05   -0.10624E-04  2488   0.214E-02    0.206E-02
DAV:  12    -0.136016178481E+04    0.67438E-06   -0.95161E-05  2352   0.190E-02    0.185E-02
DAV:  13    -0.136016178152E+04    0.32969E-05   -0.39489E-05  2280   0.126E-02    0.104E-02
DAV:  14    -0.136016178128E+04    0.24121E-06   -0.19670E-05  2008   0.769E-03    0.374E-03
DAV:  15    -0.136016178118E+04    0.10122E-06   -0.10946E-06   984   0.444E-03
  14 F= -.13601618E+04 E0= -.13601618E+04  d E =-.408926E+00
 BRION: g(F)=  0.891E-01 g(S)=  0.000E+00 retain N=  3 mean eig= 4.80
 eig:   6.560  6.560  1.292
 bond charge predicted
       N       E                     dE             d eps       ncg     rms          rms(c)
DAV:   1    -0.136018082563E+04   -0.19044E-01   -0.31950E+01  1384   0.807E+00    0.951E-01
DAV:   2    -0.136034398151E+04   -0.16316E+00   -0.17170E+00  2304   0.315E+00    0.483E-01
DAV:   3    -0.136035346348E+04   -0.94820E-02   -0.13669E-01  2592   0.612E-01    0.393E-01
DAV:   4    -0.136035145838E+04    0.20051E-02   -0.13502E-02  2616   0.273E-01    0.280E-01
DAV:   5    -0.136034937664E+04    0.20817E-02   -0.63686E-03  2352   0.163E-01    0.118E-01
DAV:   6    -0.136034943333E+04   -0.56692E-04   -0.47018E-03  2344   0.126E-01    0.801E-02
DAV:   7    -0.136034945785E+04   -0.24516E-04   -0.20957E-03  2384   0.835E-02    0.650E-02
DAV:   8    -0.136034944123E+04    0.16617E-04   -0.65117E-04  2576   0.503E-02    0.408E-02
DAV:   9    -0.136034942897E+04    0.12258E-04   -0.21651E-04  2496   0.280E-02    0.235E-02
DAV:  10    -0.136034943336E+04   -0.43887E-05   -0.70942E-05  2520   0.164E-02    0.166E-02
DAV:  11    -0.136034943319E+04    0.16551E-06   -0.26199E-05  2256   0.110E-02    0.109E-02
DAV:  12    -0.136034943240E+04    0.78954E-06   -0.20562E-05  2096   0.947E-03    0.854E-03
DAV:  13    -0.136034943191E+04    0.49626E-06   -0.94259E-06  1760   0.639E-03
  15 F= -.13603494E+04 E0= -.13603494E+04  d E =-.187651E+00
 BRION: g(F)=  0.792E-01 g(S)=  0.000E+00 retain N=  3 mean eig= 3.16
 eig:   1.162  4.158  4.158
 bond charge predicted
       N       E                     dE             d eps       ncg     rms          rms(c)
DAV:   1    -0.136039070106E+04   -0.41269E-01   -0.13043E+01  1384   0.515E+00    0.586E-01
DAV:   2    -0.136045689695E+04   -0.66196E-01   -0.69381E-01  2296   0.201E+00    0.307E-01
DAV:   3    -0.136046078449E+04   -0.38875E-02   -0.55267E-02  2592   0.386E-01    0.248E-01
DAV:   4    -0.136046002640E+04    0.75809E-03   -0.51020E-03  2616   0.169E-01    0.183E-01
DAV:   5    -0.136045910587E+04    0.92053E-03   -0.24569E-03  2320   0.104E-01    0.801E-02
DAV:   6    -0.136045908219E+04    0.23680E-04   -0.21204E-03  2272   0.866E-02    0.491E-02
DAV:   7    -0.136045911810E+04   -0.35904E-04   -0.10299E-03  2408   0.567E-02    0.449E-02
DAV:   8    -0.136045910603E+04    0.12068E-04   -0.24464E-04  2520   0.325E-02    0.286E-02
DAV:   9    -0.136045909789E+04    0.81387E-05   -0.11625E-04  2504   0.197E-02    0.143E-02
DAV:  10    -0.136045910077E+04   -0.28790E-05   -0.36499E-05  2520   0.122E-02    0.110E-02
DAV:  11    -0.136045910015E+04    0.62256E-06   -0.91066E-06  1584   0.732E-03
  16 F= -.13604591E+04 E0= -.13604591E+04  d E =-.109668E+00
 BRION: g(F)=  0.683E-01 g(S)=  0.000E+00 retain N=  3 mean eig= 3.69
 eig:   4.875  4.875  1.323
 bond charge predicted
       N       E                     dE             d eps       ncg     rms          rms(c)
DAV:   1    -0.136048868338E+04   -0.29583E-01   -0.19336E+01  1376   0.624E+00    0.692E-01
DAV:   2    -0.136058506810E+04   -0.96385E-01   -0.10060E+00  2304   0.242E+00    0.354E-01
DAV:   3    -0.136059088545E+04   -0.58173E-02   -0.79623E-02  2600   0.454E-01    0.284E-01
DAV:   4    -0.136058994602E+04    0.93944E-03   -0.66469E-03  2616   0.197E-01    0.217E-01
DAV:   5    -0.136058856139E+04    0.13846E-02   -0.34060E-03  2280   0.123E-01    0.970E-02
DAV:   6    -0.136058850827E+04    0.53116E-04   -0.31789E-03  2224   0.105E-01    0.587E-02
DAV:   7    -0.136058856940E+04   -0.61130E-04   -0.15994E-03  2440   0.692E-02    0.538E-02
DAV:   8    -0.136058855390E+04    0.15506E-04   -0.33390E-04  2496   0.399E-02    0.340E-02
DAV:   9    -0.136058853948E+04    0.14416E-04   -0.17641E-04  2504   0.241E-02    0.165E-02
DAV:  10    -0.136058854426E+04   -0.47825E-05   -0.55447E-05  2528   0.153E-02    0.129E-02
DAV:  11    -0.136058854315E+04    0.11175E-05   -0.15914E-05  1840   0.883E-03    0.732E-03
DAV:  12    -0.136058854329E+04   -0.13884E-06   -0.12739E-05  1712   0.799E-03    0.668E-03
DAV:  13    -0.136058854277E+04    0.51597E-06   -0.35534E-06  1176   0.564E-03
  17 F= -.13605885E+04 E0= -.13605885E+04  d E =-.129443E+00
 BRION: g(F)=  0.607E-01 g(S)=  0.000E+00 retain N=  3 mean eig= 3.66
 eig:   4.874  4.874  1.239
 bond charge predicted
       N       E                     dE             d eps       ncg     rms          rms(c)
DAV:   1    -0.136060281668E+04   -0.14273E-01   -0.23391E+01  1376   0.686E+00    0.769E-01
DAV:   2    -0.136072029061E+04   -0.11747E+00   -0.12307E+00  2288   0.267E+00    0.393E-01
DAV:   3    -0.136072764674E+04   -0.73561E-02   -0.99697E-02  2592   0.519E-01    0.322E-01
DAV:   4    -0.136072659519E+04    0.10516E-02   -0.86143E-03  2624   0.221E-01    0.245E-01
DAV:   5    -0.136072498125E+04    0.16139E-02   -0.41298E-03  2344   0.133E-01    0.115E-01
DAV:   6    -0.136072486425E+04    0.11700E-03   -0.39162E-03  2192   0.118E-01    0.671E-02
DAV:   7    -0.136072494397E+04   -0.79723E-04   -0.21570E-03  2424   0.812E-02    0.653E-02
DAV:   8    -0.136072492042E+04    0.23556E-04   -0.44290E-04  2504   0.460E-02    0.463E-02
DAV:   9    -0.136072489427E+04    0.26144E-04   -0.25468E-04  2472   0.283E-02    0.210E-02
DAV:  10    -0.136072490114E+04   -0.68658E-05   -0.90324E-05  2456   0.185E-02    0.143E-02
DAV:  11    -0.136072490198E+04   -0.83848E-06   -0.19387E-05  2024   0.963E-03    0.109E-02
DAV:  12    -0.136072490092E+04    0.10576E-05   -0.24093E-05  1952   0.996E-03    0.942E-03
DAV:  13    -0.136072490049E+04    0.42733E-06   -0.11600E-05  1800   0.731E-03    0.733E-03
DAV:  14    -0.136072489974E+04    0.75549E-06   -0.28977E-06  1088   0.473E-03
  18 F= -.13607249E+04 E0= -.13607249E+04  d E =-.136357E+00
 BRION: g(F)=  0.552E-01 g(S)=  0.000E+00 retain N=  3 mean eig= 3.33
 eig:   4.420  4.420  1.150
 bond charge predicted
       N       E                     dE             d eps       ncg     rms          rms(c)
DAV:   1    -0.136075909664E+04   -0.34196E-01   -0.14897E+01  1376   0.547E+00    0.601E-01
DAV:   2    -0.136083295211E+04   -0.73855E-01   -0.77110E-01  2296   0.213E+00    0.306E-01
DAV:   3    -0.136083756623E+04   -0.46141E-02   -0.61772E-02  2592   0.401E-01    0.248E-01
DAV:   4    -0.136083693305E+04    0.63318E-03   -0.49620E-03  2608   0.169E-01    0.193E-01
DAV:   5    -0.136083585177E+04    0.10813E-02   -0.26208E-03  2280   0.107E-01    0.875E-02
DAV:   6    -0.136083580551E+04    0.46257E-04   -0.25676E-03  2232   0.941E-02    0.530E-02
DAV:   7    -0.136083584657E+04   -0.41060E-04   -0.12111E-03  2448   0.614E-02    0.477E-02
DAV:   8    -0.136083583417E+04    0.12402E-04   -0.26285E-04  2488   0.352E-02    0.307E-02
DAV:   9    -0.136083582272E+04    0.11452E-04   -0.13739E-04  2472   0.211E-02    0.146E-02
DAV:  10    -0.136083582655E+04   -0.38306E-05   -0.43904E-05  2464   0.134E-02    0.110E-02
DAV:  11    -0.136083582588E+04    0.66214E-06   -0.93489E-06  1512   0.750E-03
  19 F= -.13608358E+04 E0= -.13608358E+04  d E =-.110926E+00
 BRION: g(F)=  0.508E-01 g(S)=  0.000E+00 retain N=  3 mean eig= 4.17
 eig:   5.575  5.575  1.367
 bond charge predicted
       N       E                     dE             d eps       ncg     rms          rms(c)
DAV:   1    -0.136088110042E+04   -0.45274E-01   -0.81755E+00  1376   0.404E+00    0.449E-01
DAV:   2    -0.136092107679E+04   -0.39976E-01   -0.41800E-01  2296   0.156E+00    0.227E-01
DAV:   3    -0.136092354742E+04   -0.24706E-02   -0.33364E-02  2584   0.294E-01    0.182E-01
DAV:   4    -0.136092315373E+04    0.39369E-03   -0.26944E-03  2608   0.124E-01    0.138E-01
DAV:   5    -0.136092258867E+04    0.56506E-03   -0.15240E-03  2248   0.805E-02    0.559E-02
DAV:   6    -0.136092261015E+04   -0.21473E-04   -0.12489E-03  2344   0.633E-02    0.401E-02
DAV:   7    -0.136092261527E+04   -0.51193E-05   -0.44991E-04  2440   0.391E-02    0.306E-02
DAV:   8    -0.136092261102E+04    0.42456E-05   -0.13391E-04  2520   0.234E-02    0.173E-02
DAV:   9    -0.136092260824E+04    0.27798E-05   -0.42501E-05  2272   0.128E-02    0.102E-02
DAV:  10    -0.136092260910E+04   -0.85610E-06   -0.13788E-05  1968   0.762E-03    0.617E-03
DAV:  11    -0.136092260873E+04    0.36333E-06   -0.13497E-06   984   0.506E-03
  20 F= -.13609226E+04 E0= -.13609226E+04  d E =-.867829E-01
 BRION: g(F)=  0.487E-01 g(S)=  0.000E+00 retain N=  3 mean eig= 3.58
 eig:   4.656  4.656  1.433
