 running on  160 total cores
 distrk:  each k-point on  160 cores,    1 groups
 distr:  one band on   20 cores,    8 groups
 using from now: INCAR     
 vasp.5.4.4.18Apr17-6-g9f103f2a35 (build May 01 2020 14:22:42) gamma-only       
  
 POSCAR found type information on POSCAR  O  La Zr Li Al
 POSCAR found :  5 types and     186 ions
 scaLAPACK will be used
 LDA part: xc-table for Pade appr. of Perdew
 POSCAR, INCAR and KPOINTS ok, starting setup
 FFT: planning ...
 WAVECAR not read
 WARNING: random wavefunctions but no delay for mixing, default for NELMDL
 entering main loop
       N       E                     dE             d eps       ncg     rms          rms(c)
DAV:   1     0.252624850335E+05    0.25262E+05   -0.42104E+05  1592   0.253E+03
DAV:   2     0.945838653340E+04   -0.15804E+05   -0.14615E+05  1424   0.703E+02
DAV:   3     0.271156858919E+04   -0.67468E+04   -0.61518E+04  1512   0.355E+02
DAV:   4    -0.332201943779E+03   -0.30438E+04   -0.28284E+04  2064   0.222E+02
DAV:   5    -0.138595975948E+04   -0.10538E+04   -0.10150E+04  2536   0.142E+02    0.116E+02
DAV:   6    -0.127880570781E+04    0.10715E+03   -0.14377E+03  2448   0.669E+01    0.500E+01
DAV:   7    -0.130220743629E+04   -0.23402E+02   -0.40148E+02  2576   0.343E+01    0.265E+01
DAV:   8    -0.130647189564E+04   -0.42645E+01   -0.23900E+02  2560   0.263E+01    0.235E+01
DAV:   9    -0.130327585309E+04    0.31960E+01   -0.36893E+01  2544   0.137E+01    0.907E+00
DAV:  10    -0.130340702865E+04   -0.13118E+00   -0.18204E+01  2600   0.714E+00    0.614E+00
DAV:  11    -0.130382905581E+04   -0.42203E+00   -0.42968E+00  2624   0.397E+00    0.446E+00
DAV:  12    -0.130378304989E+04    0.46006E-01   -0.17828E+00  2576   0.272E+00    0.357E+00
DAV:  13    -0.130372211753E+04    0.60932E-01   -0.10973E+00  2536   0.195E+00    0.177E+00
DAV:  14    -0.130372364079E+04   -0.15233E-02   -0.19881E-01  2560   0.969E-01    0.120E+00
DAV:  15    -0.130372620403E+04   -0.25632E-02   -0.73449E-02  2536   0.527E-01    0.804E-01
DAV:  16    -0.130372698082E+04   -0.77679E-03   -0.22804E-02  2624   0.282E-01    0.585E-01
DAV:  17    -0.130372795772E+04   -0.97690E-03   -0.11643E-02  2520   0.223E-01    0.350E-01
DAV:  18    -0.130372752136E+04    0.43636E-03   -0.42147E-03  2472   0.125E-01    0.195E-01
DAV:  19    -0.130372743350E+04    0.87869E-04   -0.37774E-03  2536   0.110E-01    0.113E-01
DAV:  20    -0.130372747280E+04   -0.39305E-04   -0.67216E-04  2520   0.490E-02    0.570E-02
DAV:  21    -0.130372749091E+04   -0.18111E-04   -0.23435E-04  2624   0.297E-02    0.573E-02
DAV:  22    -0.130372750355E+04   -0.12644E-04   -0.69659E-05  2528   0.146E-02    0.220E-02
DAV:  23    -0.130372750154E+04    0.20123E-05   -0.35821E-05  2056   0.110E-02    0.154E-02
DAV:  24    -0.130372750499E+04   -0.34509E-05   -0.12236E-05  1408   0.731E-03    0.532E-03
DAV:  25    -0.130372750643E+04   -0.14381E-05   -0.59634E-06  1144   0.592E-03    0.279E-03
DAV:  26    -0.130372750654E+04   -0.10498E-06   -0.21715E-06   968   0.461E-03
   1 F= -.13037275E+04 E0= -.13037267E+04  d E =-.130373E+04
 BRION: g(F)=  0.102E+03 g(S)=  0.000E+00
 bond charge predicted
       N       E                     dE             d eps       ncg     rms          rms(c)
DAV:   1    -0.119729754509E+04    0.10643E+03   -0.13741E+04  1728   0.175E+02    0.513E+01
DAV:   2    -0.133146876878E+04   -0.13417E+03   -0.15291E+03  2576   0.873E+01    0.238E+01
DAV:   3    -0.132669744390E+04    0.47713E+01   -0.88275E+01  2600   0.228E+01    0.153E+01
DAV:   4    -0.132332204536E+04    0.33754E+01   -0.39691E+01  2456   0.120E+01    0.728E+00
DAV:   5    -0.132321007778E+04    0.11197E+00   -0.89386E+00  2488   0.653E+00    0.511E+00
DAV:   6    -0.132312517298E+04    0.84905E-01   -0.63528E+00  2536   0.419E+00    0.308E+00
DAV:   7    -0.132309126531E+04    0.33908E-01   -0.79542E-01  2536   0.228E+00    0.188E+00
DAV:   8    -0.132307340544E+04    0.17860E-01   -0.91115E-01  2424   0.157E+00    0.950E-01
DAV:   9    -0.132308083751E+04   -0.74321E-02   -0.14860E-01  2536   0.804E-01    0.816E-01
DAV:  10    -0.132307370660E+04    0.71309E-02   -0.56240E-02  2624   0.469E-01    0.370E-01
DAV:  11    -0.132307494854E+04   -0.12419E-02   -0.33766E-02  2600   0.311E-01    0.200E-01
DAV:  12    -0.132307510200E+04   -0.15346E-03   -0.43336E-03  2608   0.154E-01    0.121E-01
DAV:  13    -0.132307505900E+04    0.42995E-04   -0.24430E-03  2616   0.868E-02    0.371E-02
DAV:  14    -0.132307510381E+04   -0.44803E-04   -0.42740E-04  2616   0.451E-02    0.240E-02
DAV:  15    -0.132307511375E+04   -0.99475E-05   -0.15988E-04  2600   0.243E-02    0.122E-02
DAV:  16    -0.132307511783E+04   -0.40789E-05   -0.58279E-05  2608   0.160E-02    0.809E-03
DAV:  17    -0.132307511974E+04   -0.19025E-05   -0.22457E-05  2280   0.897E-03    0.760E-03
DAV:  18    -0.132307511944E+04    0.29821E-06   -0.42368E-06  1184   0.563E-03
   2 F= -.13230751E+04 E0= -.13230751E+04  d E =-.193476E+02
 BRION: g(F)=  0.142E+03 g(S)=  0.000E+00 retain N=  1 mean eig= 0.45
 eig:   0.449
 bond charge predicted
       N       E                     dE             d eps       ncg     rms          rms(c)
DAV:   1    -0.128732804374E+04    0.35747E+02   -0.58143E+03  1360   0.103E+02    0.318E+01
DAV:   2    -0.134864871182E+04   -0.61321E+02   -0.75175E+02  2544   0.506E+01    0.299E+01
DAV:   3    -0.134506902185E+04    0.35797E+01   -0.51473E+01  2592   0.173E+01    0.231E+01
DAV:   4    -0.134255948203E+04    0.25095E+01   -0.63873E+01  2080   0.107E+01    0.117E+01
DAV:   5    -0.134356197225E+04   -0.10025E+01   -0.15486E+01  2464   0.686E+00    0.124E+01
DAV:   6    -0.134093584193E+04    0.26261E+01   -0.14355E+01  2480   0.521E+00    0.327E+00
DAV:   7    -0.134100668586E+04   -0.70844E-01   -0.27844E+00  2472   0.330E+00    0.125E+00
DAV:   8    -0.134103000188E+04   -0.23316E-01   -0.38555E-01  2624   0.122E+00    0.818E-01
DAV:   9    -0.134102840316E+04    0.15987E-02   -0.88721E-02  2616   0.621E-01    0.501E-01
DAV:  10    -0.134103084668E+04   -0.24435E-02   -0.34010E-02  2576   0.359E-01    0.267E-01
DAV:  11    -0.134103012042E+04    0.72626E-03   -0.10478E-02  2592   0.213E-01    0.104E-01
DAV:  12    -0.134103049966E+04   -0.37925E-03   -0.47611E-03  2400   0.123E-01    0.109E-01
DAV:  13    -0.134103044159E+04    0.58073E-04   -0.91139E-04  2624   0.643E-02    0.747E-02
DAV:  14    -0.134103040079E+04    0.40798E-04   -0.99405E-04  2440   0.538E-02    0.295E-02
DAV:  15    -0.134103042101E+04   -0.20220E-04   -0.27373E-04  2480   0.322E-02    0.245E-02
DAV:  16    -0.134103041839E+04    0.26211E-05   -0.75842E-05  2592   0.160E-02    0.147E-02
DAV:  17    -0.134103041843E+04   -0.37020E-07   -0.19387E-05  2144   0.921E-03    0.102E-02
DAV:  18    -0.134103041785E+04    0.58190E-06   -0.10441E-05  1696   0.600E-03    0.387E-03
DAV:  19    -0.134103041800E+04   -0.15652E-06   -0.19341E-06  1072   0.437E-03
   3 F= -.13410304E+04 E0= -.13410304E+04  d E =-.179553E+02
 BRION: g(F)=  0.104E+02 g(S)=  0.000E+00 retain N=  2 mean eig= 2.47
 eig:   0.337  4.613
 bond charge predicted
       N       E                     dE             d eps       ncg     rms          rms(c)
DAV:   1    -0.134272971125E+04   -0.16993E+01   -0.54389E+02  1384   0.340E+01    0.673E+00
DAV:   2    -0.134570241847E+04   -0.29727E+01   -0.32881E+01  2288   0.132E+01    0.327E+00
DAV:   3    -0.134579942581E+04   -0.97007E-01   -0.26460E+00  2576   0.319E+00    0.271E+00
DAV:   4    -0.134571194269E+04    0.87483E-01   -0.70048E-01  2544   0.178E+00    0.138E+00
DAV:   5    -0.134570472506E+04    0.72176E-02   -0.24219E-01  2440   0.101E+00    0.903E-01
DAV:   6    -0.134570046007E+04    0.42650E-02   -0.12556E-01  2608   0.696E-01    0.516E-01
DAV:   7    -0.134569964183E+04    0.81825E-03   -0.49862E-02  2520   0.420E-01    0.317E-01
DAV:   8    -0.134569955695E+04    0.84880E-04   -0.12836E-02  2608   0.223E-01    0.179E-01
DAV:   9    -0.134569936643E+04    0.19052E-03   -0.39372E-03  2624   0.130E-01    0.953E-02
DAV:  10    -0.134569950309E+04   -0.13666E-03   -0.19171E-03  2400   0.857E-02    0.889E-02
DAV:  11    -0.134569943429E+04    0.68804E-04   -0.91168E-04  2544   0.578E-02    0.346E-02
DAV:  12    -0.134569944990E+04   -0.15611E-04   -0.34480E-04  2528   0.362E-02    0.254E-02
DAV:  13    -0.134569944972E+04    0.17675E-06   -0.78110E-05  2608   0.189E-02    0.158E-02
DAV:  14    -0.134569945016E+04   -0.43711E-06   -0.39825E-05  2472   0.110E-02    0.677E-03
DAV:  15    -0.134569945048E+04   -0.32492E-06   -0.66309E-06  1496   0.642E-03
   4 F= -.13456995E+04 E0= -.13456995E+04  d E =-.466903E+01
 BRION: g(F)=  0.448E+01 g(S)=  0.000E+00 retain N=  3 mean eig= 2.38
 eig:   6.158  0.358  0.637
 bond charge predicted
       N       E                     dE             d eps       ncg     rms          rms(c)
DAV:   1    -0.134669298384E+04   -0.99353E+00   -0.27342E+02  1376   0.230E+01    0.407E+00
DAV:   2    -0.134802198670E+04   -0.13290E+01   -0.14096E+01  2288   0.839E+00    0.194E+00
DAV:   3    -0.134804329276E+04   -0.21306E-01   -0.93249E-01  2624   0.180E+00    0.155E+00
DAV:   4    -0.134800142248E+04    0.41870E-01   -0.25946E-01  2520   0.103E+00    0.714E-01
DAV:   5    -0.134800002717E+04    0.13953E-02   -0.79341E-02  2488   0.584E-01    0.485E-01
DAV:   6    -0.134799944886E+04    0.57831E-03   -0.48349E-02  2584   0.384E-01    0.219E-01
DAV:   7    -0.134799920060E+04    0.24826E-03   -0.86356E-03  2440   0.198E-01    0.159E-01
DAV:   8    -0.134799922738E+04   -0.26774E-04   -0.41309E-03  2496   0.111E-01    0.798E-02
DAV:   9    -0.134799918769E+04    0.39691E-04   -0.11732E-03  2608   0.678E-02    0.470E-02
DAV:  10    -0.134799921203E+04   -0.24342E-04   -0.44707E-04  2552   0.390E-02    0.398E-02
DAV:  11    -0.134799919763E+04    0.14394E-04   -0.19624E-04  2600   0.279E-02    0.165E-02
DAV:  12    -0.134799920168E+04   -0.40426E-05   -0.71454E-05  2416   0.163E-02    0.116E-02
DAV:  13    -0.134799920219E+04   -0.51099E-06   -0.19692E-05  2264   0.937E-03    0.753E-03
DAV:  14    -0.134799920179E+04    0.39910E-06   -0.69229E-06  1528   0.598E-03
   5 F= -.13479992E+04 E0= -.13479992E+04  d E =-.229975E+01
 BRION: g(F)=  0.244E+01 g(S)=  0.000E+00 retain N=  4 mean eig= 1.75
 eig:   5.834  0.067  0.547  0.547
 bond charge predicted
       N       E                     dE             d eps       ncg     rms          rms(c)
DAV:   1    -0.134811791222E+04   -0.11871E+00   -0.47963E+02  1360   0.309E+01    0.487E+00
DAV:   2    -0.135046442989E+04   -0.23465E+01   -0.24570E+01  2288   0.114E+01    0.232E+00
DAV:   3    -0.135053607825E+04   -0.71648E-01   -0.16795E+00  2608   0.231E+00    0.188E+00
DAV:   4    -0.135047357610E+04    0.62502E-01   -0.36021E-01  2520   0.123E+00    0.935E-01
DAV:   5    -0.135046748947E+04    0.60866E-02   -0.12964E-01  2496   0.707E-01    0.579E-01
DAV:   6    -0.135046684118E+04    0.64829E-03   -0.55224E-02  2584   0.436E-01    0.283E-01
DAV:   7    -0.135046652620E+04    0.31499E-03   -0.16875E-02  2472   0.255E-01    0.177E-01
DAV:   8    -0.135046669053E+04   -0.16434E-03   -0.52907E-03  2552   0.136E-01    0.109E-01
DAV:   9    -0.135046657970E+04    0.11083E-03   -0.16817E-03  2624   0.793E-02    0.592E-02
DAV:  10    -0.135046663899E+04   -0.59289E-04   -0.98049E-04  2592   0.534E-02    0.486E-02
DAV:  11    -0.135046661105E+04    0.27937E-04   -0.32573E-04  2560   0.371E-02    0.166E-02
DAV:  12    -0.135046661873E+04   -0.76746E-05   -0.12069E-04  2296   0.217E-02    0.123E-02
DAV:  13    -0.135046662035E+04   -0.16175E-05   -0.29242E-05  2432   0.997E-03    0.949E-03
DAV:  14    -0.135046662017E+04    0.17733E-06   -0.13502E-05  1840   0.712E-03    0.462E-03
DAV:  15    -0.135046662020E+04   -0.30035E-07   -0.19114E-06  1032   0.493E-03
   6 F= -.13504666E+04 E0= -.13504666E+04  d E =-.246742E+01
 BRION: g(F)=  0.130E+01 g(S)=  0.000E+00 retain N=  5 mean eig= 2.08
 eig:   5.919  1.691  1.691  0.412  0.684
 bond charge predicted
       N       E                     dE             d eps       ncg     rms          rms(c)
DAV:   1    -0.135100125823E+04   -0.53464E+00   -0.11333E+02  1376   0.153E+01    0.234E+00
DAV:   2    -0.135155136187E+04   -0.55010E+00   -0.58108E+00  2288   0.569E+00    0.108E+00
DAV:   3    -0.135157756507E+04   -0.26203E-01   -0.43678E-01  2600   0.115E+00    0.849E-01
DAV:   4    -0.135156559367E+04    0.11971E-01   -0.63559E-02  2544   0.577E-01    0.446E-01
DAV:   5    -0.135156430510E+04    0.12886E-02   -0.33110E-02  2384   0.367E-01    0.241E-01
DAV:   6    -0.135156454372E+04   -0.23862E-03   -0.14710E-02  2552   0.233E-01    0.156E-01
DAV:   7    -0.135156455977E+04   -0.16052E-04   -0.40412E-03  2552   0.130E-01    0.108E-01
DAV:   8    -0.135156449009E+04    0.69681E-04   -0.93394E-04  2624   0.631E-02    0.612E-02
DAV:   9    -0.135156449736E+04   -0.72631E-05   -0.48709E-04  2616   0.430E-02    0.306E-02
DAV:  10    -0.135156449851E+04   -0.11554E-05   -0.12258E-04  2480   0.256E-02    0.195E-02
DAV:  11    -0.135156449859E+04   -0.80967E-07   -0.77298E-05  2528   0.159E-02    0.117E-02
DAV:  12    -0.135156449760E+04    0.99571E-06   -0.22860E-05  2304   0.991E-03    0.667E-03
DAV:  13    -0.135156449755E+04    0.44689E-07   -0.86602E-06  1712   0.660E-03
   7 F= -.13515645E+04 E0= -.13515645E+04  d E =-.109788E+01
 BRION: g(F)=  0.864E+00 g(S)=  0.000E+00 retain N=  6 mean eig= 2.19
 eig:   5.787  2.831  2.831  0.249  0.735  0.735
 bond charge predicted
       N       E                     dE             d eps       ncg     rms          rms(c)
DAV:   1    -0.135204652517E+04   -0.48203E+00   -0.12280E+02  1376   0.161E+01    0.197E+00
DAV:   2    -0.135266861466E+04   -0.62209E+00   -0.66078E+00  2288   0.609E+00    0.102E+00
DAV:   3    -0.135270760257E+04   -0.38988E-01   -0.53201E-01  2592   0.127E+00    0.853E-01
DAV:   4    -0.135270044284E+04    0.71597E-02   -0.53390E-02  2592   0.560E-01    0.596E-01
DAV:   5    -0.135269491321E+04    0.55296E-02   -0.38387E-02  2264   0.363E-01    0.234E-01
DAV:   6    -0.135269601394E+04   -0.11007E-02   -0.15383E-02  2536   0.244E-01    0.231E-01
DAV:   7    -0.135269562765E+04    0.38629E-03   -0.92253E-03  2576   0.174E-01    0.124E-01
DAV:   8    -0.135269554737E+04    0.80276E-04   -0.22422E-03  2536   0.987E-02    0.679E-02
DAV:   9    -0.135269554225E+04    0.51199E-05   -0.41899E-04  2616   0.456E-02    0.453E-02
DAV:  10    -0.135269556007E+04   -0.17814E-04   -0.25267E-04  2520   0.285E-02    0.240E-02
DAV:  11    -0.135269555628E+04    0.37825E-05   -0.70176E-05  2528   0.203E-02    0.919E-03
DAV:  12    -0.135269556012E+04   -0.38327E-05   -0.40375E-05  2408   0.121E-02    0.111E-02
DAV:  13    -0.135269555815E+04    0.19608E-05   -0.81733E-06  1584   0.700E-03    0.493E-03
DAV:  14    -0.135269555817E+04   -0.17753E-07   -0.56998E-06  1408   0.618E-03
   8 F= -.13526956E+04 E0= -.13526956E+04  d E =-.113106E+01
 BRION: g(F)=  0.693E+00 g(S)=  0.000E+00 retain N=  7 mean eig= 2.70
 eig:   5.873  4.675  4.675  1.213  1.213  0.326  0.898
 bond charge predicted
       N       E                     dE             d eps       ncg     rms          rms(c)
DAV:   1    -0.135311103497E+04   -0.41548E+00   -0.16330E+02  1384   0.183E+01    0.216E+00
DAV:   2    -0.135394318094E+04   -0.83215E+00   -0.87687E+00  2264   0.706E+00    0.111E+00
DAV:   3    -0.135399300816E+04   -0.49827E-01   -0.69254E-01  2592   0.143E+00    0.886E-01
DAV:   4    -0.135398299122E+04    0.10017E-01   -0.65849E-02  2592   0.623E-01    0.617E-01
DAV:   5    -0.135397495733E+04    0.80339E-02   -0.38797E-02  2296   0.387E-01    0.229E-01
DAV:   6    -0.135397631452E+04   -0.13572E-02   -0.20643E-02  2504   0.269E-01    0.204E-01
DAV:   7    -0.135397621206E+04    0.10246E-03   -0.80233E-03  2568   0.170E-01    0.130E-01
DAV:   8    -0.135397613164E+04    0.80421E-04   -0.23562E-03  2600   0.993E-02    0.693E-02
DAV:   9    -0.135397611776E+04    0.13883E-04   -0.45401E-04  2520   0.466E-02    0.476E-02
DAV:  10    -0.135397613280E+04   -0.15042E-04   -0.26947E-04  2512   0.309E-02    0.225E-02
DAV:  11    -0.135397613313E+04   -0.33270E-06   -0.73749E-05  2528   0.207E-02    0.987E-03
DAV:  12    -0.135397613695E+04   -0.38171E-05   -0.39962E-05  2400   0.123E-02    0.124E-02
DAV:  13    -0.135397613477E+04    0.21779E-05   -0.11820E-05  1712   0.761E-03    0.551E-03
DAV:  14    -0.135397613479E+04   -0.18277E-07   -0.50093E-06  1328   0.609E-03
   9 F= -.13539761E+04 E0= -.13539761E+04  d E =-.128058E+01
 BRION: g(F)=  0.556E+00 g(S)=  0.000E+00 retain N=  8 mean eig= 3.10
 eig:   7.260  5.848  5.848  1.926  1.926  0.311  0.843  0.843
 bond charge predicted
       N       E                     dE             d eps       ncg     rms          rms(c)
DAV:   1    -0.135443205163E+04   -0.45592E+00   -0.10689E+02  1376   0.148E+01    0.174E+00
DAV:   2    -0.135499148156E+04   -0.55943E+00   -0.59071E+00  2288   0.586E+00    0.890E-01
DAV:   3    -0.135502435393E+04   -0.32872E-01   -0.46286E-01  2600   0.114E+00    0.719E-01
DAV:   4    -0.135501759217E+04    0.67618E-02   -0.43043E-02  2608   0.510E-01    0.510E-01
DAV:   5    -0.135501132289E+04    0.62693E-02   -0.24076E-02  2312   0.316E-01    0.194E-01
DAV:   6    -0.135501211064E+04   -0.78775E-03   -0.15664E-02  2456   0.234E-01    0.164E-01
DAV:   7    -0.135501207041E+04    0.40231E-04   -0.56891E-03  2496   0.142E-01    0.114E-01
DAV:   8    -0.135501201962E+04    0.50788E-04   -0.19900E-03  2592   0.875E-02    0.609E-02
DAV:   9    -0.135501199591E+04    0.23712E-04   -0.42761E-04  2448   0.441E-02    0.414E-02
DAV:  10    -0.135501200222E+04   -0.63124E-05   -0.18226E-04  2512   0.266E-02    0.214E-02
DAV:  11    -0.135501200430E+04   -0.20769E-05   -0.60757E-05  2488   0.176E-02    0.110E-02
DAV:  12    -0.135501200603E+04   -0.17315E-05   -0.28936E-05  2360   0.117E-02    0.114E-02
DAV:  13    -0.135501200478E+04    0.12454E-05   -0.15268E-05  1784   0.757E-03    0.582E-03
DAV:  14    -0.135501200466E+04    0.12734E-06   -0.48416E-06  1376   0.569E-03
  10 F= -.13550120E+04 E0= -.13550120E+04  d E =-.103587E+01
 BRION: g(F)=  0.455E+00 g(S)=  0.000E+00 retain N=  9 mean eig= 3.71
 eig:   7.339  7.871  7.871  3.433  3.433  1.079  1.079  0.340  0.918
 bond charge predicted
       N       E                     dE             d eps       ncg     rms          rms(c)
DAV:   1    -0.135544953349E+04   -0.43753E+00   -0.98457E+01  1392   0.143E+01    0.174E+00
DAV:   2    -0.135597361196E+04   -0.52408E+00   -0.55540E+00  2304   0.573E+00    0.874E-01
DAV:   3    -0.135600477174E+04   -0.31160E-01   -0.44153E-01  2584   0.111E+00    0.708E-01
DAV:   4    -0.135599782547E+04    0.69463E-02   -0.43576E-02  2592   0.507E-01    0.488E-01
DAV:   5    -0.135599224618E+04    0.55793E-02   -0.24820E-02  2280   0.318E-01    0.180E-01
DAV:   6    -0.135599325837E+04   -0.10122E-02   -0.14497E-02  2512   0.223E-01    0.171E-01
DAV:   7    -0.135599310579E+04    0.15258E-03   -0.51334E-03  2536   0.136E-01    0.113E-01
DAV:   8    -0.135599304916E+04    0.56621E-04   -0.19430E-03  2608   0.858E-02    0.567E-02
DAV:   9    -0.135599303504E+04    0.14126E-04   -0.33077E-04  2424   0.396E-02    0.396E-02
DAV:  10    -0.135599304258E+04   -0.75392E-05   -0.16389E-04  2464   0.247E-02    0.192E-02
DAV:  11    -0.135599304344E+04   -0.86337E-06   -0.46939E-05  2488   0.163E-02    0.101E-02
DAV:  12    -0.135599304586E+04   -0.24150E-05   -0.29090E-05  2368   0.106E-02    0.116E-02
DAV:  13    -0.135599304420E+04    0.16553E-05   -0.11917E-05  1728   0.727E-03    0.544E-03
DAV:  14    -0.135599304405E+04    0.15188E-06   -0.33693E-06  1184   0.551E-03
  11 F= -.13559930E+04 E0= -.13559930E+04  d E =-.981039E+00
 BRION: g(F)=  0.397E+00 g(S)=  0.000E+00 retain N=  8 mean eig= 3.02
 eig:   6.763  6.763  2.918  2.918  1.298  1.298  1.116  1.116
 bond charge predicted
       N       E                     dE             d eps       ncg     rms          rms(c)
DAV:   1    -0.135640459518E+04   -0.41155E+00   -0.74037E+01  1392   0.124E+01    0.147E+00
DAV:   2    -0.135680829803E+04   -0.40370E+00   -0.42921E+00  2296   0.506E+00    0.759E-01
DAV:   3    -0.135683338163E+04   -0.25084E-01   -0.35410E-01  2608   0.984E-01    0.625E-01
DAV:   4    -0.135682850204E+04    0.48796E-02   -0.33238E-02  2608   0.450E-01    0.453E-01
DAV:   5    -0.135682325917E+04    0.52429E-02   -0.17325E-02  2312   0.261E-01    0.186E-01
DAV:   6    -0.135682353012E+04   -0.27094E-03   -0.12762E-02  2400   0.207E-01    0.138E-01
DAV:   7    -0.135682354299E+04   -0.12877E-04   -0.54660E-03  2400   0.135E-01    0.105E-01
DAV:   8    -0.135682351536E+04    0.27630E-04   -0.19118E-03  2592   0.857E-02    0.615E-02
DAV:   9    -0.135682349237E+04    0.22989E-04   -0.45240E-04  2552   0.433E-02    0.387E-02
DAV:  10    -0.135682349932E+04   -0.69495E-05   -0.14784E-04  2608   0.238E-02    0.227E-02
DAV:  11    -0.135682350380E+04   -0.44772E-05   -0.62662E-05  2488   0.165E-02    0.161E-02
DAV:  12    -0.135682350151E+04    0.22883E-05   -0.33418E-05  2344   0.135E-02    0.125E-02
DAV:  13    -0.135682350079E+04    0.72419E-06   -0.25286E-05  2208   0.894E-03    0.677E-03
DAV:  14    -0.135682350031E+04    0.47452E-06   -0.40671E-06  1256   0.537E-03
  12 F= -.13568235E+04 E0= -.13568235E+04  d E =-.830456E+00
 BRION: g(F)=  0.348E+00 g(S)=  0.000E+00 retain N=  5 mean eig= 4.15
 eig:   7.758  7.758  2.000  2.000  1.250
 bond charge predicted
       N       E                     dE             d eps       ncg     rms          rms(c)
DAV:   1    -0.135721513415E+04   -0.39163E+00   -0.63014E+01  1392   0.114E+01    0.137E+00
DAV:   2    -0.135755504929E+04   -0.33992E+00   -0.36030E+00  2288   0.461E+00    0.694E-01
DAV:   3    -0.135757569278E+04   -0.20643E-01   -0.29647E-01  2584   0.912E-01    0.568E-01
DAV:   4    -0.135757108518E+04    0.46076E-02   -0.28860E-02  2600   0.415E-01    0.408E-01
DAV:   5    -0.135756641370E+04    0.46715E-02   -0.14633E-02  2336   0.249E-01    0.166E-01
DAV:   6    -0.135756664861E+04   -0.23490E-03   -0.11347E-02  2424   0.200E-01    0.123E-01
DAV:   7    -0.135756669689E+04   -0.48285E-04   -0.46472E-03  2400   0.126E-01    0.981E-02
DAV:   8    -0.135756666433E+04    0.32563E-04   -0.14556E-03  2584   0.745E-02    0.546E-02
DAV:   9    -0.135756664092E+04    0.23407E-04   -0.39719E-04  2568   0.403E-02    0.342E-02
DAV:  10    -0.135756664893E+04   -0.80104E-05   -0.15774E-04  2536   0.243E-02    0.221E-02
DAV:  11    -0.135756664987E+04   -0.93725E-06   -0.66114E-05  2480   0.172E-02    0.140E-02
DAV:  12    -0.135756664947E+04    0.40002E-06   -0.33802E-05  2312   0.131E-02    0.128E-02
DAV:  13    -0.135756664813E+04    0.13350E-05   -0.23283E-05  2144   0.882E-03    0.666E-03
DAV:  14    -0.135756664799E+04    0.14495E-06   -0.87078E-06  1744   0.577E-03
  13 F= -.13575666E+04 E0= -.13575666E+04  d E =-.743148E+00
 BRION: g(F)=  0.316E+00 g(S)=  0.000E+00 retain N=  4 mean eig= 3.91
 eig:   6.105  6.105  1.710  1.710
 bond charge predicted
       N       E                     dE             d eps       ncg     rms          rms(c)
DAV:   1    -0.135795890931E+04   -0.39226E+00   -0.55540E+01  1392   0.107E+01    0.131E+00
DAV:   2    -0.135826369608E+04   -0.30479E+00   -0.32405E+00  2296   0.434E+00    0.667E-01
DAV:   3    -0.135828285614E+04   -0.19160E-01   -0.27168E-01  2584   0.870E-01    0.546E-01
DAV:   4    -0.135827884949E+04    0.40066E-02   -0.27223E-02  2608   0.401E-01    0.382E-01
DAV:   5    -0.135827527785E+04    0.35716E-02   -0.13197E-02  2368   0.226E-01    0.155E-01
DAV:   6    -0.135827551067E+04   -0.23282E-03   -0.84675E-03  2432   0.168E-01    0.115E-01
DAV:   7    -0.135827549663E+04    0.14045E-04   -0.35946E-03  2424   0.112E-01    0.842E-02
DAV:   8    -0.135827548911E+04    0.75178E-05   -0.14003E-03  2584   0.717E-02    0.519E-02
DAV:   9    -0.135827547141E+04    0.17697E-04   -0.31205E-04  2528   0.365E-02    0.338E-02
DAV:  10    -0.135827547416E+04   -0.27450E-05   -0.11848E-04  2560   0.209E-02    0.197E-02
DAV:  11    -0.135827547675E+04   -0.25979E-05   -0.47106E-05  2464   0.143E-02    0.132E-02
DAV:  12    -0.135827547523E+04    0.15193E-05   -0.24248E-05  2272   0.114E-02    0.979E-03
DAV:  13    -0.135827547499E+04    0.24778E-06   -0.17130E-05  2032   0.755E-03    0.547E-03
DAV:  14    -0.135827547461E+04    0.37553E-06   -0.22344E-06  1040   0.489E-03
  14 F= -.13582755E+04 E0= -.13582755E+04  d E =-.708827E+00
 BRION: g(F)=  0.292E+00 g(S)=  0.000E+00 retain N=  3 mean eig= 3.62
 eig:   4.702  4.702  1.469
 bond charge predicted
       N       E                     dE             d eps       ncg     rms          rms(c)
DAV:   1    -0.135861830630E+04   -0.34283E+00   -0.40434E+01  1392   0.915E+00    0.111E+00
DAV:   2    -0.135883924246E+04   -0.22094E+00   -0.23431E+00  2280   0.368E+00    0.573E-01
DAV:   3    -0.135885261523E+04   -0.13373E-01   -0.19602E-01  2576   0.749E-01    0.463E-01
DAV:   4    -0.135884927000E+04    0.33452E-02   -0.20629E-02  2608   0.346E-01    0.317E-01
DAV:   5    -0.135884672581E+04    0.25442E-02   -0.95206E-03  2424   0.196E-01    0.131E-01
DAV:   6    -0.135884681070E+04   -0.84887E-04   -0.59571E-03  2440   0.144E-01    0.896E-02
DAV:   7    -0.135884686048E+04   -0.49785E-04   -0.26075E-03  2456   0.966E-02    0.709E-02
DAV:   8    -0.135884684896E+04    0.11517E-04   -0.86122E-04  2608   0.564E-02    0.433E-02
DAV:   9    -0.135884683747E+04    0.11490E-04   -0.22717E-04  2536   0.305E-02    0.273E-02
DAV:  10    -0.135884684087E+04   -0.33944E-05   -0.10241E-04  2560   0.192E-02    0.179E-02
DAV:  11    -0.135884684072E+04    0.14734E-06   -0.40338E-05  2408   0.135E-02    0.964E-03
DAV:  12    -0.135884684056E+04    0.15690E-06   -0.17767E-05  2072   0.968E-03    0.799E-03
DAV:  13    -0.135884684024E+04    0.32637E-06   -0.98033E-06  1760   0.621E-03
  15 F= -.13588468E+04 E0= -.13588468E+04  d E =-.571366E+00
 BRION: g(F)=  0.266E+00 g(S)=  0.000E+00 retain N=  3 mean eig= 3.38
 eig:   4.406  4.406  1.321
 bond charge predicted
       N       E                     dE             d eps       ncg     rms          rms(c)
DAV:   1    -0.135914730457E+04   -0.30046E+00   -0.24957E+01  1392   0.714E+00    0.839E-01
DAV:   2    -0.135928003238E+04   -0.13273E+00   -0.14026E+00  2296   0.281E+00    0.433E-01
DAV:   3    -0.135928805038E+04   -0.80180E-02   -0.11500E-01  2584   0.561E-01    0.351E-01
DAV:   4    -0.135928621969E+04    0.18307E-02   -0.11203E-02  2584   0.258E-01    0.248E-01
DAV:   5    -0.135928445044E+04    0.17692E-02   -0.57557E-03  2296   0.155E-01    0.987E-02
DAV:   6    -0.135928455023E+04   -0.99794E-04   -0.40970E-03  2400   0.118E-01    0.774E-02
DAV:   7    -0.135928455574E+04   -0.55100E-05   -0.15142E-03  2440   0.728E-02    0.582E-02
DAV:   8    -0.135928454150E+04    0.14247E-04   -0.56143E-04  2584   0.451E-02    0.315E-02
DAV:   9    -0.135928453440E+04    0.71001E-05   -0.14246E-04  2448   0.243E-02    0.208E-02
DAV:  10    -0.135928453623E+04   -0.18373E-05   -0.54371E-05  2472   0.144E-02    0.137E-02
DAV:  11    -0.135928453591E+04    0.32400E-06   -0.22620E-05  2280   0.103E-02    0.748E-03
DAV:  12    -0.135928453608E+04   -0.17324E-06   -0.10399E-05  1816   0.747E-03    0.687E-03
DAV:  13    -0.135928453567E+04    0.41409E-06   -0.56390E-06  1456   0.519E-03
  16 F= -.13592845E+04 E0= -.13592845E+04  d E =-.437695E+00
 BRION: g(F)=  0.243E+00 g(S)=  0.000E+00 retain N=  3 mean eig= 3.35
 eig:   4.404  4.404  1.247
 bond charge predicted
       N       E                     dE             d eps       ncg     rms          rms(c)
DAV:   1    -0.135960181107E+04   -0.31727E+00   -0.47489E+01  1400   0.981E+00    0.117E+00
DAV:   2    -0.135985348083E+04   -0.25167E+00   -0.26507E+00  2288   0.385E+00    0.596E-01
DAV:   3    -0.135986888046E+04   -0.15400E-01   -0.21845E-01  2584   0.773E-01    0.482E-01
DAV:   4    -0.135986547446E+04    0.34060E-02   -0.21734E-02  2600   0.355E-01    0.337E-01
DAV:   5    -0.135986231954E+04    0.31549E-02   -0.10403E-02  2328   0.205E-01    0.138E-01
DAV:   6    -0.135986244211E+04   -0.12257E-03   -0.70767E-03  2416   0.154E-01    0.100E-01
DAV:   7    -0.135986245116E+04   -0.90485E-05   -0.27348E-03  2440   0.987E-02    0.760E-02
DAV:   8    -0.135986243187E+04    0.19295E-04   -0.10487E-03  2592   0.616E-02    0.459E-02
DAV:   9    -0.135986241701E+04    0.14858E-04   -0.26918E-04  2512   0.330E-02    0.286E-02
DAV:  10    -0.135986241934E+04   -0.23326E-05   -0.10204E-04  2544   0.194E-02    0.180E-02
DAV:  11    -0.135986241997E+04   -0.62857E-06   -0.36352E-05  2368   0.130E-02    0.109E-02
DAV:  12    -0.135986241928E+04    0.69452E-06   -0.20655E-05  2208   0.101E-02    0.845E-03
DAV:  13    -0.135986241908E+04    0.19354E-06   -0.12256E-05  1784   0.662E-03    0.501E-03
DAV:  14    -0.135986241881E+04    0.26808E-06   -0.29991E-06  1152   0.483E-03
  17 F= -.13598624E+04 E0= -.13598624E+04  d E =-.577883E+00
 BRION: g(F)=  0.222E+00 g(S)=  0.000E+00 retain N=  3 mean eig= 4.13
 eig:   5.518  5.518  1.353
 bond charge predicted
       N       E                     dE             d eps       ncg     rms          rms(c)
DAV:   1    -0.136009744510E+04   -0.23503E+00   -0.90252E+01  1392   0.135E+01    0.158E+00
DAV:   2    -0.136057144379E+04   -0.47400E+00   -0.49919E+00  2296   0.527E+00    0.810E-01
DAV:   3    -0.136059969548E+04   -0.28252E-01   -0.40767E-01  2584   0.105E+00    0.657E-01
DAV:   4    -0.136059339191E+04    0.63036E-02   -0.39787E-02  2608   0.477E-01    0.469E-01
DAV:   5    -0.136058669464E+04    0.66973E-02   -0.19176E-02  2304   0.281E-01    0.199E-01
DAV:   6    -0.136058663041E+04    0.64229E-04   -0.14762E-02  2360   0.222E-01    0.139E-01
DAV:   7    -0.136058674039E+04   -0.10998E-03   -0.62523E-03  2400   0.146E-01    0.114E-01
DAV:   8    -0.136058667085E+04    0.69543E-04   -0.19344E-03  2600   0.877E-02    0.680E-02
DAV:   9    -0.136058663593E+04    0.34917E-04   -0.68749E-04  2528   0.495E-02    0.386E-02
DAV:  10    -0.136058664913E+04   -0.13198E-04   -0.22504E-04  2544   0.293E-02    0.286E-02
DAV:  11    -0.136058664713E+04    0.19973E-05   -0.86775E-05  2464   0.197E-02    0.174E-02
DAV:  12    -0.136058664602E+04    0.11075E-05   -0.59642E-05  2328   0.156E-02    0.149E-02
DAV:  13    -0.136058664467E+04    0.13519E-05   -0.30421E-05  2192   0.103E-02    0.855E-03
DAV:  14    -0.136058664428E+04    0.39295E-06   -0.10368E-05  1760   0.621E-03    0.331E-03
DAV:  15    -0.136058664426E+04    0.16094E-07   -0.12271E-06   968   0.394E-03
  18 F= -.13605866E+04 E0= -.13605866E+04  d E =-.724225E+00
 BRION: g(F)=  0.195E+00 g(S)=  0.000E+00 retain N=  3 mean eig= 5.33
 eig:   1.563  7.220  7.220
 bond charge predicted
       N       E                     dE             d eps       ncg     rms          rms(c)
DAV:   1    -0.136079499327E+04   -0.20835E+00   -0.60439E+01  1384   0.110E+01    0.129E+00
DAV:   2    -0.136110626181E+04   -0.31127E+00   -0.32655E+00  2288   0.424E+00    0.659E-01
DAV:   3    -0.136112419578E+04   -0.17934E-01   -0.26179E-01  2584   0.841E-01    0.534E-01
DAV:   4    -0.136111995008E+04    0.42457E-02   -0.25192E-02  2600   0.374E-01    0.380E-01
DAV:   5    -0.136111526729E+04    0.46828E-02   -0.12935E-02  2272   0.233E-01    0.156E-01
DAV:   6    -0.136111535959E+04   -0.92296E-04   -0.10064E-02  2336   0.181E-01    0.118E-01
DAV:   7    -0.136111536826E+04   -0.86681E-05   -0.37372E-03  2400   0.114E-01    0.933E-02
DAV:   8    -0.136111531951E+04    0.48749E-04   -0.13803E-03  2552   0.707E-02    0.534E-02
DAV:   9    -0.136111529686E+04    0.22648E-04   -0.41769E-04  2464   0.395E-02    0.316E-02
DAV:  10    -0.136111530206E+04   -0.52001E-05   -0.14724E-04  2496   0.232E-02    0.218E-02
DAV:  11    -0.136111530077E+04    0.12883E-05   -0.47941E-05  2424   0.154E-02    0.127E-02
DAV:  12    -0.136111530054E+04    0.23439E-06   -0.34814E-05  2296   0.119E-02    0.108E-02
DAV:  13    -0.136111529990E+04    0.64439E-06   -0.16826E-05  1968   0.787E-03    0.619E-03
DAV:  14    -0.136111529957E+04    0.32135E-06   -0.48748E-06  1328   0.525E-03
  19 F= -.13611153E+04 E0= -.13611153E+04  d E =-.528655E+00
 BRION: g(F)=  0.171E+00 g(S)=  0.000E+00 retain N=  2 mean eig= 5.21
 eig:   5.213  5.213
 bond charge predicted
       N       E                     dE             d eps       ncg     rms          rms(c)
DAV:   1    -0.136126789867E+04   -0.15260E+00   -0.59230E+01  1368   0.108E+01    0.127E+00
DAV:   2    -0.136157048014E+04   -0.30258E+00   -0.31735E+00  2312   0.419E+00    0.656E-01
DAV:   3    -0.136158594294E+04   -0.15463E-01   -0.24153E-01  2584   0.812E-01    0.531E-01
DAV:   4    -0.136158128464E+04    0.46583E-02   -0.24987E-02  2592   0.362E-01    0.367E-01
DAV:   5    -0.136157678709E+04    0.44975E-02   -0.12896E-02  2256   0.231E-01    0.147E-01
DAV:   6    -0.136157694213E+04   -0.15504E-03   -0.91997E-03  2360   0.171E-01    0.117E-01
DAV:   7    -0.136157691813E+04    0.24000E-04   -0.32323E-03  2384   0.107E-01    0.888E-02
DAV:   8    -0.136157687855E+04    0.39582E-04   -0.13360E-03  2584   0.680E-02    0.506E-02
DAV:   9    -0.136157686431E+04    0.14241E-04   -0.34494E-04  2480   0.369E-02    0.320E-02
DAV:  10    -0.136157686563E+04   -0.13209E-05   -0.13228E-04  2520   0.219E-02    0.205E-02
DAV:  11    -0.136157686506E+04    0.56950E-06   -0.42910E-05  2424   0.149E-02    0.115E-02
DAV:  12    -0.136157686490E+04    0.16059E-06   -0.28459E-05  2296   0.108E-02    0.943E-03
DAV:  13    -0.136157686446E+04    0.44100E-06   -0.12735E-05  1808   0.702E-03    0.525E-03
DAV:  14    -0.136157686418E+04    0.27796E-06   -0.33627E-06  1168   0.504E-03
  20 F= -.13615769E+04 E0= -.13615769E+04  d E =-.461565E+00
 BRION: g(F)=  0.151E+00 g(S)=  0.000E+00 retain N=  2 mean eig= 4.73
 eig:   4.729  4.729
