 running on  160 total cores
 distrk:  each k-point on  160 cores,    1 groups
 distr:  one band on   20 cores,    8 groups
 using from now: INCAR     
 vasp.5.4.4.18Apr17-6-g9f103f2a35 (build May 01 2020 14:22:42) gamma-only       
  
 POSCAR found type information on POSCAR  O  La Zr Li Al
 POSCAR found :  5 types and     186 ions
 scaLAPACK will be used
 LDA part: xc-table for Pade appr. of Perdew
 POSCAR, INCAR and KPOINTS ok, starting setup
 FFT: planning ...
 WAVECAR not read
 WARNING: random wavefunctions but no delay for mixing, default for NELMDL
 entering main loop
       N       E                     dE             d eps       ncg     rms          rms(c)
DAV:   1     0.253323391235E+05    0.25332E+05   -0.42150E+05  1584   0.253E+03
DAV:   2     0.953081515886E+04   -0.15802E+05   -0.14629E+05  1440   0.710E+02
DAV:   3     0.272956222966E+04   -0.68013E+04   -0.61958E+04  1512   0.356E+02
DAV:   4    -0.345995267168E+03   -0.30756E+04   -0.28683E+04  2032   0.222E+02
DAV:   5    -0.140711081338E+04   -0.10611E+04   -0.10250E+04  2536   0.142E+02    0.116E+02
DAV:   6    -0.129627494014E+04    0.11084E+03   -0.14266E+03  2416   0.656E+01    0.500E+01
DAV:   7    -0.131963182822E+04   -0.23357E+02   -0.39612E+02  2560   0.340E+01    0.252E+01
DAV:   8    -0.132803153568E+04   -0.83997E+01   -0.26011E+02  2528   0.270E+01    0.258E+01
DAV:   9    -0.132123882319E+04    0.67927E+01   -0.54564E+01  2464   0.150E+01    0.771E+00
DAV:  10    -0.132220782204E+04   -0.96900E+00   -0.15972E+01  2616   0.810E+00    0.704E+00
DAV:  11    -0.132254082144E+04   -0.33300E+00   -0.59989E+00  2624   0.440E+00    0.402E+00
DAV:  12    -0.132238611316E+04    0.15471E+00   -0.22948E+00  2560   0.349E+00    0.273E+00
DAV:  13    -0.132244392032E+04   -0.57807E-01   -0.86824E-01  2560   0.173E+00    0.185E+00
DAV:  14    -0.132243254547E+04    0.11375E-01   -0.29288E-01  2608   0.110E+00    0.106E+00
DAV:  15    -0.132243937158E+04   -0.68261E-02   -0.83814E-02  2528   0.602E-01    0.867E-01
DAV:  16    -0.132243932997E+04    0.41604E-04   -0.26824E-02  2624   0.296E-01    0.479E-01
DAV:  17    -0.132243761649E+04    0.17135E-02   -0.22937E-02  2408   0.291E-01    0.237E-01
DAV:  18    -0.132243800286E+04   -0.38637E-03   -0.54412E-03  2464   0.155E-01    0.956E-02
DAV:  19    -0.132243805918E+04   -0.56319E-04   -0.14776E-03  2616   0.792E-02    0.753E-02
DAV:  20    -0.132243810767E+04   -0.48490E-04   -0.42333E-04  2624   0.386E-02    0.203E-02
DAV:  21    -0.132243811798E+04   -0.10306E-04   -0.14134E-04  2592   0.227E-02    0.218E-02
DAV:  22    -0.132243813151E+04   -0.13533E-04   -0.59232E-05  2368   0.148E-02    0.862E-03
DAV:  23    -0.132243813076E+04    0.74781E-06   -0.24988E-05  1872   0.919E-03    0.441E-03
DAV:  24    -0.132243813431E+04   -0.35466E-05   -0.82329E-06  1176   0.686E-03    0.200E-03
DAV:  25    -0.132243813399E+04    0.31728E-06   -0.34204E-06   992   0.454E-03
   1 F= -.13224381E+04 E0= -.13224381E+04  d E =-.132244E+04
 BRION: g(F)=  0.702E+02 g(S)=  0.000E+00
 bond charge predicted
       N       E                     dE             d eps       ncg     rms          rms(c)
DAV:   1    -0.127136220891E+04    0.51076E+02   -0.89237E+03  1680   0.137E+02    0.357E+01
DAV:   2    -0.134594128968E+04   -0.74579E+02   -0.84364E+02  2584   0.640E+01    0.166E+01
DAV:   3    -0.134264352888E+04    0.32978E+01   -0.46228E+01  2624   0.169E+01    0.106E+01
DAV:   4    -0.133989122320E+04    0.27523E+01   -0.19794E+01  2312   0.942E+00    0.503E+00
DAV:   5    -0.133988055831E+04    0.10665E-01   -0.61650E+00  2536   0.513E+00    0.376E+00
DAV:   6    -0.133975129583E+04    0.12926E+00   -0.32592E+00  2568   0.311E+00    0.199E+00
DAV:   7    -0.133970098265E+04    0.50313E-01   -0.38462E-01  2456   0.181E+00    0.131E+00
DAV:   8    -0.133969991920E+04    0.10634E-02   -0.68705E-01  2416   0.141E+00    0.864E-01
DAV:   9    -0.133970089613E+04   -0.97692E-03   -0.11316E-01  2448   0.689E-01    0.755E-01
DAV:  10    -0.133969716709E+04    0.37290E-02   -0.48011E-02  2552   0.357E-01    0.380E-01
DAV:  11    -0.133969627124E+04    0.89585E-03   -0.25281E-02  2600   0.283E-01    0.137E-01
DAV:  12    -0.133969675198E+04   -0.48074E-03   -0.53720E-03  2248   0.161E-01    0.114E-01
DAV:  13    -0.133969675472E+04   -0.27385E-05   -0.11550E-03  2608   0.651E-02    0.760E-02
DAV:  14    -0.133969672135E+04    0.33372E-04   -0.61375E-04  2624   0.456E-02    0.358E-02
DAV:  15    -0.133969673324E+04   -0.11887E-04   -0.13174E-04  2624   0.258E-02    0.205E-02
DAV:  16    -0.133969673087E+04    0.23637E-05   -0.38900E-05  2624   0.137E-02    0.156E-02
DAV:  17    -0.133969673054E+04    0.33402E-06   -0.30229E-05  2392   0.969E-03    0.746E-03
DAV:  18    -0.133969673034E+04    0.20213E-06   -0.46882E-06  1248   0.584E-03
   2 F= -.13396967E+04 E0= -.13396967E+04  d E =-.172586E+02
 BRION: g(F)=  0.107E+03 g(S)=  0.000E+00 retain N=  1 mean eig= 0.43
 eig:   0.429
 bond charge predicted
       N       E                     dE             d eps       ncg     rms          rms(c)
DAV:   1    -0.132127844383E+04    0.18418E+02   -0.30492E+03  1360   0.750E+01    0.223E+01
DAV:   2    -0.135430820590E+04   -0.33030E+02   -0.41433E+02  2528   0.356E+01    0.183E+01
DAV:   3    -0.135147281370E+04    0.28354E+01   -0.33932E+01  2536   0.128E+01    0.142E+01
DAV:   4    -0.134903540136E+04    0.24374E+01   -0.32454E+01  2152   0.749E+00    0.638E+00
DAV:   5    -0.134993139699E+04   -0.89600E+00   -0.10094E+01  2320   0.433E+00    0.866E+00
DAV:   6    -0.134867763890E+04    0.12538E+01   -0.14011E+01  2384   0.372E+00    0.187E+00
DAV:   7    -0.134872075357E+04   -0.43115E-01   -0.14624E+00  2408   0.258E+00    0.140E+00
DAV:   8    -0.134871153265E+04    0.92209E-02   -0.45869E-01  2584   0.111E+00    0.577E-01
DAV:   9    -0.134871110950E+04    0.42315E-03   -0.62032E-02  2528   0.550E-01    0.318E-01
DAV:  10    -0.134871167028E+04   -0.56078E-03   -0.18220E-02  2320   0.263E-01    0.180E-01
DAV:  11    -0.134871198876E+04   -0.31848E-03   -0.53778E-03  2576   0.148E-01    0.175E-01
DAV:  12    -0.134871156793E+04    0.42082E-03   -0.41129E-03  2592   0.113E-01    0.632E-02
DAV:  13    -0.134871166156E+04   -0.93628E-04   -0.17557E-03  2600   0.783E-02    0.607E-02
DAV:  14    -0.134871164954E+04    0.12022E-04   -0.33331E-04  2616   0.364E-02    0.378E-02
DAV:  15    -0.134871163789E+04    0.11653E-04   -0.14046E-04  2624   0.221E-02    0.160E-02
DAV:  16    -0.134871163844E+04   -0.54938E-06   -0.63494E-05  2584   0.139E-02    0.551E-03
DAV:  17    -0.134871163921E+04   -0.77236E-06   -0.76936E-06  1752   0.753E-03
   3 F= -.13487116E+04 E0= -.13487116E+04  d E =-.901491E+01
 BRION: g(F)=  0.177E+02 g(S)=  0.000E+00 retain N=  2 mean eig= 1.37
 eig:   0.267  2.465
 bond charge predicted
       N       E                     dE             d eps       ncg     rms          rms(c)
DAV:   1    -0.134842175718E+04    0.28988E+00   -0.70019E+02  1360   0.320E+01    0.759E+00
DAV:   2    -0.135280677848E+04   -0.43850E+01   -0.52161E+01  2432   0.146E+01    0.430E+00
DAV:   3    -0.135268078701E+04    0.12599E+00   -0.33122E+00  2544   0.435E+00    0.350E+00
DAV:   4    -0.135249098580E+04    0.18980E+00   -0.15368E+00  2320   0.200E+00    0.161E+00
DAV:   5    -0.135248194279E+04    0.90430E-02   -0.44132E-01  2464   0.128E+00    0.153E+00
DAV:   6    -0.135244934183E+04    0.32601E-01   -0.34904E-01  2480   0.109E+00    0.634E-01
DAV:   7    -0.135245175323E+04   -0.24114E-02   -0.13046E-01  2472   0.610E-01    0.546E-01
DAV:   8    -0.135245027079E+04    0.14824E-02   -0.28545E-02  2592   0.300E-01    0.340E-01
DAV:   9    -0.135244871063E+04    0.15602E-02   -0.11039E-02  2496   0.186E-01    0.172E-01
DAV:  10    -0.135244928253E+04   -0.57190E-03   -0.11023E-02  2456   0.150E-01    0.155E-01
DAV:  11    -0.135244881231E+04    0.47022E-03   -0.19030E-03  2520   0.944E-02    0.642E-02
DAV:  12    -0.135244885754E+04   -0.45232E-04   -0.12893E-03  2552   0.544E-02    0.275E-02
DAV:  13    -0.135244885888E+04   -0.13357E-05   -0.96245E-05  2600   0.233E-02    0.157E-02
DAV:  14    -0.135244885838E+04    0.49996E-06   -0.38113E-05  2304   0.104E-02    0.722E-03
DAV:  15    -0.135244885892E+04   -0.53798E-06   -0.88531E-06  1712   0.660E-03
   4 F= -.13524489E+04 E0= -.13524489E+04  d E =-.373722E+01
 BRION: g(F)=  0.532E+01 g(S)=  0.000E+00 retain N=  3 mean eig= 2.66
 eig:   7.160  0.406  0.406
 bond charge predicted
       N       E                     dE             d eps       ncg     rms          rms(c)
DAV:   1    -0.135374017856E+04   -0.12913E+01   -0.24320E+02  1352   0.216E+01    0.360E+00
DAV:   2    -0.135492762568E+04   -0.11874E+01   -0.12804E+01  2288   0.804E+00    0.190E+00
DAV:   3    -0.135494073007E+04   -0.13104E-01   -0.86129E-01  2600   0.172E+00    0.158E+00
DAV:   4    -0.135489559809E+04    0.45132E-01   -0.26801E-01  2512   0.101E+00    0.726E-01
DAV:   5    -0.135489273952E+04    0.28586E-02   -0.89403E-02  2488   0.612E-01    0.559E-01
DAV:   6    -0.135489042673E+04    0.23128E-02   -0.66041E-02  2576   0.456E-01    0.249E-01
DAV:   7    -0.135489062344E+04   -0.19671E-03   -0.17584E-02  2392   0.246E-01    0.217E-01
DAV:   8    -0.135489039139E+04    0.23205E-03   -0.49371E-03  2376   0.123E-01    0.114E-01
DAV:   9    -0.135489032439E+04    0.66993E-04   -0.28497E-03  2456   0.858E-02    0.650E-02
DAV:  10    -0.135489036291E+04   -0.38517E-04   -0.79507E-04  2344   0.537E-02    0.631E-02
DAV:  11    -0.135489031841E+04    0.44502E-04   -0.32900E-04  2504   0.345E-02    0.289E-02
DAV:  12    -0.135489032223E+04   -0.38211E-05   -0.26193E-04  2384   0.262E-02    0.168E-02
DAV:  13    -0.135489032211E+04    0.11669E-06   -0.42314E-05  2232   0.142E-02    0.116E-02
DAV:  14    -0.135489032164E+04    0.47382E-06   -0.25751E-05  1856   0.827E-03    0.395E-03
DAV:  15    -0.135489032168E+04   -0.39872E-07   -0.29560E-06  1096   0.544E-03
   5 F= -.13548903E+04 E0= -.13548903E+04  d E =-.244146E+01
 BRION: g(F)=  0.255E+01 g(S)=  0.000E+00 retain N=  4 mean eig= 2.20
 eig:   7.065  0.731  0.502  0.502
 bond charge predicted
       N       E                     dE             d eps       ncg     rms          rms(c)
DAV:   1    -0.135555746764E+04   -0.66715E+00   -0.16980E+02  1344   0.179E+01    0.267E+00
DAV:   2    -0.135634178867E+04   -0.78432E+00   -0.83106E+00  2272   0.647E+00    0.139E+00
DAV:   3    -0.135635882898E+04   -0.17040E-01   -0.54644E-01  2592   0.136E+00    0.115E+00
DAV:   4    -0.135633381885E+04    0.25010E-01   -0.12686E-01  2440   0.708E-01    0.566E-01
DAV:   5    -0.135633135851E+04    0.24603E-02   -0.51870E-02  2456   0.437E-01    0.371E-01
DAV:   6    -0.135633067443E+04    0.68408E-03   -0.25496E-02  2560   0.291E-01    0.163E-01
DAV:   7    -0.135633079467E+04   -0.12023E-03   -0.63487E-03  2504   0.158E-01    0.118E-01
DAV:   8    -0.135633078420E+04    0.10467E-04   -0.14962E-03  2600   0.746E-02    0.602E-02
DAV:   9    -0.135633078958E+04   -0.53847E-05   -0.86185E-04  2568   0.515E-02    0.456E-02
DAV:  10    -0.135633079011E+04   -0.53173E-06   -0.23096E-04  2408   0.320E-02    0.357E-02
DAV:  11    -0.135633078016E+04    0.99577E-05   -0.20998E-04  2312   0.235E-02    0.136E-02
DAV:  12    -0.135633078049E+04   -0.33756E-06   -0.47116E-05  2288   0.145E-02    0.677E-03
DAV:  13    -0.135633078111E+04   -0.61266E-06   -0.14177E-05  1744   0.741E-03    0.466E-03
DAV:  14    -0.135633078098E+04    0.12528E-06   -0.25278E-06  1088   0.480E-03
   6 F= -.13563308E+04 E0= -.13563308E+04  d E =-.144046E+01
 BRION: g(F)=  0.175E+01 g(S)=  0.000E+00 retain N=  5 mean eig= 2.11
 eig:   5.731  3.003  0.655  0.655  0.491
 bond charge predicted
       N       E                     dE             d eps       ncg     rms          rms(c)
DAV:   1    -0.135659054398E+04   -0.25976E+00   -0.25901E+02  1352   0.223E+01    0.301E+00
DAV:   2    -0.135785843248E+04   -0.12679E+01   -0.13230E+01  2288   0.828E+00    0.164E+00
DAV:   3    -0.135789030053E+04   -0.31868E-01   -0.86337E-01  2608   0.167E+00    0.134E+00
DAV:   4    -0.135785531102E+04    0.34990E-01   -0.19562E-01  2488   0.865E-01    0.668E-01
DAV:   5    -0.135784982935E+04    0.54817E-02   -0.62752E-02  2480   0.497E-01    0.393E-01
DAV:   6    -0.135784937895E+04    0.45040E-03   -0.26848E-02  2560   0.297E-01    0.185E-01
DAV:   7    -0.135784928069E+04    0.98256E-04   -0.93697E-03  2320   0.188E-01    0.122E-01
DAV:   8    -0.135784942473E+04   -0.14403E-03   -0.29187E-03  2424   0.927E-02    0.851E-02
DAV:   9    -0.135784935791E+04    0.66817E-04   -0.84149E-04  2624   0.578E-02    0.419E-02
DAV:  10    -0.135784937875E+04   -0.20839E-04   -0.44955E-04  2536   0.399E-02    0.300E-02
DAV:  11    -0.135784937383E+04    0.49185E-05   -0.15750E-04  2536   0.250E-02    0.128E-02
DAV:  12    -0.135784937560E+04   -0.17760E-05   -0.35653E-05  2208   0.128E-02    0.683E-03
DAV:  13    -0.135784937645E+04   -0.84525E-06   -0.13147E-05  1704   0.700E-03    0.541E-03
DAV:  14    -0.135784937629E+04    0.15681E-06   -0.28978E-06  1088   0.570E-03
   7 F= -.13578494E+04 E0= -.13578494E+04  d E =-.151860E+01
 BRION: g(F)=  0.794E+00 g(S)=  0.000E+00 retain N=  6 mean eig= 1.99
 eig:   6.455  1.644  1.354  1.354  0.568  0.568
 bond charge predicted
       N       E                     dE             d eps       ncg     rms          rms(c)
DAV:   1    -0.135811309335E+04   -0.26372E+00   -0.97112E+01  1368   0.139E+01    0.188E+00
DAV:   2    -0.135858282781E+04   -0.46973E+00   -0.49470E+00  2280   0.517E+00    0.931E-01
DAV:   3    -0.135860546726E+04   -0.22639E-01   -0.38073E-01  2624   0.105E+00    0.735E-01
DAV:   4    -0.135859597892E+04    0.94883E-02   -0.47584E-02  2576   0.490E-01    0.423E-01
DAV:   5    -0.135859314314E+04    0.28358E-02   -0.22350E-02  2400   0.298E-01    0.178E-01
DAV:   6    -0.135859376343E+04   -0.62029E-03   -0.94400E-03  2568   0.186E-01    0.140E-01
DAV:   7    -0.135859364965E+04    0.11378E-03   -0.30343E-03  2456   0.109E-01    0.936E-02
DAV:   8    -0.135859363858E+04    0.11062E-04   -0.13436E-03  2536   0.665E-02    0.529E-02
DAV:   9    -0.135859361910E+04    0.19488E-04   -0.24705E-04  2528   0.352E-02    0.353E-02
DAV:  10    -0.135859362808E+04   -0.89850E-05   -0.26413E-04  2368   0.279E-02    0.257E-02
DAV:  11    -0.135859362211E+04    0.59751E-05   -0.69887E-05  2424   0.189E-02    0.107E-02
DAV:  12    -0.135859362444E+04   -0.23343E-05   -0.37227E-05  2272   0.107E-02    0.953E-03
DAV:  13    -0.135859362322E+04    0.12221E-05   -0.45932E-06  1304   0.641E-03    0.504E-03
DAV:  14    -0.135859362392E+04   -0.70437E-06   -0.13592E-05  1616   0.703E-03    0.396E-03
DAV:  15    -0.135859362365E+04    0.27266E-06   -0.13032E-06  1008   0.463E-03
   8 F= -.13585936E+04 E0= -.13585936E+04  d E =-.744247E+00
 BRION: g(F)=  0.505E+00 g(S)=  0.000E+00 retain N=  6 mean eig= 1.36
 eig:   2.803  2.803  0.796  0.259  0.759  0.759
 bond charge predicted
       N       E                     dE             d eps       ncg     rms          rms(c)
DAV:   1    -0.135884434406E+04   -0.25072E+00   -0.75715E+01  1368   0.124E+01    0.160E+00
DAV:   2    -0.135921356375E+04   -0.36922E+00   -0.39024E+00  2288   0.460E+00    0.791E-01
DAV:   3    -0.135923202226E+04   -0.18459E-01   -0.29692E-01  2616   0.945E-01    0.636E-01
DAV:   4    -0.135922531448E+04    0.67078E-02   -0.38592E-02  2584   0.436E-01    0.367E-01
DAV:   5    -0.135922324600E+04    0.20685E-02   -0.16002E-02  2392   0.254E-01    0.164E-01
DAV:   6    -0.135922368471E+04   -0.43870E-03   -0.71189E-03  2568   0.162E-01    0.115E-01
DAV:   7    -0.135922362055E+04    0.64155E-04   -0.24912E-03  2328   0.989E-02    0.748E-02
DAV:   8    -0.135922365575E+04   -0.35196E-04   -0.10937E-03  2416   0.593E-02    0.466E-02
DAV:   9    -0.135922363887E+04    0.16875E-04   -0.19890E-04  2536   0.317E-02    0.339E-02
DAV:  10    -0.135922364227E+04   -0.33971E-05   -0.23637E-04  2416   0.254E-02    0.222E-02
DAV:  11    -0.135922363881E+04    0.34643E-05   -0.73980E-05  2400   0.182E-02    0.802E-03
DAV:  12    -0.135922364008E+04   -0.12741E-05   -0.18949E-05  2072   0.988E-03    0.680E-03
DAV:  13    -0.135922363973E+04    0.35475E-06   -0.57297E-06  1392   0.587E-03
   9 F= -.13592236E+04 E0= -.13592236E+04  d E =-.630016E+00
 BRION: g(F)=  0.383E+00 g(S)=  0.000E+00 retain N=  7 mean eig= 1.34
 eig:   2.910  2.910  0.607  1.021  1.021  0.170  0.722
 bond charge predicted
       N       E                     dE             d eps       ncg     rms          rms(c)
DAV:   1    -0.135930764140E+04   -0.84001E-01   -0.10565E+02  1376   0.147E+01    0.174E+00
DAV:   2    -0.135983372755E+04   -0.52609E+00   -0.55536E+00  2272   0.554E+00    0.884E-01
DAV:   3    -0.135986458404E+04   -0.30856E-01   -0.44385E-01  2608   0.114E+00    0.710E-01
DAV:   4    -0.135985753618E+04    0.70479E-02   -0.44522E-02  2600   0.495E-01    0.479E-01
DAV:   5    -0.135985226969E+04    0.52665E-02   -0.21387E-02  2368   0.301E-01    0.188E-01
DAV:   6    -0.135985281956E+04   -0.54987E-03   -0.13177E-02  2456   0.224E-01    0.153E-01
DAV:   7    -0.135985282675E+04   -0.71913E-05   -0.58304E-03  2440   0.144E-01    0.112E-01
DAV:   8    -0.135985280008E+04    0.26677E-04   -0.20302E-03  2584   0.852E-02    0.636E-02
DAV:   9    -0.135985277474E+04    0.25339E-04   -0.43659E-04  2584   0.446E-02    0.443E-02
DAV:  10    -0.135985278011E+04   -0.53764E-05   -0.28755E-04  2552   0.302E-02    0.276E-02
DAV:  11    -0.135985277821E+04    0.19040E-05   -0.11341E-04  2456   0.227E-02    0.143E-02
DAV:  12    -0.135985277850E+04   -0.28730E-06   -0.42693E-05  2328   0.147E-02    0.131E-02
DAV:  13    -0.135985277724E+04    0.12605E-05   -0.26156E-05  2080   0.905E-03    0.639E-03
DAV:  14    -0.135985277713E+04    0.10150E-06   -0.68699E-06  1608   0.571E-03
  10 F= -.13598528E+04 E0= -.13598528E+04  d E =-.629137E+00
 BRION: g(F)=  0.288E+00 g(S)=  0.000E+00 retain N=  8 mean eig= 1.92
 eig:   4.617  4.617  2.027  2.027  0.232  0.232  0.788  0.788
 bond charge predicted
       N       E                     dE             d eps       ncg     rms          rms(c)
DAV:   1    -0.135992653161E+04   -0.73754E-01   -0.79928E+01  1376   0.128E+01    0.153E+00
DAV:   2    -0.136034187160E+04   -0.41534E+00   -0.43972E+00  2280   0.500E+00    0.778E-01
DAV:   3    -0.136036578303E+04   -0.23911E-01   -0.34822E-01  2584   0.995E-01    0.633E-01
DAV:   4    -0.136036037784E+04    0.54052E-02   -0.35746E-02  2592   0.443E-01    0.432E-01
DAV:   5    -0.136035626325E+04    0.41146E-02   -0.16408E-02  2392   0.251E-01    0.174E-01
DAV:   6    -0.136035653820E+04   -0.27495E-03   -0.93020E-03  2440   0.179E-01    0.119E-01
DAV:   7    -0.136035659273E+04   -0.54530E-04   -0.42381E-03  2448   0.122E-01    0.884E-02
DAV:   8    -0.136035659263E+04    0.91954E-07   -0.14068E-03  2608   0.731E-02    0.571E-02
DAV:   9    -0.136035657206E+04    0.20577E-04   -0.33914E-04  2544   0.383E-02    0.389E-02
DAV:  10    -0.136035657620E+04   -0.41383E-05   -0.16521E-04  2584   0.234E-02    0.221E-02
DAV:  11    -0.136035657805E+04   -0.18583E-05   -0.65309E-05  2464   0.168E-02    0.131E-02
DAV:  12    -0.136035657663E+04    0.14249E-05   -0.27247E-05  2328   0.123E-02    0.929E-03
DAV:  13    -0.136035657664E+04   -0.14348E-07   -0.18854E-05  2056   0.770E-03    0.508E-03
DAV:  14    -0.136035657635E+04    0.29674E-06   -0.18678E-06   992   0.481E-03
  11 F= -.13603566E+04 E0= -.13603566E+04  d E =-.503799E+00
 BRION: g(F)=  0.182E+00 g(S)=  0.000E+00 retain N=  9 mean eig= 2.49
 eig:   7.137  7.137  2.305  2.305  1.132  0.961  0.961  0.447  0.048
 bond charge predicted
       N       E                     dE             d eps       ncg     rms          rms(c)
DAV:   1    -0.136043270530E+04   -0.76129E-01   -0.50898E+01  1368   0.102E+01    0.122E+00
DAV:   2    -0.136069721245E+04   -0.26451E+00   -0.27940E+00  2296   0.401E+00    0.619E-01
DAV:   3    -0.136071259602E+04   -0.15384E-01   -0.21844E-01  2600   0.777E-01    0.503E-01
DAV:   4    -0.136070923291E+04    0.33631E-02   -0.21233E-02  2608   0.347E-01    0.350E-01
DAV:   5    -0.136070626443E+04    0.29685E-02   -0.10397E-02  2376   0.211E-01    0.135E-01
DAV:   6    -0.136070658517E+04   -0.32073E-03   -0.70763E-03  2464   0.157E-01    0.105E-01
DAV:   7    -0.136070657309E+04    0.12079E-04   -0.26648E-03  2424   0.973E-02    0.769E-02
DAV:   8    -0.136070655747E+04    0.15619E-04   -0.98758E-04  2600   0.602E-02    0.427E-02
DAV:   9    -0.136070654486E+04    0.12606E-04   -0.21264E-04  2480   0.309E-02    0.296E-02
DAV:  10    -0.136070654753E+04   -0.26697E-05   -0.10510E-04  2496   0.191E-02    0.170E-02
DAV:  11    -0.136070654781E+04   -0.27768E-06   -0.36150E-05  2392   0.133E-02    0.965E-03
DAV:  12    -0.136070654796E+04   -0.14351E-06   -0.16447E-05  2136   0.922E-03    0.842E-03
DAV:  13    -0.136070654741E+04    0.54555E-06   -0.10716E-05  1728   0.638E-03    0.409E-03
DAV:  14    -0.136070654724E+04    0.17139E-06   -0.18898E-06  1000   0.472E-03
  12 F= -.13607065E+04 E0= -.13607065E+04  d E =-.349971E+00
 BRION: g(F)=  0.147E+00 g(S)=  0.000E+00 retain N=  9 mean eig= 2.57
 eig:   6.882  6.882  2.140  1.945  1.945  0.709  0.826  0.826  1.015
 bond charge predicted
       N       E                     dE             d eps       ncg     rms          rms(c)
DAV:   1    -0.136075277475E+04   -0.46227E-01   -0.50009E+01  1368   0.102E+01    0.119E+00
DAV:   2    -0.136101159679E+04   -0.25882E+00   -0.27412E+00  2288   0.393E+00    0.600E-01
DAV:   3    -0.136102698563E+04   -0.15389E-01   -0.21989E-01  2592   0.785E-01    0.487E-01
DAV:   4    -0.136102379773E+04    0.31879E-02   -0.20760E-02  2600   0.345E-01    0.343E-01
DAV:   5    -0.136102089173E+04    0.29060E-02   -0.10639E-02  2352   0.200E-01    0.136E-01
DAV:   6    -0.136102107809E+04   -0.18636E-03   -0.63024E-03  2408   0.145E-01    0.104E-01
DAV:   7    -0.136102108343E+04   -0.53361E-05   -0.29732E-03  2416   0.991E-02    0.723E-02
DAV:   8    -0.136102108159E+04    0.18361E-05   -0.98342E-04  2600   0.616E-02    0.466E-02
DAV:   9    -0.136102106742E+04    0.14172E-04   -0.22463E-04  2536   0.313E-02    0.322E-02
DAV:  10    -0.136102106888E+04   -0.14585E-05   -0.10742E-04  2560   0.187E-02    0.173E-02
DAV:  11    -0.136102107108E+04   -0.22025E-05   -0.43187E-05  2416   0.139E-02    0.113E-02
DAV:  12    -0.136102106975E+04    0.13292E-05   -0.18292E-05  2224   0.102E-02    0.867E-03
DAV:  13    -0.136102106952E+04    0.23494E-06   -0.13596E-05  1776   0.670E-03    0.469E-03
DAV:  14    -0.136102106926E+04    0.26394E-06   -0.16568E-06   976   0.455E-03
  13 F= -.13610211E+04 E0= -.13610211E+04  d E =-.314522E+00
 BRION: g(F)=  0.132E+00 g(S)=  0.000E+00 retain N= 10 mean eig= 3.08
 eig:   7.598  7.598  4.413  4.413  2.235  0.739  0.900  0.900  1.012  1.012
 bond charge predicted
       N       E                     dE             d eps       ncg     rms          rms(c)
DAV:   1    -0.136103759743E+04   -0.16528E-01   -0.47737E+01  1368   0.992E+00    0.115E+00
DAV:   2    -0.136128245007E+04   -0.24485E+00   -0.25796E+00  2296   0.385E+00    0.583E-01
DAV:   3    -0.136129679576E+04   -0.14346E-01   -0.20244E-01  2584   0.754E-01    0.473E-01
DAV:   4    -0.136129392804E+04    0.28677E-02   -0.19127E-02  2592   0.326E-01    0.339E-01
DAV:   5    -0.136129096411E+04    0.29639E-02   -0.95688E-03  2360   0.198E-01    0.133E-01
DAV:   6    -0.136129117064E+04   -0.20654E-03   -0.66153E-03  2376   0.148E-01    0.965E-02
DAV:   7    -0.136129119406E+04   -0.23417E-04   -0.26414E-03  2400   0.932E-02    0.715E-02
DAV:   8    -0.136129118389E+04    0.10174E-04   -0.89249E-04  2600   0.583E-02    0.422E-02
DAV:   9    -0.136129117405E+04    0.98343E-05   -0.21035E-04  2536   0.305E-02    0.286E-02
DAV:  10    -0.136129117699E+04   -0.29356E-05   -0.82466E-05  2568   0.174E-02    0.167E-02
DAV:  11    -0.136129117808E+04   -0.10885E-05   -0.34857E-05  2400   0.126E-02    0.105E-02
DAV:  12    -0.136129117747E+04    0.60275E-06   -0.15470E-05  2080   0.927E-03    0.847E-03
DAV:  13    -0.136129117715E+04    0.32384E-06   -0.11842E-05  1768   0.638E-03    0.456E-03
DAV:  14    -0.136129117687E+04    0.28126E-06   -0.18763E-06   976   0.460E-03
  14 F= -.13612912E+04 E0= -.13612912E+04  d E =-.270108E+00
 BRION: g(F)=  0.923E-01 g(S)=  0.000E+00 retain N=  6 mean eig= 4.07
 eig:   7.840  7.840  3.100  3.100  1.281  1.281
 bond charge predicted
       N       E                     dE             d eps       ncg     rms          rms(c)
DAV:   1    -0.136133840495E+04   -0.47228E-01   -0.31241E+01  1376   0.802E+00    0.915E-01
DAV:   2    -0.136149884074E+04   -0.16044E+00   -0.16918E+00  2296   0.312E+00    0.462E-01
DAV:   3    -0.136150874394E+04   -0.99032E-02   -0.13565E-01  2584   0.608E-01    0.371E-01
DAV:   4    -0.136150699989E+04    0.17441E-02   -0.12477E-02  2600   0.266E-01    0.267E-01
DAV:   5    -0.136150525612E+04    0.17438E-02   -0.61533E-03  2376   0.153E-01    0.106E-01
DAV:   6    -0.136150536331E+04   -0.10719E-03   -0.38382E-03  2400   0.113E-01    0.755E-02
DAV:   7    -0.136150539023E+04   -0.26919E-04   -0.18596E-03  2448   0.777E-02    0.560E-02
DAV:   8    -0.136150538049E+04    0.97425E-05   -0.53179E-04  2592   0.474E-02    0.355E-02
DAV:   9    -0.136150537443E+04    0.60595E-05   -0.13900E-04  2528   0.240E-02    0.236E-02
DAV:  10    -0.136150537574E+04   -0.13155E-05   -0.51188E-05  2560   0.136E-02    0.134E-02
DAV:  11    -0.136150537699E+04   -0.12504E-05   -0.17996E-05  2184   0.939E-03    0.849E-03
DAV:  12    -0.136150537637E+04    0.62036E-06   -0.10751E-05  1752   0.743E-03    0.627E-03
DAV:  13    -0.136150537624E+04    0.13135E-06   -0.65716E-06  1528   0.561E-03
  15 F= -.13615054E+04 E0= -.13615054E+04  d E =-.214199E+00
 BRION: g(F)=  0.816E-01 g(S)=  0.000E+00 retain N=  4 mean eig= 4.05
 eig:   6.277  6.277  1.821  1.821
 bond charge predicted
       N       E                     dE             d eps       ncg     rms          rms(c)
DAV:   1    -0.136156152271E+04   -0.56146E-01   -0.19447E+01  1368   0.633E+00    0.720E-01
DAV:   2    -0.136165930062E+04   -0.97778E-01   -0.10311E+00  2280   0.241E+00    0.363E-01
DAV:   3    -0.136166539583E+04   -0.60952E-02   -0.83481E-02  2576   0.484E-01    0.293E-01
DAV:   4    -0.136166434164E+04    0.10542E-02   -0.77021E-03  2592   0.207E-01    0.211E-01
DAV:   5    -0.136166322264E+04    0.11190E-02   -0.40940E-03  2304   0.127E-01    0.806E-02
DAV:   6    -0.136166332991E+04   -0.10727E-03   -0.25531E-03  2416   0.936E-02    0.656E-02
DAV:   7    -0.136166332756E+04    0.23506E-05   -0.11028E-03  2424   0.606E-02    0.446E-02
DAV:   8    -0.136166332354E+04    0.40163E-05   -0.36161E-04  2544   0.377E-02    0.269E-02
DAV:   9    -0.136166332078E+04    0.27684E-05   -0.75775E-05  2496   0.188E-02    0.192E-02
DAV:  10    -0.136166332122E+04   -0.44460E-06   -0.36088E-05  2536   0.111E-02    0.100E-02
DAV:  11    -0.136166332163E+04   -0.41233E-06   -0.97437E-06  1624   0.819E-03
  16 F= -.13616633E+04 E0= -.13616633E+04  d E =-.157945E+00
 BRION: g(F)=  0.727E-01 g(S)=  0.000E+00 retain N=  3 mean eig= 3.63
 eig:   4.725  4.725  1.427
 bond charge predicted
       N       E                     dE             d eps       ncg     rms          rms(c)
DAV:   1    -0.136167857764E+04   -0.15256E-01   -0.36884E+01  1368   0.869E+00    0.974E-01
DAV:   2    -0.136186630475E+04   -0.18773E+00   -0.19742E+00  2296   0.335E+00    0.493E-01
DAV:   3    -0.136187780534E+04   -0.11501E-01   -0.15717E-01  2576   0.654E-01    0.393E-01
DAV:   4    -0.136187591560E+04    0.18897E-02   -0.14219E-02  2608   0.281E-01    0.288E-01
DAV:   5    -0.136187375992E+04    0.21557E-02   -0.68742E-03  2336   0.164E-01    0.117E-01
DAV:   6    -0.136187383343E+04   -0.73509E-04   -0.46797E-03  2384   0.124E-01    0.770E-02
DAV:   7    -0.136187387597E+04   -0.42541E-04   -0.21115E-03  2416   0.823E-02    0.586E-02
DAV:   8    -0.136187386828E+04    0.76885E-05   -0.58838E-04  2624   0.500E-02    0.385E-02
DAV:   9    -0.136187385998E+04    0.83093E-05   -0.17441E-04  2552   0.262E-02    0.241E-02
DAV:  10    -0.136187386239E+04   -0.24121E-05   -0.57405E-05  2576   0.148E-02    0.139E-02
DAV:  11    -0.136187386391E+04   -0.15249E-05   -0.19418E-05  2248   0.968E-03    0.906E-03
DAV:  12    -0.136187386320E+04    0.70910E-06   -0.13313E-05  1824   0.789E-03    0.682E-03
DAV:  13    -0.136187386300E+04    0.19863E-06   -0.72992E-06  1632   0.586E-03
  17 F= -.13618739E+04 E0= -.13618739E+04  d E =-.210541E+00
 BRION: g(F)=  0.649E-01 g(S)=  0.000E+00 retain N=  3 mean eig= 5.52
 eig:   7.462  7.462  1.629
 bond charge predicted
       N       E                     dE             d eps       ncg     rms          rms(c)
DAV:   1    -0.136192669357E+04   -0.52830E-01   -0.12789E+01  1368   0.514E+00    0.576E-01
DAV:   2    -0.136199116027E+04   -0.64467E-01   -0.67892E-01  2288   0.197E+00    0.291E-01
DAV:   3    -0.136199515349E+04   -0.39932E-02   -0.54677E-02  2576   0.390E-01    0.232E-01
DAV:   4    -0.136199447493E+04    0.67855E-03   -0.49586E-03  2592   0.167E-01    0.168E-01
DAV:   5    -0.136199375947E+04    0.71547E-03   -0.25895E-03  2336   0.999E-02    0.658E-02
DAV:   6    -0.136199380952E+04   -0.50057E-04   -0.15685E-03  2400   0.738E-02    0.487E-02
DAV:   7    -0.136199381687E+04   -0.73517E-05   -0.72488E-04  2440   0.488E-02    0.349E-02
DAV:   8    -0.136199381362E+04    0.32537E-05   -0.20921E-04  2568   0.299E-02    0.222E-02
DAV:   9    -0.136199381142E+04    0.21961E-05   -0.55232E-05  2480   0.151E-02    0.147E-02
DAV:  10    -0.136199381188E+04   -0.45165E-06   -0.18646E-05  2280   0.867E-03    0.818E-03
DAV:  11    -0.136199381190E+04   -0.23880E-07   -0.26786E-06  1072   0.612E-03
  18 F= -.13619938E+04 E0= -.13619938E+04  d E =-.119949E+00
 BRION: g(F)=  0.593E-01 g(S)=  0.000E+00 retain N=  3 mean eig= 4.18
 eig:   5.523  5.523  1.492
 bond charge predicted
       N       E                     dE             d eps       ncg     rms          rms(c)
DAV:   1    -0.136204014023E+04   -0.46328E-01   -0.18548E+01  1368   0.614E+00    0.679E-01
DAV:   2    -0.136213313182E+04   -0.92992E-01   -0.97676E-01  2296   0.235E+00    0.345E-01
DAV:   3    -0.136213887478E+04   -0.57430E-02   -0.78085E-02  2576   0.460E-01    0.273E-01
DAV:   4    -0.136213797491E+04    0.89987E-03   -0.68401E-03  2592   0.197E-01    0.203E-01
DAV:   5    -0.136213684656E+04    0.11283E-02   -0.35776E-03  2304   0.120E-01    0.822E-02
DAV:   6    -0.136213689465E+04   -0.48094E-04   -0.25075E-03  2328   0.920E-02    0.579E-02
DAV:   7    -0.136213691220E+04   -0.17547E-04   -0.11157E-03  2456   0.601E-02    0.438E-02
DAV:   8    -0.136213690485E+04    0.73544E-05   -0.31308E-04  2544   0.368E-02    0.268E-02
DAV:   9    -0.136213690142E+04    0.34320E-05   -0.92046E-05  2472   0.190E-02    0.169E-02
DAV:  10    -0.136213690277E+04   -0.13591E-05   -0.29137E-05  2504   0.109E-02    0.101E-02
DAV:  11    -0.136213690275E+04    0.22716E-07   -0.61966E-06  1288   0.733E-03
  19 F= -.13621369E+04 E0= -.13621369E+04  d E =-.143091E+00
 BRION: g(F)=  0.549E-01 g(S)=  0.000E+00 retain N=  2 mean eig= 3.67
 eig:   3.667  3.667
 bond charge predicted
       N       E                     dE             d eps       ncg     rms          rms(c)
DAV:   1    -0.136216709823E+04   -0.30195E-01   -0.25416E+01  1376   0.719E+00    0.786E-01
DAV:   2    -0.136229405954E+04   -0.12696E+00   -0.13327E+00  2304   0.277E+00    0.402E-01
DAV:   3    -0.136230177071E+04   -0.77112E-02   -0.10545E-01  2568   0.528E-01    0.316E-01
DAV:   4    -0.136230053409E+04    0.12366E-02   -0.92736E-03  2584   0.228E-01    0.234E-01
DAV:   5    -0.136229901876E+04    0.15153E-02   -0.47600E-03  2288   0.139E-01    0.954E-02
DAV:   6    -0.136229907440E+04   -0.55649E-04   -0.33379E-03  2328   0.105E-01    0.664E-02
DAV:   7    -0.136229910426E+04   -0.29857E-04   -0.14863E-03  2472   0.694E-02    0.510E-02
DAV:   8    -0.136229909226E+04    0.12001E-04   -0.40787E-04  2560   0.426E-02    0.311E-02
DAV:   9    -0.136229908724E+04    0.50236E-05   -0.12454E-04  2488   0.220E-02    0.192E-02
DAV:  10    -0.136229908927E+04   -0.20379E-05   -0.40746E-05  2512   0.127E-02    0.113E-02
DAV:  11    -0.136229908942E+04   -0.14373E-06   -0.11594E-05  1824   0.829E-03    0.632E-03
DAV:  12    -0.136229908952E+04   -0.99986E-07   -0.10089E-05  1632   0.704E-03    0.542E-03
DAV:  13    -0.136229908913E+04    0.38599E-06   -0.19403E-06  1000   0.503E-03
  20 F= -.13622991E+04 E0= -.13622991E+04  d E =-.162186E+00
 BRION: g(F)=  0.509E-01 g(S)=  0.000E+00 retain N=  3 mean eig= 5.78
 eig:   1.820  7.755  7.755
