 running on  160 total cores
 distrk:  each k-point on  160 cores,    1 groups
 distr:  one band on   20 cores,    8 groups
 using from now: INCAR     
 vasp.5.4.4.18Apr17-6-g9f103f2a35 (build May 01 2020 14:22:42) gamma-only       
  
 POSCAR found type information on POSCAR  O  La Zr Li Al
 POSCAR found :  5 types and     186 ions
 scaLAPACK will be used
 LDA part: xc-table for Pade appr. of Perdew
 POSCAR, INCAR and KPOINTS ok, starting setup
 FFT: planning ...
 WAVECAR not read
 WARNING: random wavefunctions but no delay for mixing, default for NELMDL
 entering main loop
       N       E                     dE             d eps       ncg     rms          rms(c)
DAV:   1     0.253126136218E+05    0.25313E+05   -0.42134E+05  1600   0.253E+03
DAV:   2     0.954805756669E+04   -0.15765E+05   -0.14639E+05  1440   0.708E+02
DAV:   3     0.272681152769E+04   -0.68212E+04   -0.62108E+04  1504   0.355E+02
DAV:   4    -0.326631349170E+03   -0.30534E+04   -0.28481E+04  2056   0.227E+02
DAV:   5    -0.139045030622E+04   -0.10638E+04   -0.10194E+04  2536   0.141E+02    0.116E+02
DAV:   6    -0.129363228007E+04    0.96818E+02   -0.15003E+03  2456   0.669E+01    0.501E+01
DAV:   7    -0.131745228443E+04   -0.23820E+02   -0.42792E+02  2544   0.348E+01    0.268E+01
DAV:   8    -0.132105296821E+04   -0.36007E+01   -0.24301E+02  2520   0.275E+01    0.230E+01
DAV:   9    -0.131810318614E+04    0.29498E+01   -0.40720E+01  2576   0.140E+01    0.770E+00
DAV:  10    -0.131873314449E+04   -0.62996E+00   -0.13697E+01  2624   0.728E+00    0.672E+00
DAV:  11    -0.131900930886E+04   -0.27616E+00   -0.54313E+00  2624   0.411E+00    0.385E+00
DAV:  12    -0.131892834587E+04    0.80963E-01   -0.18438E+00  2528   0.320E+00    0.250E+00
DAV:  13    -0.131896162774E+04   -0.33282E-01   -0.78779E-01  2568   0.161E+00    0.147E+00
DAV:  14    -0.131895891823E+04    0.27095E-02   -0.23013E-01  2608   0.986E-01    0.875E-01
DAV:  15    -0.131896527033E+04   -0.63521E-02   -0.75115E-02  2584   0.532E-01    0.640E-01
DAV:  16    -0.131896611999E+04   -0.84966E-03   -0.26663E-02  2608   0.308E-01    0.436E-01
DAV:  17    -0.131896531228E+04    0.80771E-03   -0.20683E-02  2408   0.271E-01    0.195E-01
DAV:  18    -0.131896552194E+04   -0.20967E-03   -0.42327E-03  2480   0.143E-01    0.116E-01
DAV:  19    -0.131896551010E+04    0.11847E-04   -0.27027E-03  2480   0.967E-02    0.813E-02
DAV:  20    -0.131896556084E+04   -0.50745E-04   -0.50276E-04  2552   0.461E-02    0.244E-02
DAV:  21    -0.131896558151E+04   -0.20662E-04   -0.19699E-04  2624   0.249E-02    0.338E-02
DAV:  22    -0.131896559773E+04   -0.16226E-04   -0.63205E-05  2480   0.157E-02    0.155E-02
DAV:  23    -0.131896559248E+04    0.52487E-05   -0.43426E-05  2224   0.113E-02    0.105E-02
DAV:  24    -0.131896559813E+04   -0.56458E-05   -0.10680E-05  1376   0.825E-03    0.304E-03
DAV:  25    -0.131896559816E+04   -0.36351E-07   -0.36635E-06  1016   0.500E-03
   1 F= -.13189656E+04 E0= -.13189656E+04  d E =-.131897E+04
 BRION: g(F)=  0.739E+02 g(S)=  0.000E+00
 bond charge predicted
       N       E                     dE             d eps       ncg     rms          rms(c)
DAV:   1    -0.125177452752E+04    0.67191E+02   -0.10248E+04  1624   0.151E+02    0.399E+01
DAV:   2    -0.133694017934E+04   -0.85166E+02   -0.98306E+02  2568   0.691E+01    0.180E+01
DAV:   3    -0.133369792254E+04    0.32423E+01   -0.56988E+01  2616   0.188E+01    0.115E+01
DAV:   4    -0.133089381327E+04    0.28041E+01   -0.21320E+01  2384   0.962E+00    0.533E+00
DAV:   5    -0.133085372963E+04    0.40084E-01   -0.63581E+00  2504   0.529E+00    0.386E+00
DAV:   6    -0.133075288260E+04    0.10085E+00   -0.30941E+00  2608   0.304E+00    0.193E+00
DAV:   7    -0.133072891178E+04    0.23971E-01   -0.40815E-01  2568   0.168E+00    0.109E+00
DAV:   8    -0.133073301635E+04   -0.41046E-02   -0.42620E-01  2552   0.113E+00    0.772E-01
DAV:   9    -0.133073258646E+04    0.42989E-03   -0.70967E-02  2544   0.567E-01    0.576E-01
DAV:  10    -0.133073058263E+04    0.20038E-02   -0.39150E-02  2608   0.339E-01    0.234E-01
DAV:  11    -0.133073128298E+04   -0.70035E-03   -0.16290E-02  2608   0.227E-01    0.158E-01
DAV:  12    -0.133073118871E+04    0.94270E-04   -0.29116E-03  2552   0.124E-01    0.969E-02
DAV:  13    -0.133073119120E+04   -0.24916E-05   -0.18887E-03  2592   0.747E-02    0.281E-02
DAV:  14    -0.133073122133E+04   -0.30124E-04   -0.29527E-04  2624   0.361E-02    0.142E-02
DAV:  15    -0.133073122718E+04   -0.58538E-05   -0.67670E-05  2616   0.167E-02    0.845E-03
DAV:  16    -0.133073122913E+04   -0.19473E-05   -0.27861E-05  2480   0.106E-02    0.660E-03
DAV:  17    -0.133073123032E+04   -0.11890E-05   -0.73150E-06  1528   0.641E-03    0.422E-03
DAV:  18    -0.133073123033E+04   -0.87166E-08   -0.31629E-06  1144   0.550E-03
   2 F= -.13307312E+04 E0= -.13307312E+04  d E =-.117656E+02
 BRION: g(F)=  0.226E+03 g(S)=  0.000E+00 retain N=  1 mean eig= 0.32
 eig:   0.321
 bond charge predicted
       N       E                     dE             d eps       ncg     rms          rms(c)
DAV:   1    -0.131417912255E+04    0.16552E+02   -0.30335E+03  1320   0.657E+01    0.263E+01
DAV:   2    -0.135168015058E+04   -0.37501E+02   -0.49998E+02  2552   0.397E+01    0.240E+01
DAV:   3    -0.134780802612E+04    0.38721E+01   -0.56327E+01  2528   0.154E+01    0.171E+01
DAV:   4    -0.134451213969E+04    0.32959E+01   -0.48681E+01  2136   0.789E+00    0.803E+00
DAV:   5    -0.134598735746E+04   -0.14752E+01   -0.13635E+01  2448   0.520E+00    0.101E+01
DAV:   6    -0.134410142939E+04    0.18859E+01   -0.10548E+01  2488   0.373E+00    0.262E+00
DAV:   7    -0.134421105168E+04   -0.10962E+00   -0.26758E+00  2592   0.288E+00    0.128E+00
DAV:   8    -0.134419551898E+04    0.15533E-01   -0.25370E-01  2496   0.116E+00    0.934E-01
DAV:   9    -0.134418557703E+04    0.99420E-02   -0.14318E-01  2504   0.602E-01    0.312E-01
DAV:  10    -0.134418730299E+04   -0.17260E-02   -0.20009E-02  2440   0.304E-01    0.183E-01
DAV:  11    -0.134418687180E+04    0.43119E-03   -0.39979E-03  2488   0.139E-01    0.151E-01
DAV:  12    -0.134418671919E+04    0.15261E-03   -0.57848E-03  2520   0.122E-01    0.592E-02
DAV:  13    -0.134418677497E+04   -0.55779E-04   -0.10074E-03  2480   0.619E-02    0.413E-02
DAV:  14    -0.134418678078E+04   -0.58107E-05   -0.18145E-04  2560   0.296E-02    0.359E-02
DAV:  15    -0.134418676404E+04    0.16738E-04   -0.22718E-04  2504   0.261E-02    0.104E-02
DAV:  16    -0.134418676724E+04   -0.31964E-05   -0.44668E-05  2248   0.167E-02    0.635E-03
DAV:  17    -0.134418676902E+04   -0.17826E-05   -0.25491E-05  2088   0.774E-03    0.763E-03
DAV:  18    -0.134418676827E+04    0.75117E-06   -0.24608E-06  1232   0.515E-03
   3 F= -.13441868E+04 E0= -.13441868E+04  d E =-.134555E+02
 BRION: g(F)=  0.207E+02 g(S)=  0.000E+00 retain N=  2 mean eig= 2.56
 eig:   0.203  4.912
 bond charge predicted
       N       E                     dE             d eps       ncg     rms          rms(c)
DAV:   1    -0.134349268356E+04    0.69409E+00   -0.91616E+02  1376   0.411E+01    0.874E+00
DAV:   2    -0.134915947407E+04   -0.56668E+01   -0.66512E+01  2360   0.180E+01    0.487E+00
DAV:   3    -0.134921942721E+04   -0.59953E-01   -0.52044E+00  2600   0.544E+00    0.408E+00
DAV:   4    -0.134901451543E+04    0.20491E+00   -0.14567E+00  2456   0.236E+00    0.218E+00
DAV:   5    -0.134898239144E+04    0.32124E-01   -0.71387E-01  2312   0.163E+00    0.162E+00
DAV:   6    -0.134895321285E+04    0.29179E-01   -0.32757E-01  2536   0.120E+00    0.109E+00
DAV:   7    -0.134894869678E+04    0.45161E-02   -0.24758E-01  2488   0.839E-01    0.582E-01
DAV:   8    -0.134894659482E+04    0.21020E-02   -0.34141E-02  2560   0.407E-01    0.319E-01
DAV:   9    -0.134894633593E+04    0.25889E-03   -0.13287E-02  2616   0.211E-01    0.155E-01
DAV:  10    -0.134894652375E+04   -0.18782E-03   -0.38372E-03  2256   0.125E-01    0.113E-01
DAV:  11    -0.134894642590E+04    0.97841E-04   -0.15339E-03  2544   0.730E-02    0.492E-02
DAV:  12    -0.134894643934E+04   -0.13438E-04   -0.57369E-04  2584   0.471E-02    0.322E-02
DAV:  13    -0.134894644498E+04   -0.56392E-05   -0.15952E-04  2600   0.266E-02    0.190E-02
DAV:  14    -0.134894644575E+04   -0.76645E-06   -0.73691E-05  2344   0.160E-02    0.121E-02
DAV:  15    -0.134894644721E+04   -0.14650E-05   -0.36267E-05  2344   0.107E-02    0.755E-03
DAV:  16    -0.134894644655E+04    0.66205E-06   -0.39165E-06  1288   0.598E-03
   4 F= -.13489464E+04 E0= -.13489464E+04  d E =-.475968E+01
 BRION: g(F)=  0.642E+01 g(S)=  0.000E+00 retain N=  2 mean eig= 0.35
 eig:   0.350  0.350
 bond charge predicted
       N       E                     dE             d eps       ncg     rms          rms(c)
DAV:   1    -0.135032745022E+04   -0.13810E+01   -0.27403E+02  1360   0.231E+01    0.396E+00
DAV:   2    -0.135175411565E+04   -0.14267E+01   -0.15336E+01  2304   0.880E+00    0.209E+00
DAV:   3    -0.135178276569E+04   -0.28650E-01   -0.10856E+00  2624   0.196E+00    0.175E+00
DAV:   4    -0.135173345116E+04    0.49315E-01   -0.30340E-01  2528   0.109E+00    0.840E-01
DAV:   5    -0.135173088273E+04    0.25684E-02   -0.10832E-01  2456   0.653E-01    0.605E-01
DAV:   6    -0.135172830222E+04    0.25805E-02   -0.59865E-02  2600   0.448E-01    0.303E-01
DAV:   7    -0.135172804900E+04    0.25322E-03   -0.20000E-02  2456   0.258E-01    0.200E-01
DAV:   8    -0.135172799714E+04    0.51858E-04   -0.47074E-03  2600   0.130E-01    0.111E-01
DAV:   9    -0.135172791196E+04    0.85176E-04   -0.19082E-03  2568   0.787E-02    0.625E-02
DAV:  10    -0.135172800074E+04   -0.88781E-04   -0.95851E-04  2504   0.536E-02    0.677E-02
DAV:  11    -0.135172793198E+04    0.68768E-04   -0.40112E-04  2576   0.395E-02    0.237E-02
DAV:  12    -0.135172794578E+04   -0.13801E-04   -0.25751E-04  2472   0.271E-02    0.215E-02
DAV:  13    -0.135172794265E+04    0.31264E-05   -0.40348E-05  2384   0.140E-02    0.143E-02
DAV:  14    -0.135172794168E+04    0.96744E-06   -0.32266E-05  2008   0.877E-03    0.410E-03
DAV:  15    -0.135172794183E+04   -0.14965E-06   -0.23532E-06  1056   0.494E-03
   5 F= -.13517279E+04 E0= -.13517279E+04  d E =-.278150E+01
 BRION: g(F)=  0.324E+01 g(S)=  0.000E+00 retain N=  3 mean eig= 0.31
 eig:   0.295  0.312  0.312
 bond charge predicted
       N       E                     dE             d eps       ncg     rms          rms(c)
DAV:   1    -0.135253323113E+04   -0.80529E+00   -0.17651E+02  1360   0.186E+01    0.293E+00
DAV:   2    -0.135342135800E+04   -0.88813E+00   -0.94530E+00  2328   0.695E+00    0.153E+00
DAV:   3    -0.135343708509E+04   -0.15727E-01   -0.62038E-01  2608   0.149E+00    0.129E+00
DAV:   4    -0.135340725360E+04    0.29831E-01   -0.16225E-01  2504   0.807E-01    0.643E-01
DAV:   5    -0.135340346926E+04    0.37843E-02   -0.69200E-02  2456   0.519E-01    0.449E-01
DAV:   6    -0.135340229515E+04    0.11741E-02   -0.35339E-02  2528   0.354E-01    0.255E-01
DAV:   7    -0.135340205169E+04    0.24346E-03   -0.13621E-02  2488   0.214E-01    0.167E-01
DAV:   8    -0.135340197532E+04    0.76368E-04   -0.30978E-03  2584   0.107E-01    0.867E-02
DAV:   9    -0.135340194033E+04    0.34991E-04   -0.12873E-03  2528   0.630E-02    0.543E-02
DAV:  10    -0.135340196936E+04   -0.29027E-04   -0.46363E-04  2248   0.409E-02    0.486E-02
DAV:  11    -0.135340193593E+04    0.33430E-04   -0.24021E-04  2360   0.290E-02    0.179E-02
DAV:  12    -0.135340194451E+04   -0.85843E-05   -0.16874E-04  2328   0.221E-02    0.176E-02
DAV:  13    -0.135340194112E+04    0.33906E-05   -0.29849E-05  2144   0.128E-02    0.116E-02
DAV:  14    -0.135340194076E+04    0.36524E-06   -0.30324E-05  1856   0.860E-03    0.412E-03
DAV:  15    -0.135340194069E+04    0.66619E-07   -0.23866E-06  1072   0.510E-03
   6 F= -.13534019E+04 E0= -.13534019E+04  d E =-.167400E+01
 BRION: g(F)=  0.248E+01 g(S)=  0.000E+00 retain N=  4 mean eig= 0.30
 eig:   0.195  0.195  0.401  0.401
 bond charge predicted
       N       E                     dE             d eps       ncg     rms          rms(c)
DAV:   1    -0.135350204564E+04   -0.10010E+00   -0.37280E+02  1360   0.270E+01    0.363E+00
DAV:   2    -0.135548677504E+04   -0.19847E+01   -0.20782E+01  2288   0.101E+01    0.199E+00
DAV:   3    -0.135555871042E+04   -0.71935E-01   -0.14798E+00  2584   0.219E+00    0.173E+00
DAV:   4    -0.135552185128E+04    0.36859E-01   -0.21864E-01  2608   0.975E-01    0.113E+00
DAV:   5    -0.135548940044E+04    0.32451E-01   -0.12706E-01  2248   0.682E-01    0.434E-01
DAV:   6    -0.135549514939E+04   -0.57490E-02   -0.84256E-02  2456   0.497E-01    0.515E-01
DAV:   7    -0.135549225249E+04    0.28969E-02   -0.25034E-02  2528   0.306E-01    0.325E-01
DAV:   8    -0.135549138737E+04    0.86512E-03   -0.12039E-02  2488   0.189E-01    0.125E-01
DAV:   9    -0.135549141611E+04   -0.28742E-04   -0.16360E-03  2408   0.841E-02    0.846E-02
DAV:  10    -0.135549144619E+04   -0.30075E-04   -0.59337E-04  2384   0.423E-02    0.387E-02
DAV:  11    -0.135549144880E+04   -0.26167E-05   -0.13811E-04  2600   0.276E-02    0.257E-02
DAV:  12    -0.135549144826E+04    0.54440E-06   -0.12618E-04  2528   0.200E-02    0.199E-02
DAV:  13    -0.135549144539E+04    0.28720E-05   -0.39338E-05  2360   0.119E-02    0.983E-03
DAV:  14    -0.135549144570E+04   -0.31722E-06   -0.92258E-06  1752   0.631E-03
   7 F= -.13554914E+04 E0= -.13554914E+04  d E =-.208951E+01
 BRION: g(F)=  0.139E+01 g(S)=  0.000E+00 retain N=  5 mean eig= 1.03
 eig:   1.961  1.961  0.396  0.396  0.455
 bond charge predicted
       N       E                     dE             d eps       ncg     rms          rms(c)
DAV:   1    -0.135587290125E+04   -0.38146E+00   -0.85189E+01  1376   0.129E+01    0.187E+00
DAV:   2    -0.135630642875E+04   -0.43353E+00   -0.45898E+00  2288   0.479E+00    0.945E-01
DAV:   3    -0.135632388147E+04   -0.17453E-01   -0.34929E-01  2624   0.105E+00    0.751E-01
DAV:   4    -0.135631340501E+04    0.10476E-01   -0.48731E-02  2544   0.499E-01    0.431E-01
DAV:   5    -0.135630994170E+04    0.34633E-02   -0.24868E-02  2344   0.318E-01    0.189E-01
DAV:   6    -0.135631058723E+04   -0.64553E-03   -0.11617E-02  2512   0.201E-01    0.162E-01
DAV:   7    -0.135631044928E+04    0.13795E-03   -0.32975E-03  2528   0.111E-01    0.112E-01
DAV:   8    -0.135631036185E+04    0.87431E-04   -0.15528E-03  2568   0.708E-02    0.527E-02
DAV:   9    -0.135631035016E+04    0.11690E-04   -0.24454E-04  2560   0.371E-02    0.326E-02
DAV:  10    -0.135631036018E+04   -0.10025E-04   -0.22630E-04  2360   0.268E-02    0.256E-02
DAV:  11    -0.135631035364E+04    0.65469E-05   -0.56971E-05  2392   0.174E-02    0.122E-02
DAV:  12    -0.135631035592E+04   -0.22814E-05   -0.46233E-05  2328   0.108E-02    0.101E-02
DAV:  13    -0.135631035445E+04    0.14634E-05   -0.47255E-06  1312   0.662E-03    0.618E-03
DAV:  14    -0.135631035505E+04   -0.59955E-06   -0.17644E-05  1608   0.754E-03    0.394E-03
DAV:  15    -0.135631035481E+04    0.23948E-06   -0.16481E-06  1024   0.499E-03
   8 F= -.13563104E+04 E0= -.13563104E+04  d E =-.818909E+00
 BRION: g(F)=  0.589E+00 g(S)=  0.000E+00 retain N=  6 mean eig= 1.31
 eig:   3.162  3.162  0.193  0.193  0.564  0.564
 bond charge predicted
       N       E                     dE             d eps       ncg     rms          rms(c)
DAV:   1    -0.135654610306E+04   -0.23575E+00   -0.11178E+02  1368   0.149E+01    0.191E+00
DAV:   2    -0.135711004236E+04   -0.56394E+00   -0.59258E+00  2288   0.564E+00    0.988E-01
DAV:   3    -0.135713710270E+04   -0.27060E-01   -0.45051E-01  2608   0.113E+00    0.801E-01
DAV:   4    -0.135712611245E+04    0.10990E-01   -0.57068E-02  2536   0.536E-01    0.484E-01
DAV:   5    -0.135712142169E+04    0.46908E-02   -0.26247E-02  2392   0.327E-01    0.196E-01
DAV:   6    -0.135712209669E+04   -0.67501E-03   -0.11726E-02  2488   0.205E-01    0.150E-01
DAV:   7    -0.135712201625E+04    0.80446E-04   -0.37759E-03  2512   0.124E-01    0.991E-02
DAV:   8    -0.135712203203E+04   -0.15786E-04   -0.19948E-03  2528   0.796E-02    0.561E-02
DAV:   9    -0.135712201314E+04    0.18890E-04   -0.30479E-04  2472   0.401E-02    0.426E-02
DAV:  10    -0.135712201091E+04    0.22309E-05   -0.27985E-04  2408   0.297E-02    0.221E-02
DAV:  11    -0.135712201086E+04    0.53944E-07   -0.77198E-05  2472   0.194E-02    0.956E-03
DAV:  12    -0.135712201312E+04   -0.22676E-05   -0.30892E-05  2376   0.108E-02    0.938E-03
DAV:  13    -0.135712201215E+04    0.96991E-06   -0.10305E-05  1656   0.704E-03    0.431E-03
DAV:  14    -0.135712201220E+04   -0.47177E-07   -0.35843E-06  1184   0.552E-03
   9 F= -.13571220E+04 E0= -.13571220E+04  d E =-.811657E+00
 BRION: g(F)=  0.557E+00 g(S)=  0.000E+00 retain N=  7 mean eig= 1.54
 eig:   4.337  4.337  0.541  0.541  0.290  0.290  0.479
 bond charge predicted
       N       E                     dE             d eps       ncg     rms          rms(c)
DAV:   1    -0.135741406135E+04   -0.29205E+00   -0.31308E+01  1384   0.794E+00    0.992E-01
DAV:   2    -0.135757035701E+04   -0.15630E+00   -0.16515E+00  2280   0.303E+00    0.518E-01
DAV:   3    -0.135757790431E+04   -0.75473E-02   -0.12616E-01  2592   0.603E-01    0.418E-01
DAV:   4    -0.135757474786E+04    0.31564E-02   -0.16619E-02  2528   0.289E-01    0.248E-01
DAV:   5    -0.135757346559E+04    0.12823E-02   -0.71205E-03  2400   0.180E-01    0.103E-01
DAV:   6    -0.135757366244E+04   -0.19684E-03   -0.36191E-03  2528   0.115E-01    0.767E-02
DAV:   7    -0.135757365177E+04    0.10666E-04   -0.10446E-03  2496   0.671E-02    0.551E-02
DAV:   8    -0.135757365331E+04   -0.15356E-05   -0.51742E-04  2520   0.396E-02    0.294E-02
DAV:   9    -0.135757364824E+04    0.50715E-05   -0.91131E-05  2512   0.215E-02    0.211E-02
DAV:  10    -0.135757364662E+04    0.16153E-05   -0.56962E-05  2544   0.153E-02    0.128E-02
DAV:  11    -0.135757364673E+04   -0.11188E-06   -0.21592E-05  2112   0.967E-03    0.528E-03
DAV:  12    -0.135757364692E+04   -0.18739E-06   -0.34848E-06  1200   0.589E-03
  10 F= -.13575736E+04 E0= -.13575736E+04  d E =-.451635E+00
 BRION: g(F)=  0.447E+00 g(S)=  0.000E+00 retain N=  8 mean eig= 1.95
 eig:   5.331  5.331  1.514  1.514  0.611  0.611  0.355  0.355
 bond charge predicted
       N       E                     dE             d eps       ncg     rms          rms(c)
DAV:   1    -0.135774368894E+04   -0.17004E+00   -0.12952E+02  1384   0.162E+01    0.190E+00
DAV:   2    -0.135839856093E+04   -0.65487E+00   -0.69010E+00  2280   0.627E+00    0.978E-01
DAV:   3    -0.135843374691E+04   -0.35186E-01   -0.53243E-01  2568   0.123E+00    0.794E-01
DAV:   4    -0.135842520764E+04    0.85393E-02   -0.57153E-02  2576   0.543E-01    0.551E-01
DAV:   5    -0.135841743676E+04    0.77709E-02   -0.25973E-02  2352   0.334E-01    0.229E-01
DAV:   6    -0.135841766647E+04   -0.22971E-03   -0.17494E-02  2392   0.253E-01    0.153E-01
DAV:   7    -0.135841783404E+04   -0.16757E-03   -0.70481E-03  2448   0.159E-01    0.128E-01
DAV:   8    -0.135841776811E+04    0.65938E-04   -0.25714E-03  2576   0.972E-02    0.720E-02
DAV:   9    -0.135841774316E+04    0.24945E-04   -0.69522E-04  2536   0.526E-02    0.453E-02
DAV:  10    -0.135841775558E+04   -0.12415E-04   -0.24810E-04  2584   0.305E-02    0.313E-02
DAV:  11    -0.135841775287E+04    0.27056E-05   -0.10266E-04  2488   0.214E-02    0.181E-02
DAV:  12    -0.135841775183E+04    0.10434E-05   -0.59002E-05  2384   0.160E-02    0.144E-02
DAV:  13    -0.135841775066E+04    0.11699E-05   -0.32673E-05  2232   0.104E-02    0.711E-03
DAV:  14    -0.135841775078E+04   -0.11783E-06   -0.10304E-05  1760   0.627E-03    0.338E-03
DAV:  15    -0.135841775076E+04    0.16342E-07   -0.12003E-06   984   0.393E-03
  11 F= -.13584178E+04 E0= -.13584178E+04  d E =-.844104E+00
 BRION: g(F)=  0.308E+00 g(S)=  0.000E+00 retain N=  9 mean eig= 2.84
 eig:   7.938  7.938  3.269  3.269  0.803  0.803  0.755  0.406  0.406
 bond charge predicted
       N       E                     dE             d eps       ncg     rms          rms(c)
DAV:   1    -0.135851969450E+04   -0.10194E+00   -0.11569E+02  1384   0.154E+01    0.182E+00
DAV:   2    -0.135912251064E+04   -0.60282E+00   -0.63744E+00  2296   0.617E+00    0.944E-01
DAV:   3    -0.135915384734E+04   -0.31337E-01   -0.48640E-01  2568   0.117E+00    0.773E-01
DAV:   4    -0.135914604947E+04    0.77979E-02   -0.52024E-02  2616   0.522E-01    0.549E-01
DAV:   5    -0.135913772955E+04    0.83199E-02   -0.23618E-02  2320   0.324E-01    0.234E-01
DAV:   6    -0.135913775548E+04   -0.25929E-04   -0.18896E-02  2320   0.261E-01    0.151E-01
DAV:   7    -0.135913796601E+04   -0.21053E-03   -0.81074E-03  2416   0.164E-01    0.137E-01
DAV:   8    -0.135913785510E+04    0.11091E-03   -0.24426E-03  2592   0.989E-02    0.774E-02
DAV:   9    -0.135913782117E+04    0.33932E-04   -0.91845E-04  2544   0.565E-02    0.431E-02
DAV:  10    -0.135913784403E+04   -0.22862E-04   -0.25803E-04  2592   0.330E-02    0.339E-02
DAV:  11    -0.135913783991E+04    0.41203E-05   -0.96819E-05  2536   0.210E-02    0.215E-02
DAV:  12    -0.135913783806E+04    0.18447E-05   -0.94945E-05  2368   0.187E-02    0.174E-02
DAV:  13    -0.135913783575E+04    0.23167E-05   -0.36796E-05  2248   0.120E-02    0.965E-03
DAV:  14    -0.135913783558E+04    0.16813E-06   -0.14487E-05  1808   0.691E-03    0.374E-03
DAV:  15    -0.135913783551E+04    0.65003E-07   -0.11325E-06   976   0.418E-03
  12 F= -.13591378E+04 E0= -.13591378E+04  d E =-.720085E+00
 BRION: g(F)=  0.216E+00 g(S)=  0.000E+00 retain N=  9 mean eig= 2.41
 eig:   4.082  4.082  4.227  4.227  1.062  1.062  1.196  1.196  0.554
 bond charge predicted
       N       E                     dE             d eps       ncg     rms          rms(c)
DAV:   1    -0.135929683888E+04   -0.15900E+00   -0.58567E+01  1376   0.109E+01    0.129E+00
DAV:   2    -0.135959736284E+04   -0.30052E+00   -0.31794E+00  2296   0.433E+00    0.675E-01
DAV:   3    -0.135961222648E+04   -0.14864E-01   -0.23987E-01  2584   0.837E-01    0.539E-01
DAV:   4    -0.135960740216E+04    0.48243E-02   -0.26763E-02  2576   0.372E-01    0.359E-01
DAV:   5    -0.135960409694E+04    0.33052E-02   -0.12482E-02  2352   0.230E-01    0.148E-01
DAV:   6    -0.135960430718E+04   -0.21024E-03   -0.74284E-03  2432   0.164E-01    0.104E-01
DAV:   7    -0.135960432348E+04   -0.16303E-04   -0.28482E-03  2400   0.103E-01    0.802E-02
DAV:   8    -0.135960431862E+04    0.48685E-05   -0.12574E-03  2600   0.656E-02    0.466E-02
DAV:   9    -0.135960431004E+04    0.85718E-05   -0.25676E-04  2512   0.342E-02    0.327E-02
DAV:  10    -0.135960431020E+04   -0.15127E-06   -0.11690E-04  2584   0.209E-02    0.199E-02
DAV:  11    -0.135960430979E+04    0.41064E-06   -0.49373E-05  2464   0.146E-02    0.991E-03
DAV:  12    -0.135960430994E+04   -0.15473E-06   -0.20273E-05  2168   0.100E-02    0.852E-03
DAV:  13    -0.135960430945E+04    0.48753E-06   -0.10746E-05  1760   0.649E-03    0.435E-03
DAV:  14    -0.135960430940E+04    0.48065E-07   -0.31159E-06  1144   0.479E-03
  13 F= -.13596043E+04 E0= -.13596043E+04  d E =-.466474E+00
 BRION: g(F)=  0.189E+00 g(S)=  0.000E+00 retain N=  6 mean eig= 3.59
 eig:   7.996  7.996  1.926  1.926  0.548  1.172
 bond charge predicted
       N       E                     dE             d eps       ncg     rms          rms(c)
DAV:   1    -0.135958723090E+04    0.17079E-01   -0.10236E+02  1384   0.146E+01    0.169E+00
DAV:   2    -0.136012158172E+04   -0.53435E+00   -0.56483E+00  2312   0.588E+00    0.888E-01
DAV:   3    -0.136014970367E+04   -0.28122E-01   -0.43309E-01  2584   0.110E+00    0.717E-01
DAV:   4    -0.136014255825E+04    0.71454E-02   -0.43756E-02  2584   0.489E-01    0.513E-01
DAV:   5    -0.136013530394E+04    0.72543E-02   -0.21940E-02  2336   0.298E-01    0.226E-01
DAV:   6    -0.136013526100E+04    0.42936E-04   -0.17042E-02  2328   0.249E-01    0.150E-01
DAV:   7    -0.136013542339E+04   -0.16239E-03   -0.85281E-03  2360   0.165E-01    0.134E-01
DAV:   8    -0.136013533838E+04    0.85012E-04   -0.25196E-03  2592   0.101E-01    0.846E-02
DAV:   9    -0.136013528210E+04    0.56279E-04   -0.89803E-04  2568   0.563E-02    0.450E-02
DAV:  10    -0.136013529871E+04   -0.16607E-04   -0.25274E-04  2592   0.322E-02    0.312E-02
DAV:  11    -0.136013530143E+04   -0.27230E-05   -0.83335E-05  2408   0.195E-02    0.215E-02
DAV:  12    -0.136013529872E+04    0.27118E-05   -0.89973E-05  2240   0.186E-02    0.180E-02
DAV:  13    -0.136013529645E+04    0.22655E-05   -0.39169E-05  2296   0.124E-02    0.117E-02
DAV:  14    -0.136013529571E+04    0.74782E-06   -0.18744E-05  2008   0.757E-03    0.392E-03
DAV:  15    -0.136013529565E+04    0.52431E-07   -0.10216E-06   944   0.428E-03
  14 F= -.13601353E+04 E0= -.13601353E+04  d E =-.530986E+00
 BRION: g(F)=  0.139E+00 g(S)=  0.000E+00 retain N=  3 mean eig= 5.42
 eig:   7.285  7.285  1.691
 bond charge predicted
       N       E                     dE             d eps       ncg     rms          rms(c)
DAV:   1    -0.136023514387E+04   -0.99848E-01   -0.44011E+01  1376   0.948E+00    0.111E+00
DAV:   2    -0.136045897167E+04   -0.22383E+00   -0.23659E+00  2304   0.374E+00    0.571E-01
DAV:   3    -0.136047054352E+04   -0.11572E-01   -0.17916E-01  2568   0.726E-01    0.451E-01
DAV:   4    -0.136046735066E+04    0.31929E-02   -0.19350E-02  2552   0.318E-01    0.303E-01
DAV:   5    -0.136046512877E+04    0.22219E-02   -0.91966E-03  2360   0.192E-01    0.127E-01
DAV:   6    -0.136046527196E+04   -0.14319E-03   -0.51189E-03  2424   0.138E-01    0.895E-02
DAV:   7    -0.136046528491E+04   -0.12958E-04   -0.22535E-03  2456   0.898E-02    0.673E-02
DAV:   8    -0.136046528840E+04   -0.34882E-05   -0.95211E-04  2592   0.580E-02    0.445E-02
DAV:   9    -0.136046527756E+04    0.10844E-04   -0.20647E-04  2528   0.301E-02    0.307E-02
DAV:  10    -0.136046527646E+04    0.10938E-05   -0.91954E-05  2568   0.179E-02    0.181E-02
DAV:  11    -0.136046527683E+04   -0.37035E-06   -0.36279E-05  2416   0.125E-02    0.965E-03
DAV:  12    -0.136046527635E+04    0.47902E-06   -0.16687E-05  2072   0.916E-03    0.708E-03
DAV:  13    -0.136046527630E+04    0.52547E-07   -0.95658E-06  1768   0.585E-03
  15 F= -.13604653E+04 E0= -.13604653E+04  d E =-.329981E+00
 BRION: g(F)=  0.126E+00 g(S)=  0.000E+00 retain N=  3 mean eig= 4.45
 eig:   5.788  5.788  1.759
 bond charge predicted
       N       E                     dE             d eps       ncg     rms          rms(c)
DAV:   1    -0.136055985624E+04   -0.94580E-01   -0.92242E+00  1352   0.437E+00    0.513E-01
DAV:   2    -0.136060574697E+04   -0.45891E-01   -0.48520E-01  2288   0.167E+00    0.262E-01
DAV:   3    -0.136060830532E+04   -0.25584E-02   -0.37634E-02  2568   0.339E-01    0.207E-01
DAV:   4    -0.136060768667E+04    0.61866E-03   -0.38908E-03  2576   0.144E-01    0.142E-01
DAV:   5    -0.136060724763E+04    0.43903E-03   -0.22232E-03  2296   0.909E-02    0.556E-02
DAV:   6    -0.136060730574E+04   -0.58106E-04   -0.10639E-03  2536   0.629E-02    0.476E-02
DAV:   7    -0.136060730241E+04    0.33303E-05   -0.53027E-04  2528   0.425E-02    0.309E-02
DAV:   8    -0.136060729963E+04    0.27744E-05   -0.16134E-04  2536   0.260E-02    0.194E-02
DAV:   9    -0.136060729828E+04    0.13560E-05   -0.32263E-05  2432   0.123E-02    0.128E-02
DAV:  10    -0.136060729842E+04   -0.14581E-06   -0.17096E-05  1936   0.782E-03    0.588E-03
DAV:  11    -0.136060729830E+04    0.11979E-06   -0.17835E-06   992   0.615E-03
  16 F= -.13606073E+04 E0= -.13606073E+04  d E =-.142022E+00
 BRION: g(F)=  0.117E+00 g(S)=  0.000E+00 retain N=  3 mean eig= 3.59
 eig:   4.802  4.802  1.161
 bond charge predicted
       N       E                     dE             d eps       ncg     rms          rms(c)
DAV:   1    -0.136071682917E+04   -0.10953E+00   -0.24244E+01  1352   0.702E+00    0.798E-01
DAV:   2    -0.136083718207E+04   -0.12035E+00   -0.12649E+00  2272   0.269E+00    0.401E-01
DAV:   3    -0.136084406346E+04   -0.68814E-02   -0.97763E-02  2576   0.544E-01    0.315E-01
DAV:   4    -0.136084265403E+04    0.14094E-02   -0.93008E-03  2568   0.222E-01    0.221E-01
DAV:   5    -0.136084144854E+04    0.12055E-02   -0.48786E-03  2320   0.137E-01    0.878E-02
DAV:   6    -0.136084155551E+04   -0.10698E-03   -0.26789E-03  2448   0.972E-02    0.652E-02
DAV:   7    -0.136084156686E+04   -0.11344E-04   -0.11531E-03  2496   0.629E-02    0.456E-02
DAV:   8    -0.136084156466E+04    0.21962E-05   -0.39839E-04  2568   0.400E-02    0.307E-02
DAV:   9    -0.136084156013E+04    0.45320E-05   -0.92775E-05  2512   0.202E-02    0.204E-02
DAV:  10    -0.136084156024E+04   -0.10467E-06   -0.36381E-05  2552   0.113E-02    0.103E-02
DAV:  11    -0.136084156080E+04   -0.56386E-06   -0.77484E-06  1616   0.743E-03
  17 F= -.13608416E+04 E0= -.13608416E+04  d E =-.234262E+00
 BRION: g(F)=  0.111E+00 g(S)=  0.000E+00 retain N=  3 mean eig= 3.67
 eig:   4.869  4.869  1.273
 bond charge predicted
       N       E                     dE             d eps       ncg     rms          rms(c)
DAV:   1    -0.136094800890E+04   -0.10645E+00   -0.26253E+01  1344   0.727E+00    0.826E-01
DAV:   2    -0.136107805543E+04   -0.13005E+00   -0.13642E+00  2296   0.278E+00    0.416E-01
DAV:   3    -0.136108501154E+04   -0.69561E-02   -0.10060E-01  2576   0.552E-01    0.324E-01
DAV:   4    -0.136108340176E+04    0.16098E-02   -0.99168E-03  2560   0.229E-01    0.223E-01
DAV:   5    -0.136108218512E+04    0.12166E-02   -0.52848E-03  2304   0.144E-01    0.848E-02
DAV:   6    -0.136108233892E+04   -0.15380E-03   -0.27234E-03  2464   0.977E-02    0.676E-02
DAV:   7    -0.136108234099E+04   -0.20652E-05   -0.10496E-03  2496   0.612E-02    0.448E-02
DAV:   8    -0.136108233932E+04    0.16616E-05   -0.37599E-04  2584   0.385E-02    0.282E-02
DAV:   9    -0.136108233663E+04    0.26944E-05   -0.77008E-05  2488   0.191E-02    0.198E-02
DAV:  10    -0.136108233702E+04   -0.38663E-06   -0.41169E-05  2584   0.119E-02    0.956E-03
DAV:  11    -0.136108233735E+04   -0.33125E-06   -0.92893E-06  1712   0.800E-03
  18 F= -.13610823E+04 E0= -.13610823E+04  d E =-.240777E+00
 BRION: g(F)=  0.106E+00 g(S)=  0.000E+00 retain N=  3 mean eig= 3.03
 eig:   1.110  3.990  3.990
 bond charge predicted
       N       E                     dE             d eps       ncg     rms          rms(c)
DAV:   1    -0.136118901505E+04   -0.10668E+00   -0.17492E+01  1352   0.594E+00    0.670E-01
DAV:   2    -0.136127547454E+04   -0.86459E-01   -0.90655E-01  2280   0.227E+00    0.336E-01
DAV:   3    -0.136128053739E+04   -0.50628E-02   -0.70059E-02  2584   0.453E-01    0.265E-01
DAV:   4    -0.136127958919E+04    0.94820E-03   -0.63343E-03  2592   0.186E-01    0.190E-01
DAV:   5    -0.136127865785E+04    0.93134E-03   -0.34815E-03  2296   0.116E-01    0.729E-02
DAV:   6    -0.136127874842E+04   -0.90579E-04   -0.20366E-03  2440   0.827E-02    0.576E-02
DAV:   7    -0.136127874895E+04   -0.52410E-06   -0.82740E-04  2488   0.535E-02    0.389E-02
DAV:   8    -0.136127874541E+04    0.35364E-05   -0.27278E-04  2536   0.334E-02    0.248E-02
DAV:   9    -0.136127874297E+04    0.24422E-05   -0.60218E-05  2488   0.164E-02    0.165E-02
DAV:  10    -0.136127874314E+04   -0.16647E-06   -0.24557E-05  2440   0.951E-03    0.759E-03
DAV:  11    -0.136127874344E+04   -0.30069E-06   -0.25364E-06  1080   0.634E-03
  19 F= -.13612787E+04 E0= -.13612787E+04  d E =-.196406E+00
 BRION: g(F)=  0.101E+00 g(S)=  0.000E+00 retain N=  3 mean eig= 4.24
 eig:   5.590  5.590  1.528
 bond charge predicted
       N       E                     dE             d eps       ncg     rms          rms(c)
DAV:   1    -0.136138754744E+04   -0.10880E+00   -0.13285E+01  1352   0.515E+00    0.582E-01
DAV:   2    -0.136145367139E+04   -0.66124E-01   -0.69253E-01  2288   0.197E+00    0.290E-01
DAV:   3    -0.136145740858E+04   -0.37372E-02   -0.52160E-02  2576   0.399E-01    0.228E-01
DAV:   4    -0.136145665074E+04    0.75784E-03   -0.49315E-03  2584   0.162E-01    0.160E-01
DAV:   5    -0.136145596412E+04    0.68662E-03   -0.26835E-03  2296   0.103E-01    0.577E-02
DAV:   6    -0.136145605634E+04   -0.92225E-04   -0.14835E-03  2480   0.697E-02    0.503E-02
DAV:   7    -0.136145605164E+04    0.46964E-05   -0.49362E-04  2504   0.421E-02    0.325E-02
DAV:   8    -0.136145604892E+04    0.27272E-05   -0.17713E-04  2544   0.262E-02    0.184E-02
DAV:   9    -0.136145604840E+04    0.51319E-06   -0.34255E-05  2424   0.129E-02    0.132E-02
DAV:  10    -0.136145604866E+04   -0.26019E-06   -0.14364E-05  1960   0.796E-03    0.605E-03
DAV:  11    -0.136145604869E+04   -0.31287E-07   -0.20749E-06  1032   0.570E-03
  20 F= -.13614560E+04 E0= -.13614560E+04  d E =-.177305E+00
 BRION: g(F)=  0.996E-01 g(S)=  0.000E+00 retain N=  3 mean eig= 3.25
 eig:   4.157  4.157  1.439
