 running on  160 total cores
 distrk:  each k-point on  160 cores,    1 groups
 distr:  one band on   20 cores,    8 groups
 using from now: INCAR     
 vasp.5.4.4.18Apr17-6-g9f103f2a35 (build May 01 2020 14:22:42) gamma-only       
  
 POSCAR found type information on POSCAR  O  La Zr Li Al
 POSCAR found :  5 types and     186 ions
 scaLAPACK will be used
 LDA part: xc-table for Pade appr. of Perdew
 POSCAR, INCAR and KPOINTS ok, starting setup
 FFT: planning ...
 WAVECAR not read
 WARNING: random wavefunctions but no delay for mixing, default for NELMDL
 entering main loop
       N       E                     dE             d eps       ncg     rms          rms(c)
DAV:   1     0.253771176224E+05    0.25377E+05   -0.42081E+05  1600   0.253E+03
DAV:   2     0.943972253214E+04   -0.15937E+05   -0.14670E+05  1408   0.709E+02
DAV:   3     0.269440892969E+04   -0.67453E+04   -0.61416E+04  1504   0.357E+02
DAV:   4    -0.345340734726E+03   -0.30397E+04   -0.28311E+04  2040   0.222E+02
DAV:   5    -0.139733974284E+04   -0.10520E+04   -0.10143E+04  2528   0.142E+02    0.116E+02
DAV:   6    -0.129045978912E+04    0.10688E+03   -0.14629E+03  2448   0.662E+01    0.502E+01
DAV:   7    -0.131276885415E+04   -0.22309E+02   -0.39739E+02  2568   0.342E+01    0.257E+01
DAV:   8    -0.131826203807E+04   -0.54932E+01   -0.24298E+02  2536   0.269E+01    0.241E+01
DAV:   9    -0.131383339937E+04    0.44286E+01   -0.43334E+01  2552   0.141E+01    0.804E+00
DAV:  10    -0.131443883691E+04   -0.60544E+00   -0.16195E+01  2624   0.761E+00    0.685E+00
DAV:  11    -0.131480451027E+04   -0.36567E+00   -0.50238E+00  2624   0.397E+00    0.420E+00
DAV:  12    -0.131470147299E+04    0.10304E+00   -0.19469E+00  2568   0.320E+00    0.306E+00
DAV:  13    -0.131471485247E+04   -0.13379E-01   -0.10329E+00  2560   0.179E+00    0.186E+00
DAV:  14    -0.131470839713E+04    0.64553E-02   -0.22259E-01  2616   0.103E+00    0.118E+00
DAV:  15    -0.131471375310E+04   -0.53560E-02   -0.84728E-02  2544   0.540E-01    0.811E-01
DAV:  16    -0.131471449859E+04   -0.74550E-03   -0.24962E-02  2616   0.304E-01    0.535E-01
DAV:  17    -0.131471501144E+04   -0.51285E-03   -0.19003E-02  2432   0.258E-01    0.282E-01
DAV:  18    -0.131471507559E+04   -0.64146E-04   -0.46596E-03  2416   0.147E-01    0.157E-01
DAV:  19    -0.131471498912E+04    0.86467E-04   -0.35334E-03  2400   0.108E-01    0.894E-02
DAV:  20    -0.131471504822E+04   -0.59102E-04   -0.73526E-04  2488   0.513E-02    0.476E-02
DAV:  21    -0.131471507713E+04   -0.28902E-04   -0.28782E-04  2552   0.321E-02    0.422E-02
DAV:  22    -0.131471509318E+04   -0.16050E-04   -0.97137E-05  2576   0.177E-02    0.166E-02
DAV:  23    -0.131471509178E+04    0.13963E-05   -0.32151E-05  2024   0.113E-02    0.164E-02
DAV:  24    -0.131471509667E+04   -0.48912E-05   -0.26382E-05  1920   0.922E-03    0.349E-03
DAV:  25    -0.131471509603E+04    0.64036E-06   -0.51075E-06  1128   0.591E-03
   1 F= -.13147151E+04 E0= -.13147151E+04  d E =-.131472E+04
 BRION: g(F)=  0.857E+02 g(S)=  0.000E+00
 bond charge predicted
       N       E                     dE             d eps       ncg     rms          rms(c)
DAV:   1    -0.125605584875E+04    0.58659E+02   -0.96036E+03  1688   0.144E+02    0.354E+01
DAV:   2    -0.133660675816E+04   -0.80551E+02   -0.92540E+02  2584   0.688E+01    0.181E+01
DAV:   3    -0.133364105546E+04    0.29657E+01   -0.53623E+01  2600   0.181E+01    0.115E+01
DAV:   4    -0.133086226016E+04    0.27788E+01   -0.21729E+01  2448   0.944E+00    0.536E+00
DAV:   5    -0.133074644553E+04    0.11581E+00   -0.59595E+00  2520   0.528E+00    0.377E+00
DAV:   6    -0.133064604897E+04    0.10040E+00   -0.35997E+00  2608   0.324E+00    0.214E+00
DAV:   7    -0.133062121598E+04    0.24833E-01   -0.56219E-01  2528   0.190E+00    0.129E+00
DAV:   8    -0.133062416939E+04   -0.29534E-02   -0.54202E-01  2560   0.123E+00    0.842E-01
DAV:   9    -0.133062354070E+04    0.62869E-03   -0.84803E-02  2544   0.640E-01    0.604E-01
DAV:  10    -0.133062080036E+04    0.27403E-02   -0.46182E-02  2608   0.376E-01    0.236E-01
DAV:  11    -0.133062185782E+04   -0.10575E-02   -0.15455E-02  2600   0.234E-01    0.150E-01
DAV:  12    -0.133062196152E+04   -0.10370E-03   -0.26590E-03  2624   0.110E-01    0.888E-02
DAV:  13    -0.133062194182E+04    0.19699E-04   -0.17316E-03  2544   0.735E-02    0.275E-02
DAV:  14    -0.133062197216E+04   -0.30340E-04   -0.36003E-04  2600   0.398E-02    0.180E-02
DAV:  15    -0.133062198094E+04   -0.87806E-05   -0.94838E-05  2624   0.184E-02    0.107E-02
DAV:  16    -0.133062198262E+04   -0.16799E-05   -0.34016E-05  2376   0.114E-02    0.638E-03
DAV:  17    -0.133062198381E+04   -0.11876E-05   -0.11957E-05  1656   0.752E-03    0.324E-03
DAV:  18    -0.133062198406E+04   -0.25108E-06   -0.29916E-06  1064   0.504E-03
   2 F= -.13306220E+04 E0= -.13306220E+04  d E =-.159069E+02
 BRION: g(F)=  0.199E+03 g(S)=  0.000E+00 retain N=  1 mean eig= 0.36
 eig:   0.361
 bond charge predicted
       N       E                     dE             d eps       ncg     rms          rms(c)
DAV:   1    -0.130882082810E+04    0.21801E+02   -0.36837E+03  1352   0.779E+01    0.256E+01
DAV:   2    -0.135178562703E+04   -0.42965E+02   -0.54069E+02  2512   0.398E+01    0.226E+01
DAV:   3    -0.134780838384E+04    0.39772E+01   -0.46393E+01  2544   0.151E+01    0.170E+01
DAV:   4    -0.134465292196E+04    0.31555E+01   -0.45716E+01  2176   0.816E+00    0.802E+00
DAV:   5    -0.134580656816E+04   -0.11536E+01   -0.11476E+01  2416   0.488E+00    0.972E+00
DAV:   6    -0.134408601784E+04    0.17206E+01   -0.15918E+01  2392   0.459E+00    0.180E+00
DAV:   7    -0.134422881949E+04   -0.14280E+00   -0.21864E+00  2320   0.313E+00    0.179E+00
DAV:   8    -0.134418818230E+04    0.40637E-01   -0.49540E-01  2592   0.125E+00    0.841E-01
DAV:   9    -0.134418685671E+04    0.13256E-02   -0.10905E-01  2520   0.627E-01    0.387E-01
DAV:  10    -0.134418757084E+04   -0.71413E-03   -0.26962E-02  2512   0.318E-01    0.285E-01
DAV:  11    -0.134418709146E+04    0.47938E-03   -0.10782E-02  2568   0.197E-01    0.170E-01
DAV:  12    -0.134418697999E+04    0.11147E-03   -0.53384E-03  2600   0.119E-01    0.574E-02
DAV:  13    -0.134418711602E+04   -0.13603E-03   -0.15179E-03  2608   0.738E-02    0.719E-02
DAV:  14    -0.134418704192E+04    0.74095E-04   -0.39638E-04  2528   0.433E-02    0.366E-02
DAV:  15    -0.134418704759E+04   -0.56664E-05   -0.31428E-04  2504   0.300E-02    0.136E-02
DAV:  16    -0.134418705034E+04   -0.27572E-05   -0.46771E-05  2544   0.143E-02    0.681E-03
DAV:  17    -0.134418705018E+04    0.16687E-06   -0.70505E-06  1656   0.680E-03
   3 F= -.13441871E+04 E0= -.13441871E+04  d E =-.135651E+02
 BRION: g(F)=  0.217E+02 g(S)=  0.000E+00 retain N=  2 mean eig= 2.04
 eig:   0.225  3.858
 bond charge predicted
       N       E                     dE             d eps       ncg     rms          rms(c)
DAV:   1    -0.134392612730E+04    0.26092E+00   -0.83995E+02  1368   0.390E+01    0.800E+00
DAV:   2    -0.134907326804E+04   -0.51471E+01   -0.58680E+01  2224   0.161E+01    0.413E+00
DAV:   3    -0.134919273818E+04   -0.11947E+00   -0.48934E+00  2520   0.461E+00    0.355E+00
DAV:   4    -0.134901732801E+04    0.17541E+00   -0.10230E+00  2520   0.205E+00    0.200E+00
DAV:   5    -0.134896492991E+04    0.52398E-01   -0.68169E-01  2224   0.146E+00    0.130E+00
DAV:   6    -0.134894913520E+04    0.15795E-01   -0.22869E-01  2488   0.101E+00    0.986E-01
DAV:   7    -0.134894416689E+04    0.49683E-02   -0.20029E-01  2448   0.728E-01    0.512E-01
DAV:   8    -0.134894269179E+04    0.14751E-02   -0.24876E-02  2536   0.340E-01    0.334E-01
DAV:   9    -0.134894224721E+04    0.44458E-03   -0.12005E-02  2600   0.187E-01    0.139E-01
DAV:  10    -0.134894232749E+04   -0.80277E-04   -0.19911E-03  2552   0.988E-02    0.791E-02
DAV:  11    -0.134894227956E+04    0.47931E-04   -0.91630E-04  2616   0.629E-02    0.355E-02
DAV:  12    -0.134894230642E+04   -0.26863E-04   -0.48679E-04  2488   0.403E-02    0.263E-02
DAV:  13    -0.134894230019E+04    0.62335E-05   -0.10972E-04  2616   0.221E-02    0.122E-02
DAV:  14    -0.134894230432E+04   -0.41358E-05   -0.62101E-05  2600   0.140E-02    0.105E-02
DAV:  15    -0.134894230316E+04    0.11670E-05   -0.11847E-05  2024   0.822E-03    0.700E-03
DAV:  16    -0.134894230277E+04    0.38353E-06   -0.98121E-06  1720   0.555E-03
   4 F= -.13489423E+04 E0= -.13489423E+04  d E =-.475525E+01
 BRION: g(F)=  0.725E+01 g(S)=  0.000E+00 retain N=  2 mean eig= 0.35
 eig:   0.355  0.355
 bond charge predicted
       N       E                     dE             d eps       ncg     rms          rms(c)
DAV:   1    -0.135052208294E+04   -0.15798E+01   -0.28578E+02  1368   0.235E+01    0.428E+00
DAV:   2    -0.135198999654E+04   -0.14679E+01   -0.15877E+01  2312   0.887E+00    0.219E+00
DAV:   3    -0.135199448382E+04   -0.44873E-02   -0.10754E+00  2608   0.201E+00    0.183E+00
DAV:   4    -0.135193499751E+04    0.59486E-01   -0.39780E-01  2472   0.121E+00    0.828E-01
DAV:   5    -0.135193310532E+04    0.18922E-02   -0.11649E-01  2464   0.741E-01    0.702E-01
DAV:   6    -0.135192888239E+04    0.42229E-02   -0.10304E-01  2536   0.551E-01    0.289E-01
DAV:   7    -0.135192912691E+04   -0.24452E-03   -0.22839E-02  2408   0.295E-01    0.258E-01
DAV:   8    -0.135192871327E+04    0.41364E-03   -0.74395E-03  2360   0.150E-01    0.123E-01
DAV:   9    -0.135192868608E+04    0.27190E-04   -0.36677E-03  2528   0.988E-02    0.741E-02
DAV:  10    -0.135192871833E+04   -0.32250E-04   -0.87549E-04  2448   0.587E-02    0.660E-02
DAV:  11    -0.135192867196E+04    0.46368E-04   -0.33339E-04  2616   0.369E-02    0.317E-02
DAV:  12    -0.135192867590E+04   -0.39371E-05   -0.28021E-04  2400   0.271E-02    0.210E-02
DAV:  13    -0.135192867520E+04    0.70005E-06   -0.41067E-05  2384   0.145E-02    0.136E-02
DAV:  14    -0.135192867384E+04    0.13558E-05   -0.27231E-05  2080   0.887E-03    0.447E-03
DAV:  15    -0.135192867418E+04   -0.33816E-06   -0.49982E-06  1328   0.580E-03
   5 F= -.13519287E+04 E0= -.13519287E+04  d E =-.298637E+01
 BRION: g(F)=  0.362E+01 g(S)=  0.000E+00 retain N=  3 mean eig= 0.28
 eig:   0.284  0.275  0.275
 bond charge predicted
       N       E                     dE             d eps       ncg     rms          rms(c)
DAV:   1    -0.135281405535E+04   -0.88538E+00   -0.19886E+02  1376   0.198E+01    0.293E+00
DAV:   2    -0.135381610395E+04   -0.10020E+01   -0.10672E+01  2296   0.740E+00    0.149E+00
DAV:   3    -0.135384639073E+04   -0.30287E-01   -0.75196E-01  2608   0.156E+00    0.128E+00
DAV:   4    -0.135381838718E+04    0.28004E-01   -0.12714E-01  2584   0.773E-01    0.744E-01
DAV:   5    -0.135380752111E+04    0.10866E-01   -0.71824E-02  2304   0.527E-01    0.356E-01
DAV:   6    -0.135380893829E+04   -0.14172E-02   -0.35584E-02  2560   0.360E-01    0.310E-01
DAV:   7    -0.135380816309E+04    0.77519E-03   -0.14755E-02  2488   0.220E-01    0.182E-01
DAV:   8    -0.135380808417E+04    0.78922E-04   -0.38372E-03  2592   0.118E-01    0.940E-02
DAV:   9    -0.135380802461E+04    0.59561E-04   -0.77760E-04  2592   0.576E-02    0.630E-02
DAV:  10    -0.135380806880E+04   -0.44193E-04   -0.64755E-04  2240   0.420E-02    0.519E-02
DAV:  11    -0.135380802785E+04    0.40950E-04   -0.21793E-04  2520   0.317E-02    0.209E-02
DAV:  12    -0.135380803598E+04   -0.81285E-05   -0.17262E-04  2464   0.220E-02    0.192E-02
DAV:  13    -0.135380803169E+04    0.42901E-05   -0.41982E-05  2312   0.133E-02    0.791E-03
DAV:  14    -0.135380803202E+04   -0.32563E-06   -0.11185E-05  1752   0.674E-03    0.385E-03
DAV:  15    -0.135380803202E+04   -0.36962E-08   -0.13842E-06  1032   0.384E-03
   6 F= -.13538080E+04 E0= -.13538080E+04  d E =-.187936E+01
 BRION: g(F)=  0.240E+01 g(S)=  0.000E+00 retain N=  4 mean eig= 0.55
 eig:   0.885  0.308  0.511  0.511
 bond charge predicted
       N       E                     dE             d eps       ncg     rms          rms(c)
DAV:   1    -0.135412654585E+04   -0.31851E+00   -0.34480E+02  1352   0.259E+01    0.351E+00
DAV:   2    -0.135590208653E+04   -0.17755E+01   -0.18581E+01  2272   0.969E+00    0.189E+00
DAV:   3    -0.135596335130E+04   -0.61265E-01   -0.13150E+00  2616   0.200E+00    0.162E+00
DAV:   4    -0.135592576147E+04    0.37590E-01   -0.19015E-01  2584   0.909E-01    0.101E+00
DAV:   5    -0.135589987307E+04    0.25888E-01   -0.98458E-02  2248   0.630E-01    0.401E-01
DAV:   6    -0.135590343576E+04   -0.35627E-02   -0.67948E-02  2432   0.475E-01    0.421E-01
DAV:   7    -0.135590185174E+04    0.15840E-02   -0.20544E-02  2456   0.277E-01    0.289E-01
DAV:   8    -0.135590136935E+04    0.48238E-03   -0.12242E-02  2472   0.180E-01    0.110E-01
DAV:   9    -0.135590133556E+04    0.33790E-04   -0.18743E-03  2368   0.860E-02    0.791E-02
DAV:  10    -0.135590134149E+04   -0.59288E-05   -0.51908E-04  2424   0.424E-02    0.458E-02
DAV:  11    -0.135590132979E+04    0.11705E-04   -0.19119E-04  2608   0.289E-02    0.250E-02
DAV:  12    -0.135590133262E+04   -0.28326E-05   -0.14644E-04  2576   0.218E-02    0.200E-02
DAV:  13    -0.135590132996E+04    0.26591E-05   -0.40587E-05  2384   0.122E-02    0.109E-02
DAV:  14    -0.135590133002E+04   -0.60594E-07   -0.95829E-06  1800   0.653E-03
   7 F= -.13559013E+04 E0= -.13559013E+04  d E =-.209330E+01
 BRION: g(F)=  0.123E+01 g(S)=  0.000E+00 retain N=  5 mean eig= 0.64
 eig:   1.027  1.027  0.392  0.206  0.560
 bond charge predicted
       N       E                     dE             d eps       ncg     rms          rms(c)
DAV:   1    -0.135631701966E+04   -0.41569E+00   -0.10431E+02  1376   0.144E+01    0.214E+00
DAV:   2    -0.135682749295E+04   -0.51047E+00   -0.53949E+00  2272   0.541E+00    0.109E+00
DAV:   3    -0.135684513455E+04   -0.17642E-01   -0.39236E-01  2608   0.109E+00    0.845E-01
DAV:   4    -0.135683147382E+04    0.13661E-01   -0.71555E-02  2496   0.568E-01    0.413E-01
DAV:   5    -0.135683040695E+04    0.10669E-02   -0.26784E-02  2480   0.331E-01    0.229E-01
DAV:   6    -0.135683069931E+04   -0.29236E-03   -0.12057E-02  2560   0.195E-01    0.114E-01
DAV:   7    -0.135683066953E+04    0.29789E-04   -0.21373E-03  2480   0.103E-01    0.786E-02
DAV:   8    -0.135683069490E+04   -0.25370E-04   -0.98629E-04  2568   0.545E-02    0.368E-02
DAV:   9    -0.135683068868E+04    0.62167E-05   -0.17851E-04  2616   0.321E-02    0.218E-02
DAV:  10    -0.135683069590E+04   -0.72200E-05   -0.12486E-04  2512   0.196E-02    0.159E-02
DAV:  11    -0.135683069443E+04    0.14740E-05   -0.32784E-05  2496   0.129E-02    0.775E-03
DAV:  12    -0.135683069526E+04   -0.83527E-06   -0.17483E-05  2008   0.777E-03    0.615E-03
DAV:  13    -0.135683069475E+04    0.51146E-06   -0.17433E-06  1008   0.538E-03
   8 F= -.13568307E+04 E0= -.13568307E+04  d E =-.929365E+00
 BRION: g(F)=  0.681E+00 g(S)=  0.000E+00 retain N=  6 mean eig= 0.88
 eig:   1.957  1.957  0.026  0.166  0.587  0.587
 bond charge predicted
       N       E                     dE             d eps       ncg     rms          rms(c)
DAV:   1    -0.135715600761E+04   -0.32531E+00   -0.70161E+01  1376   0.119E+01    0.159E+00
DAV:   2    -0.135750590132E+04   -0.34989E+00   -0.37013E+00  2296   0.460E+00    0.786E-01
DAV:   3    -0.135752356672E+04   -0.17665E-01   -0.28529E-01  2616   0.901E-01    0.622E-01
DAV:   4    -0.135751685943E+04    0.67073E-02   -0.34753E-02  2544   0.429E-01    0.362E-01
DAV:   5    -0.135751491160E+04    0.19478E-02   -0.16498E-02  2392   0.254E-01    0.149E-01
DAV:   6    -0.135751540790E+04   -0.49630E-03   -0.66192E-03  2560   0.153E-01    0.114E-01
DAV:   7    -0.135751536231E+04    0.45585E-04   -0.20705E-03  2584   0.918E-02    0.750E-02
DAV:   8    -0.135751535473E+04    0.75851E-05   -0.78710E-04  2624   0.536E-02    0.411E-02
DAV:   9    -0.135751534798E+04    0.67513E-05   -0.15117E-04  2544   0.284E-02    0.272E-02
DAV:  10    -0.135751535470E+04   -0.67194E-05   -0.12159E-04  2520   0.195E-02    0.171E-02
DAV:  11    -0.135751535260E+04    0.21003E-05   -0.34019E-05  2440   0.131E-02    0.719E-03
DAV:  12    -0.135751535338E+04   -0.78283E-06   -0.12155E-05  1832   0.753E-03    0.621E-03
DAV:  13    -0.135751535287E+04    0.51376E-06   -0.17389E-06   992   0.514E-03
   9 F= -.13575154E+04 E0= -.13575154E+04  d E =-.684658E+00
 BRION: g(F)=  0.564E+00 g(S)=  0.000E+00 retain N=  7 mean eig= 1.05
 eig:   2.393  2.393  0.727  0.727  0.571  0.256  0.256
 bond charge predicted
       N       E                     dE             d eps       ncg     rms          rms(c)
DAV:   1    -0.135780345328E+04   -0.28810E+00   -0.78467E+01  1384   0.127E+01    0.157E+00
DAV:   2    -0.135819818281E+04   -0.39473E+00   -0.41827E+00  2304   0.494E+00    0.801E-01
DAV:   3    -0.135821923361E+04   -0.21051E-01   -0.32405E-01  2616   0.955E-01    0.643E-01
DAV:   4    -0.135821294392E+04    0.62897E-02   -0.36426E-02  2616   0.439E-01    0.413E-01
DAV:   5    -0.135820926178E+04    0.36821E-02   -0.17032E-02  2368   0.274E-01    0.162E-01
DAV:   6    -0.135820980263E+04   -0.54085E-03   -0.96618E-03  2496   0.188E-01    0.131E-01
DAV:   7    -0.135820977528E+04    0.27356E-04   -0.34205E-03  2456   0.113E-01    0.934E-02
DAV:   8    -0.135820976735E+04    0.79267E-05   -0.14440E-03  2616   0.700E-02    0.485E-02
DAV:   9    -0.135820975219E+04    0.15165E-04   -0.27399E-04  2448   0.365E-02    0.351E-02
DAV:  10    -0.135820975427E+04   -0.20795E-05   -0.15766E-04  2456   0.242E-02    0.208E-02
DAV:  11    -0.135820975328E+04    0.98920E-06   -0.57291E-05  2456   0.162E-02    0.888E-03
DAV:  12    -0.135820975528E+04   -0.20064E-05   -0.23227E-05  2344   0.101E-02    0.994E-03
DAV:  13    -0.135820975411E+04    0.11749E-05   -0.10933E-05  1696   0.681E-03    0.490E-03
DAV:  14    -0.135820975390E+04    0.20504E-06   -0.25928E-06  1040   0.530E-03
  10 F= -.13582098E+04 E0= -.13582098E+04  d E =-.694401E+00
 BRION: g(F)=  0.484E+00 g(S)=  0.000E+00 retain N=  8 mean eig= 1.67
 eig:   4.592  4.592  1.236  0.902  0.902  0.664  0.417  0.084
 bond charge predicted
       N       E                     dE             d eps       ncg     rms          rms(c)
DAV:   1    -0.135829812892E+04   -0.88375E-01   -0.13485E+02  1392   0.166E+01    0.197E+00
DAV:   2    -0.135898721869E+04   -0.68909E+00   -0.72918E+00  2304   0.652E+00    0.103E+00
DAV:   3    -0.135902186091E+04   -0.34642E-01   -0.54499E-01  2608   0.125E+00    0.818E-01
DAV:   4    -0.135901095260E+04    0.10908E-01   -0.61958E-02  2592   0.568E-01    0.528E-01
DAV:   5    -0.135900480591E+04    0.61467E-02   -0.27057E-02  2400   0.328E-01    0.210E-01
DAV:   6    -0.135900540964E+04   -0.60373E-03   -0.13555E-02  2480   0.216E-01    0.142E-01
DAV:   7    -0.135900547936E+04   -0.69722E-04   -0.51293E-03  2448   0.140E-01    0.102E-01
DAV:   8    -0.135900550349E+04   -0.24126E-04   -0.19237E-03  2608   0.822E-02    0.608E-02
DAV:   9    -0.135900548753E+04    0.15957E-04   -0.40849E-04  2568   0.440E-02    0.433E-02
DAV:  10    -0.135900549496E+04   -0.74308E-05   -0.24888E-04  2584   0.287E-02    0.253E-02
DAV:  11    -0.135900549342E+04    0.15451E-05   -0.10199E-04  2512   0.210E-02    0.115E-02
DAV:  12    -0.135900549457E+04   -0.11572E-05   -0.32045E-05  2384   0.129E-02    0.105E-02
DAV:  13    -0.135900549372E+04    0.85410E-06   -0.16038E-05  1928   0.752E-03    0.521E-03
DAV:  14    -0.135900549387E+04   -0.15365E-06   -0.62621E-06  1512   0.562E-03
  11 F= -.13590055E+04 E0= -.13590055E+04  d E =-.795740E+00
 BRION: g(F)=  0.265E+00 g(S)=  0.000E+00 retain N=  9 mean eig= 2.23
 eig:   6.358  6.358  2.204  2.204  1.175  0.738  0.738  0.325  0.004
 bond charge predicted
       N       E                     dE             d eps       ncg     rms          rms(c)
DAV:   1    -0.135909121104E+04   -0.85717E-01   -0.86292E+01  1392   0.133E+01    0.158E+00
DAV:   2    -0.135953560788E+04   -0.44440E+00   -0.47127E+00  2312   0.529E+00    0.811E-01
DAV:   3    -0.135955814834E+04   -0.22540E-01   -0.35307E-01  2608   0.102E+00    0.650E-01
DAV:   4    -0.135955130426E+04    0.68441E-02   -0.39470E-02  2592   0.457E-01    0.431E-01
DAV:   5    -0.135954682516E+04    0.44791E-02   -0.17663E-02  2368   0.268E-01    0.173E-01
DAV:   6    -0.135954720017E+04   -0.37501E-03   -0.10237E-02  2432   0.191E-01    0.123E-01
DAV:   7    -0.135954723655E+04   -0.36377E-04   -0.43458E-03  2408   0.125E-01    0.916E-02
DAV:   8    -0.135954723969E+04   -0.31425E-05   -0.15159E-03  2616   0.734E-02    0.530E-02
DAV:   9    -0.135954722914E+04    0.10548E-04   -0.34276E-04  2592   0.395E-02    0.382E-02
DAV:  10    -0.135954723375E+04   -0.46019E-05   -0.17902E-04  2616   0.247E-02    0.248E-02
DAV:  11    -0.135954723209E+04    0.16603E-05   -0.91653E-05  2480   0.191E-02    0.123E-02
DAV:  12    -0.135954723231E+04   -0.22566E-06   -0.30770E-05  2328   0.126E-02    0.108E-02
DAV:  13    -0.135954723147E+04    0.83847E-06   -0.17572E-05  1968   0.764E-03    0.532E-03
DAV:  14    -0.135954723145E+04    0.20664E-07   -0.54132E-06  1408   0.545E-03
  12 F= -.13595472E+04 E0= -.13595472E+04  d E =-.541738E+00
 BRION: g(F)=  0.191E+00 g(S)=  0.000E+00 retain N=  9 mean eig= 2.16
 eig:   5.191  5.191  2.080  2.044  2.044  0.084  1.045  0.862  0.862
 bond charge predicted
       N       E                     dE             d eps       ncg     rms          rms(c)
DAV:   1    -0.135965381039E+04   -0.10658E+00   -0.44104E+01  1384   0.948E+00    0.115E+00
DAV:   2    -0.135987780678E+04   -0.22400E+00   -0.23705E+00  2312   0.371E+00    0.579E-01
DAV:   3    -0.135988878923E+04   -0.10982E-01   -0.17655E-01  2608   0.712E-01    0.459E-01
DAV:   4    -0.135988490679E+04    0.38824E-02   -0.20731E-02  2576   0.327E-01    0.291E-01
DAV:   5    -0.135988281553E+04    0.20913E-02   -0.91804E-03  2376   0.194E-01    0.116E-01
DAV:   6    -0.135988307814E+04   -0.26261E-03   -0.50176E-03  2472   0.134E-01    0.902E-02
DAV:   7    -0.135988305796E+04    0.20177E-04   -0.20229E-03  2360   0.867E-02    0.648E-02
DAV:   8    -0.135988306712E+04   -0.91524E-05   -0.83272E-04  2544   0.519E-02    0.376E-02
DAV:   9    -0.135988306070E+04    0.64163E-05   -0.15236E-04  2512   0.274E-02    0.292E-02
DAV:  10    -0.135988306031E+04    0.39501E-06   -0.12621E-04  2344   0.197E-02    0.185E-02
DAV:  11    -0.135988305883E+04    0.14805E-05   -0.49536E-05  2352   0.148E-02    0.758E-03
DAV:  12    -0.135988305980E+04   -0.97905E-06   -0.16667E-05  2048   0.889E-03    0.754E-03
DAV:  13    -0.135988305903E+04    0.77780E-06   -0.55715E-06  1392   0.603E-03
  13 F= -.13598831E+04 E0= -.13598831E+04  d E =-.335828E+00
 BRION: g(F)=  0.167E+00 g(S)=  0.000E+00 retain N=  6 mean eig= 3.42
 eig:   7.852  7.852  1.411  1.411  1.042  0.930
 bond charge predicted
       N       E                     dE             d eps       ncg     rms          rms(c)
DAV:   1    -0.135982409156E+04    0.58968E-01   -0.89373E+01  1392   0.135E+01    0.155E+00
DAV:   2    -0.136027986077E+04   -0.45577E+00   -0.48023E+00  2296   0.534E+00    0.808E-01
DAV:   3    -0.136030323177E+04   -0.23371E-01   -0.35553E-01  2592   0.102E+00    0.653E-01
DAV:   4    -0.136029696158E+04    0.62702E-02   -0.37542E-02  2616   0.441E-01    0.455E-01
DAV:   5    -0.136029145121E+04    0.55104E-02   -0.18002E-02  2320   0.264E-01    0.184E-01
DAV:   6    -0.136029175801E+04   -0.30680E-03   -0.11711E-02  2384   0.200E-01    0.128E-01
DAV:   7    -0.136029179524E+04   -0.37226E-04   -0.49972E-03  2360   0.128E-01    0.980E-02
DAV:   8    -0.136029177569E+04    0.19546E-04   -0.16412E-03  2608   0.793E-02    0.592E-02
DAV:   9    -0.136029175952E+04    0.16171E-04   -0.41155E-04  2568   0.416E-02    0.397E-02
DAV:  10    -0.136029176543E+04   -0.59139E-05   -0.15294E-04  2584   0.234E-02    0.246E-02
DAV:  11    -0.136029176638E+04   -0.94101E-06   -0.65256E-05  2528   0.170E-02    0.152E-02
DAV:  12    -0.136029176522E+04    0.11577E-05   -0.40012E-05  2376   0.133E-02    0.121E-02
DAV:  13    -0.136029176424E+04    0.98045E-06   -0.19883E-05  2088   0.844E-03    0.629E-03
DAV:  14    -0.136029176420E+04    0.37908E-07   -0.78001E-06  1696   0.559E-03
  14 F= -.13602918E+04 E0= -.13602918E+04  d E =-.408705E+00
 BRION: g(F)=  0.115E+00 g(S)=  0.000E+00 retain N=  3 mean eig= 3.61
 eig:   4.662  4.662  1.499
 bond charge predicted
       N       E                     dE             d eps       ncg     rms          rms(c)
DAV:   1    -0.136032201811E+04   -0.30254E-01   -0.45324E+01  1384   0.957E+00    0.110E+00
DAV:   2    -0.136054767045E+04   -0.22565E+00   -0.23736E+00  2304   0.372E+00    0.569E-01
DAV:   3    -0.136055981325E+04   -0.12143E-01   -0.18021E-01  2608   0.696E-01    0.460E-01
DAV:   4    -0.136055664116E+04    0.31721E-02   -0.17793E-02  2600   0.308E-01    0.316E-01
DAV:   5    -0.136055387131E+04    0.27698E-02   -0.90879E-03  2288   0.193E-01    0.119E-01
DAV:   6    -0.136055416647E+04   -0.29516E-03   -0.60708E-03  2416   0.144E-01    0.974E-02
DAV:   7    -0.136055413828E+04    0.28190E-04   -0.22516E-03  2408   0.887E-02    0.707E-02
DAV:   8    -0.136055412660E+04    0.11682E-04   -0.83035E-04  2584   0.545E-02    0.380E-02
DAV:   9    -0.136055411898E+04    0.76212E-05   -0.17311E-04  2456   0.280E-02    0.273E-02
DAV:  10    -0.136055412156E+04   -0.25878E-05   -0.83525E-05  2472   0.168E-02    0.169E-02
DAV:  11    -0.136055412101E+04    0.55344E-06   -0.35224E-05  2336   0.128E-02    0.958E-03
DAV:  12    -0.136055412112E+04   -0.10955E-06   -0.18465E-05  2144   0.939E-03    0.877E-03
DAV:  13    -0.136055412042E+04    0.70389E-06   -0.96546E-06  1696   0.647E-03
  15 F= -.13605541E+04 E0= -.13605541E+04  d E =-.262356E+00
 BRION: g(F)=  0.104E+00 g(S)=  0.000E+00 retain N=  4 mean eig= 3.63
 eig:   5.586  5.586  1.666  1.666
 bond charge predicted
       N       E                     dE             d eps       ncg     rms          rms(c)
DAV:   1    -0.136058221288E+04   -0.28092E-01   -0.34449E+01  1368   0.831E+00    0.956E-01
DAV:   2    -0.136075519061E+04   -0.17298E+00   -0.18211E+00  2312   0.328E+00    0.500E-01
DAV:   3    -0.136076426773E+04   -0.90771E-02   -0.13750E-01  2608   0.604E-01    0.401E-01
DAV:   4    -0.136076170096E+04    0.25668E-02   -0.13626E-02  2600   0.266E-01    0.273E-01
DAV:   5    -0.136075967345E+04    0.20275E-02   -0.71199E-03  2264   0.164E-01    0.103E-01
DAV:   6    -0.136075987629E+04   -0.20284E-03   -0.41335E-03  2376   0.117E-01    0.826E-02
DAV:   7    -0.136075985693E+04    0.19367E-04   -0.16820E-03  2408   0.749E-02    0.564E-02
DAV:   8    -0.136075985594E+04    0.98567E-06   -0.61141E-04  2560   0.471E-02    0.347E-02
DAV:   9    -0.136075985029E+04    0.56537E-05   -0.12578E-04  2504   0.240E-02    0.256E-02
DAV:  10    -0.136075985019E+04    0.98706E-07   -0.60359E-05  2552   0.142E-02    0.139E-02
DAV:  11    -0.136075985084E+04   -0.65329E-06   -0.24609E-05  2208   0.107E-02    0.794E-03
DAV:  12    -0.136075985051E+04    0.32762E-06   -0.11043E-05  1808   0.768E-03    0.650E-03
DAV:  13    -0.136075985017E+04    0.34274E-06   -0.52890E-06  1360   0.543E-03
  16 F= -.13607599E+04 E0= -.13607599E+04  d E =-.205730E+00
 BRION: g(F)=  0.840E-01 g(S)=  0.000E+00 retain N=  3 mean eig= 4.08
 eig:   5.380  5.380  1.488
 bond charge predicted
       N       E                     dE             d eps       ncg     rms          rms(c)
DAV:   1    -0.136081037022E+04   -0.50520E-01   -0.23122E+01  1368   0.680E+00    0.757E-01
DAV:   2    -0.136092383250E+04   -0.11346E+00   -0.11904E+00  2296   0.264E+00    0.399E-01
DAV:   3    -0.136093003762E+04   -0.62051E-02   -0.91085E-02  2592   0.492E-01    0.320E-01
DAV:   4    -0.136092856783E+04    0.14698E-02   -0.83894E-03  2576   0.211E-01    0.226E-01
DAV:   5    -0.136092706522E+04    0.15026E-02   -0.44811E-03  2256   0.137E-01    0.901E-02
DAV:   6    -0.136092716480E+04   -0.99579E-04   -0.32911E-03  2328   0.107E-01    0.693E-02
DAV:   7    -0.136092716723E+04   -0.24280E-05   -0.12926E-03  2416   0.656E-02    0.532E-02
DAV:   8    -0.136092715638E+04    0.10854E-04   -0.44423E-04  2528   0.402E-02    0.294E-02
DAV:   9    -0.136092714980E+04    0.65777E-05   -0.11378E-04  2416   0.220E-02    0.195E-02
DAV:  10    -0.136092715173E+04   -0.19310E-05   -0.50511E-05  2440   0.131E-02    0.125E-02
DAV:  11    -0.136092715124E+04    0.48467E-06   -0.18779E-05  2032   0.984E-03    0.724E-03
DAV:  12    -0.136092715131E+04   -0.66619E-07   -0.10491E-05  1688   0.718E-03    0.669E-03
DAV:  13    -0.136092715070E+04    0.61168E-06   -0.36684E-06  1200   0.556E-03
  17 F= -.13609272E+04 E0= -.13609272E+04  d E =-.167301E+00
 BRION: g(F)=  0.751E-01 g(S)=  0.000E+00 retain N=  3 mean eig= 3.92
 eig:   5.213  5.213  1.334
 bond charge predicted
       N       E                     dE             d eps       ncg     rms          rms(c)
DAV:   1    -0.136098719035E+04   -0.60039E-01   -0.10073E+01  1368   0.447E+00    0.508E-01
DAV:   2    -0.136103679617E+04   -0.49606E-01   -0.52039E-01  2312   0.174E+00    0.264E-01
DAV:   3    -0.136103943122E+04   -0.26351E-02   -0.39384E-02  2600   0.327E-01    0.210E-01
DAV:   4    -0.136103869307E+04    0.73815E-03   -0.37324E-03  2552   0.141E-01    0.142E-01
DAV:   5    -0.136103814416E+04    0.54891E-03   -0.21220E-03  2216   0.903E-02    0.509E-02
DAV:   6    -0.136103821796E+04   -0.73797E-04   -0.11359E-03  2448   0.606E-02    0.456E-02
DAV:   7    -0.136103821065E+04    0.73022E-05   -0.40294E-04  2472   0.379E-02    0.306E-02
DAV:   8    -0.136103820571E+04    0.49457E-05   -0.14552E-04  2536   0.235E-02    0.168E-02
DAV:   9    -0.136103820501E+04    0.70245E-06   -0.28439E-05  2400   0.117E-02    0.119E-02
DAV:  10    -0.136103820517E+04   -0.16335E-06   -0.15231E-05  1808   0.775E-03    0.571E-03
DAV:  11    -0.136103820493E+04    0.23776E-06   -0.18554E-06  1000   0.602E-03
  18 F= -.13610382E+04 E0= -.13610382E+04  d E =-.111054E+00
 BRION: g(F)=  0.693E-01 g(S)=  0.000E+00 retain N=  3 mean eig= 3.34
 eig:   4.377  4.377  1.259
 bond charge predicted
       N       E                     dE             d eps       ncg     rms          rms(c)
DAV:   1    -0.136107936860E+04   -0.41163E-01   -0.28043E+01  1368   0.746E+00    0.823E-01
DAV:   2    -0.136121721519E+04   -0.13785E+00   -0.14425E+00  2296   0.290E+00    0.434E-01
DAV:   3    -0.136122425745E+04   -0.70423E-02   -0.10632E-01  2592   0.557E-01    0.344E-01
DAV:   4    -0.136122233925E+04    0.19182E-02   -0.10410E-02  2584   0.233E-01    0.235E-01
DAV:   5    -0.136122074168E+04    0.15976E-02   -0.54231E-03  2272   0.150E-01    0.911E-02
DAV:   6    -0.136122087651E+04   -0.13482E-03   -0.33672E-03  2392   0.107E-01    0.717E-02
DAV:   7    -0.136122087543E+04    0.10783E-05   -0.12051E-03  2448   0.652E-02    0.526E-02
DAV:   8    -0.136122086749E+04    0.79359E-05   -0.47535E-04  2528   0.410E-02    0.294E-02
DAV:   9    -0.136122086305E+04    0.44434E-05   -0.10380E-04  2424   0.216E-02    0.204E-02
DAV:  10    -0.136122086384E+04   -0.79024E-06   -0.55897E-05  2520   0.140E-02    0.118E-02
DAV:  11    -0.136122086352E+04    0.31700E-06   -0.17891E-05  2112   0.993E-03    0.592E-03
DAV:  12    -0.136122086393E+04   -0.40533E-06   -0.95438E-06  1736   0.654E-03
  19 F= -.13612209E+04 E0= -.13612209E+04  d E =-.182659E+00
 BRION: g(F)=  0.637E-01 g(S)=  0.000E+00 retain N=  3 mean eig= 5.06
 eig:   6.859  6.859  1.461
 bond charge predicted
       N       E                     dE             d eps       ncg     rms          rms(c)
DAV:   1    -0.136128179869E+04   -0.60935E-01   -0.13794E+01  1368   0.523E+00    0.579E-01
DAV:   2    -0.136134983879E+04   -0.68040E-01   -0.71284E-01  2312   0.203E+00    0.304E-01
DAV:   3    -0.136135337668E+04   -0.35379E-02   -0.53032E-02  2592   0.387E-01    0.241E-01
DAV:   4    -0.136135244299E+04    0.93368E-03   -0.51327E-03  2576   0.165E-01    0.165E-01
DAV:   5    -0.136135166232E+04    0.78067E-03   -0.27051E-03  2296   0.105E-01    0.646E-02
DAV:   6    -0.136135172518E+04   -0.62856E-04   -0.16310E-03  2392   0.748E-02    0.502E-02
DAV:   7    -0.136135172416E+04    0.10173E-05   -0.58997E-04  2464   0.463E-02    0.366E-02
DAV:   8    -0.136135172107E+04    0.30922E-05   -0.24131E-04  2512   0.290E-02    0.213E-02
DAV:   9    -0.136135171839E+04    0.26782E-05   -0.51866E-05  2400   0.153E-02    0.147E-02
DAV:  10    -0.136135171858E+04   -0.18947E-06   -0.28789E-05  2272   0.100E-02    0.808E-03
DAV:  11    -0.136135171823E+04    0.34721E-06   -0.54813E-06  1360   0.721E-03
  20 F= -.13613517E+04 E0= -.13613517E+04  d E =-.130854E+00
 BRION: g(F)=  0.607E-01 g(S)=  0.000E+00 retain N=  3 mean eig= 3.73
 eig:   1.395  4.904  4.904
