 running on  160 total cores
 distrk:  each k-point on  160 cores,    1 groups
 distr:  one band on   20 cores,    8 groups
 using from now: INCAR     
 vasp.5.4.4.18Apr17-6-g9f103f2a35 (build May 01 2020 14:22:42) gamma-only       
  
 POSCAR found type information on POSCAR  O  La Zr Li Al
 POSCAR found :  5 types and     186 ions
 scaLAPACK will be used
 LDA part: xc-table for Pade appr. of Perdew
 POSCAR, INCAR and KPOINTS ok, starting setup
 FFT: planning ...
 WAVECAR not read
 WARNING: random wavefunctions but no delay for mixing, default for NELMDL
 entering main loop
       N       E                     dE             d eps       ncg     rms          rms(c)
DAV:   1     0.252976576619E+05    0.25298E+05   -0.42067E+05  1584   0.253E+03
DAV:   2     0.948675231195E+04   -0.15811E+05   -0.14554E+05  1424   0.709E+02
DAV:   3     0.271875530219E+04   -0.67680E+04   -0.61663E+04  1480   0.357E+02
DAV:   4    -0.350855242824E+03   -0.30696E+04   -0.28545E+04  2072   0.223E+02
DAV:   5    -0.139762501591E+04   -0.10468E+04   -0.10130E+04  2536   0.144E+02    0.117E+02
DAV:   6    -0.128208394953E+04    0.11554E+03   -0.14148E+03  2448   0.660E+01    0.500E+01
DAV:   7    -0.130561534064E+04   -0.23531E+02   -0.39791E+02  2568   0.346E+01    0.277E+01
DAV:   8    -0.130861896598E+04   -0.30036E+01   -0.18992E+02  2560   0.248E+01    0.206E+01
DAV:   9    -0.130944894294E+04   -0.82998E+00   -0.30815E+01  2528   0.129E+01    0.126E+01
DAV:  10    -0.130724276268E+04    0.22062E+01   -0.18791E+01  2480   0.741E+00    0.650E+00
DAV:  11    -0.130743714280E+04   -0.19438E+00   -0.57172E+00  2576   0.456E+00    0.525E+00
DAV:  12    -0.130745538945E+04   -0.18247E-01   -0.19227E+00  2432   0.249E+00    0.454E+00
DAV:  13    -0.130748163982E+04   -0.26250E-01   -0.17701E+00  2320   0.269E+00    0.285E+00
DAV:  14    -0.130743188808E+04    0.49752E-01   -0.99231E-01  2408   0.172E+00    0.180E+00
DAV:  15    -0.130739503824E+04    0.36850E-01   -0.38501E-01  2480   0.117E+00    0.111E+00
DAV:  16    -0.130738343068E+04    0.11608E-01   -0.99080E-02  2440   0.586E-01    0.607E-01
DAV:  17    -0.130738420009E+04   -0.76941E-03   -0.52696E-02  2560   0.389E-01    0.495E-01
DAV:  18    -0.130738122608E+04    0.29740E-02   -0.16933E-02  2432   0.266E-01    0.288E-01
DAV:  19    -0.130738138830E+04   -0.16222E-03   -0.55163E-03  2560   0.139E-01    0.231E-01
DAV:  20    -0.130738094700E+04    0.44130E-03   -0.17641E-03  2568   0.783E-02    0.162E-01
DAV:  21    -0.130738070332E+04    0.24368E-03   -0.10276E-03  2544   0.605E-02    0.929E-02
DAV:  22    -0.130738068669E+04    0.16628E-04   -0.89507E-04  2464   0.449E-02    0.661E-02
DAV:  23    -0.130738063593E+04    0.50762E-04   -0.24490E-04  2448   0.334E-02    0.223E-02
DAV:  24    -0.130738063579E+04    0.13973E-06   -0.49414E-05  2488   0.149E-02    0.141E-02
DAV:  25    -0.130738063734E+04   -0.15514E-05   -0.22287E-05  2080   0.889E-03    0.876E-03
DAV:  26    -0.130738063800E+04   -0.65625E-06   -0.16671E-05  1864   0.769E-03    0.106E-02
DAV:  27    -0.130738063770E+04    0.29519E-06   -0.33161E-06  1152   0.650E-03
   1 F= -.13073806E+04 E0= -.13072972E+04  d E =-.130738E+04
 BRION: g(F)=  0.921E+02 g(S)=  0.000E+00
 bond charge predicted
       N       E                     dE             d eps       ncg     rms          rms(c)
DAV:   1    -0.122437595851E+04    0.83005E+02   -0.11615E+04  1760   0.162E+02    0.433E+01
DAV:   2    -0.133206524114E+04   -0.10769E+03   -0.12194E+03  2560   0.785E+01    0.205E+01
DAV:   3    -0.132916718268E+04    0.28981E+01   -0.76415E+01  2624   0.212E+01    0.133E+01
DAV:   4    -0.132604847073E+04    0.31187E+01   -0.32470E+01  2400   0.113E+01    0.664E+00
DAV:   5    -0.132613373521E+04   -0.85264E-01   -0.95635E+00  2584   0.619E+00    0.499E+00
DAV:   6    -0.132601346075E+04    0.12027E+00   -0.51137E+00  2584   0.387E+00    0.279E+00
DAV:   7    -0.132599736181E+04    0.16099E-01   -0.75143E-01  2528   0.217E+00    0.165E+00
DAV:   8    -0.132599770349E+04   -0.34168E-03   -0.77838E-01  2488   0.147E+00    0.989E-01
DAV:   9    -0.132600291696E+04   -0.52135E-02   -0.15032E-01  2536   0.742E-01    0.802E-01
DAV:  10    -0.132599729380E+04    0.56232E-02   -0.62781E-02  2600   0.445E-01    0.344E-01
DAV:  11    -0.132599865274E+04   -0.13589E-02   -0.35652E-02  2600   0.308E-01    0.214E-01
DAV:  12    -0.132599853792E+04    0.11482E-03   -0.58513E-03  2536   0.162E-01    0.115E-01
DAV:  13    -0.132599858358E+04   -0.45661E-04   -0.33694E-03  2592   0.941E-02    0.363E-02
DAV:  14    -0.132599863504E+04   -0.51456E-04   -0.58455E-04  2624   0.452E-02    0.179E-02
DAV:  15    -0.132599865036E+04   -0.15323E-04   -0.17836E-04  2488   0.204E-02    0.114E-02
DAV:  16    -0.132599865476E+04   -0.44032E-05   -0.67224E-05  2568   0.137E-02    0.761E-03
DAV:  17    -0.132599865851E+04   -0.37431E-05   -0.25834E-05  1984   0.839E-03    0.472E-03
DAV:  18    -0.132599865887E+04   -0.36115E-06   -0.74975E-06  1136   0.521E-03
   2 F= -.13259987E+04 E0= -.13259987E+04  d E =-.186180E+02
 BRION: g(F)=  0.195E+03 g(S)=  0.000E+00 retain N=  1 mean eig= 0.38
 eig:   0.379
 bond charge predicted
       N       E                     dE             d eps       ncg     rms          rms(c)
DAV:   1    -0.130525025798E+04    0.20748E+02   -0.40036E+03  1352   0.809E+01    0.292E+01
DAV:   2    -0.134846024172E+04   -0.43210E+02   -0.54690E+02  2544   0.400E+01    0.253E+01
DAV:   3    -0.134390276430E+04    0.45575E+01   -0.45476E+01  2504   0.147E+01    0.179E+01
DAV:   4    -0.134142789794E+04    0.24749E+01   -0.45225E+01  2144   0.882E+00    0.843E+00
DAV:   5    -0.134209531405E+04   -0.66742E+00   -0.10405E+01  2400   0.540E+00    0.885E+00
DAV:   6    -0.134071791943E+04    0.13774E+01   -0.12445E+01  2384   0.442E+00    0.185E+00
DAV:   7    -0.134080543095E+04   -0.87512E-01   -0.16575E+00  2400   0.283E+00    0.133E+00
DAV:   8    -0.134080646957E+04   -0.10386E-02   -0.34937E-01  2616   0.101E+00    0.795E-01
DAV:   9    -0.134080045258E+04    0.60170E-02   -0.93935E-02  2600   0.573E-01    0.386E-01
DAV:  10    -0.134080166437E+04   -0.12118E-02   -0.30146E-02  2536   0.348E-01    0.194E-01
DAV:  11    -0.134080176306E+04   -0.98692E-04   -0.65993E-03  2600   0.176E-01    0.146E-01
DAV:  12    -0.134080165994E+04    0.10313E-03   -0.42415E-03  2544   0.114E-01    0.801E-02
DAV:  13    -0.134080165974E+04    0.20042E-06   -0.14201E-03  2544   0.759E-02    0.554E-02
DAV:  14    -0.134080166336E+04   -0.36222E-05   -0.55985E-04  2544   0.455E-02    0.435E-02
DAV:  15    -0.134080164724E+04    0.16115E-04   -0.21388E-04  2592   0.273E-02    0.179E-02
DAV:  16    -0.134080164752E+04   -0.28103E-06   -0.57930E-05  2528   0.144E-02    0.708E-03
DAV:  17    -0.134080164853E+04   -0.10066E-05   -0.15309E-05  2216   0.828E-03    0.453E-03
DAV:  18    -0.134080164834E+04    0.18904E-06   -0.15114E-06  1048   0.456E-03
   3 F= -.13408016E+04 E0= -.13408016E+04  d E =-.148030E+02
 BRION: g(F)=  0.199E+02 g(S)=  0.000E+00 retain N=  2 mean eig= 2.30
 eig:   0.256  4.336
 bond charge predicted
       N       E                     dE             d eps       ncg     rms          rms(c)
DAV:   1    -0.134149003447E+04   -0.68839E+00   -0.84974E+02  1376   0.404E+01    0.912E+00
DAV:   2    -0.134640271394E+04   -0.49127E+01   -0.57196E+01  2464   0.169E+01    0.488E+00
DAV:   3    -0.134635929201E+04    0.43422E-01   -0.39521E+00  2608   0.484E+00    0.383E+00
DAV:   4    -0.134619426913E+04    0.16502E+00   -0.13594E+00  2480   0.225E+00    0.188E+00
DAV:   5    -0.134617501294E+04    0.19256E-01   -0.38576E-01  2424   0.146E+00    0.124E+00
DAV:   6    -0.134616589627E+04    0.91167E-02   -0.34824E-01  2544   0.107E+00    0.619E-01
DAV:   7    -0.134616745185E+04   -0.15556E-02   -0.75154E-02  2528   0.553E-01    0.511E-01
DAV:   8    -0.134616584642E+04    0.16054E-02   -0.23407E-02  2616   0.288E-01    0.271E-01
DAV:   9    -0.134616544142E+04    0.40500E-03   -0.11238E-02  2592   0.194E-01    0.139E-01
DAV:  10    -0.134616572749E+04   -0.28607E-03   -0.40808E-03  2256   0.122E-01    0.133E-01
DAV:  11    -0.134616552501E+04    0.20249E-03   -0.11376E-03  2592   0.721E-02    0.666E-02
DAV:  12    -0.134616552516E+04   -0.15899E-06   -0.86513E-04  2584   0.496E-02    0.337E-02
DAV:  13    -0.134616553401E+04   -0.88413E-05   -0.15483E-04  2600   0.277E-02    0.214E-02
DAV:  14    -0.134616553057E+04    0.34352E-05   -0.47095E-05  2624   0.133E-02    0.125E-02
DAV:  15    -0.134616553167E+04   -0.10992E-05   -0.29547E-05  2480   0.102E-02    0.645E-03
DAV:  16    -0.134616553095E+04    0.72240E-06   -0.24255E-06  1112   0.548E-03
   4 F= -.13461655E+04 E0= -.13461655E+04  d E =-.536388E+01
 BRION: g(F)=  0.690E+01 g(S)=  0.000E+00 retain N=  2 mean eig= 0.38
 eig:   0.377  0.377
 bond charge predicted
       N       E                     dE             d eps       ncg     rms          rms(c)
DAV:   1    -0.134765832909E+04   -0.14928E+01   -0.27179E+02  1368   0.230E+01    0.385E+00
DAV:   2    -0.134900943302E+04   -0.13511E+01   -0.14780E+01  2288   0.853E+00    0.203E+00
DAV:   3    -0.134903144719E+04   -0.22014E-01   -0.10840E+00  2608   0.195E+00    0.171E+00
DAV:   4    -0.134897886083E+04    0.52586E-01   -0.29058E-01  2552   0.109E+00    0.844E-01
DAV:   5    -0.134897090625E+04    0.79546E-02   -0.11256E-01  2400   0.709E-01    0.604E-01
DAV:   6    -0.134896844351E+04    0.24627E-02   -0.73704E-02  2568   0.522E-01    0.335E-01
DAV:   7    -0.134896844676E+04   -0.32465E-05   -0.25918E-02  2464   0.293E-01    0.246E-01
DAV:   8    -0.134896821749E+04    0.22926E-03   -0.60136E-03  2544   0.144E-01    0.127E-01
DAV:   9    -0.134896811939E+04    0.98105E-04   -0.26472E-03  2592   0.914E-02    0.822E-02
DAV:  10    -0.134896820107E+04   -0.81677E-04   -0.12352E-03  2280   0.650E-02    0.877E-02
DAV:  11    -0.134896809900E+04    0.10206E-03   -0.60810E-04  2408   0.463E-02    0.362E-02
DAV:  12    -0.134896810930E+04   -0.10295E-04   -0.41439E-04  2456   0.340E-02    0.237E-02
DAV:  13    -0.134896810804E+04    0.12551E-05   -0.68603E-05  2448   0.183E-02    0.160E-02
DAV:  14    -0.134896810697E+04    0.10751E-05   -0.34831E-05  2104   0.951E-03    0.603E-03
DAV:  15    -0.134896810688E+04    0.88112E-07   -0.37198E-06  1160   0.591E-03
   5 F= -.13489681E+04 E0= -.13489681E+04  d E =-.280258E+01
 BRION: g(F)=  0.369E+01 g(S)=  0.000E+00 retain N=  3 mean eig= 0.36
 eig:   0.466  0.310  0.310
 bond charge predicted
       N       E                     dE             d eps       ncg     rms          rms(c)
DAV:   1    -0.134989825772E+04   -0.93015E+00   -0.23089E+02  1344   0.210E+01    0.321E+00
DAV:   2    -0.135101823049E+04   -0.11200E+01   -0.11859E+01  2288   0.784E+00    0.164E+00
DAV:   3    -0.135104433027E+04   -0.26100E-01   -0.79965E-01  2608   0.164E+00    0.135E+00
DAV:   4    -0.135100782562E+04    0.36505E-01   -0.17033E-01  2520   0.861E-01    0.698E-01
DAV:   5    -0.135100153031E+04    0.62953E-02   -0.78024E-02  2456   0.551E-01    0.416E-01
DAV:   6    -0.135100122347E+04    0.30684E-03   -0.36494E-02  2528   0.363E-01    0.238E-01
DAV:   7    -0.135100113277E+04    0.90702E-04   -0.10637E-02  2520   0.198E-01    0.163E-01
DAV:   8    -0.135100104372E+04    0.89051E-04   -0.26188E-03  2600   0.997E-02    0.859E-02
DAV:   9    -0.135100104139E+04    0.23269E-05   -0.12752E-03  2624   0.645E-02    0.591E-02
DAV:  10    -0.135100103392E+04    0.74730E-05   -0.38927E-04  2256   0.405E-02    0.436E-02
DAV:  11    -0.135100102602E+04    0.79025E-05   -0.34289E-04  2312   0.295E-02    0.208E-02
DAV:  12    -0.135100102307E+04    0.29503E-05   -0.83273E-05  2432   0.182E-02    0.111E-02
DAV:  13    -0.135100102397E+04   -0.90546E-06   -0.32994E-05  2248   0.109E-02    0.732E-03
DAV:  14    -0.135100102409E+04   -0.11199E-06   -0.10005E-05  1688   0.629E-03    0.482E-03
DAV:  15    -0.135100102374E+04    0.34999E-06   -0.21666E-06  1032   0.500E-03
   6 F= -.13510010E+04 E0= -.13510010E+04  d E =-.203292E+01
 BRION: g(F)=  0.232E+01 g(S)=  0.000E+00 retain N=  4 mean eig= 0.56
 eig:   0.996  0.227  0.516  0.516
 bond charge predicted
       N       E                     dE             d eps       ncg     rms          rms(c)
DAV:   1    -0.135148895138E+04   -0.48793E+00   -0.29686E+02  1344   0.237E+01    0.333E+00
DAV:   2    -0.135306626337E+04   -0.15773E+01   -0.16532E+01  2288   0.895E+00    0.183E+00
DAV:   3    -0.135311719697E+04   -0.50934E-01   -0.11811E+00  2592   0.192E+00    0.160E+00
DAV:   4    -0.135308393054E+04    0.33266E-01   -0.18720E-01  2560   0.891E-01    0.994E-01
DAV:   5    -0.135306054441E+04    0.23386E-01   -0.98093E-02  2352   0.582E-01    0.403E-01
DAV:   6    -0.135306386513E+04   -0.33207E-02   -0.59081E-02  2488   0.442E-01    0.437E-01
DAV:   7    -0.135306162867E+04    0.22365E-02   -0.18642E-02  2472   0.267E-01    0.281E-01
DAV:   8    -0.135306121012E+04    0.41855E-03   -0.13035E-02  2456   0.180E-01    0.104E-01
DAV:   9    -0.135306121287E+04   -0.27463E-05   -0.16043E-03  2264   0.818E-02    0.777E-02
DAV:  10    -0.135306122354E+04   -0.10671E-04   -0.47504E-04  2368   0.395E-02    0.452E-02
DAV:  11    -0.135306121530E+04    0.82410E-05   -0.15320E-04  2544   0.262E-02    0.231E-02
DAV:  12    -0.135306121764E+04   -0.23436E-05   -0.12194E-04  2464   0.194E-02    0.158E-02
DAV:  13    -0.135306121612E+04    0.15270E-05   -0.31971E-05  2280   0.114E-02    0.802E-03
DAV:  14    -0.135306121658E+04   -0.46135E-06   -0.61475E-06  1416   0.628E-03
   7 F= -.13530612E+04 E0= -.13530612E+04  d E =-.206019E+01
 BRION: g(F)=  0.987E+00 g(S)=  0.000E+00 retain N=  5 mean eig= 0.75
 eig:   1.368  1.368  0.219  0.219  0.599
 bond charge predicted
       N       E                     dE             d eps       ncg     rms          rms(c)
DAV:   1    -0.135347421008E+04   -0.41299E+00   -0.10252E+02  1376   0.142E+01    0.201E+00
DAV:   2    -0.135399709033E+04   -0.52288E+00   -0.55155E+00  2280   0.530E+00    0.985E-01
DAV:   3    -0.135402231444E+04   -0.25224E-01   -0.42698E-01  2608   0.111E+00    0.771E-01
DAV:   4    -0.135401144749E+04    0.10867E-01   -0.55016E-02  2552   0.540E-01    0.430E-01
DAV:   5    -0.135400903546E+04    0.24120E-02   -0.23785E-02  2440   0.288E-01    0.177E-01
DAV:   6    -0.135400966131E+04   -0.62585E-03   -0.87018E-03  2600   0.167E-01    0.113E-01
DAV:   7    -0.135400965389E+04    0.74152E-05   -0.21319E-03  2560   0.965E-02    0.778E-02
DAV:   8    -0.135400967234E+04   -0.18443E-04   -0.90819E-04  2584   0.555E-02    0.425E-02
DAV:   9    -0.135400966327E+04    0.90632E-05   -0.18967E-04  2592   0.326E-02    0.269E-02
DAV:  10    -0.135400967180E+04   -0.85273E-05   -0.15924E-04  2616   0.218E-02    0.176E-02
DAV:  11    -0.135400966894E+04    0.28615E-05   -0.35524E-05  2464   0.129E-02    0.837E-03
DAV:  12    -0.135400966987E+04   -0.93195E-06   -0.15074E-05  1952   0.747E-03    0.556E-03
DAV:  13    -0.135400966938E+04    0.49046E-06   -0.15593E-06  1024   0.493E-03
   8 F= -.13540097E+04 E0= -.13540097E+04  d E =-.948453E+00
 BRION: g(F)=  0.739E+00 g(S)=  0.000E+00 retain N=  6 mean eig= 1.00
 eig:   2.115  2.115  0.267  0.189  0.647  0.647
 bond charge predicted
       N       E                     dE             d eps       ncg     rms          rms(c)
DAV:   1    -0.135444450191E+04   -0.43483E+00   -0.71748E+01  1384   0.121E+01    0.163E+00
DAV:   2    -0.135481499758E+04   -0.37050E+00   -0.39233E+00  2288   0.460E+00    0.819E-01
DAV:   3    -0.135483448093E+04   -0.19483E-01   -0.31310E-01  2616   0.952E-01    0.658E-01
DAV:   4    -0.135482725866E+04    0.72223E-02   -0.40492E-02  2576   0.465E-01    0.377E-01
DAV:   5    -0.135482507733E+04    0.21813E-02   -0.16231E-02  2472   0.259E-01    0.156E-01
DAV:   6    -0.135482553444E+04   -0.45711E-03   -0.78624E-03  2552   0.167E-01    0.108E-01
DAV:   7    -0.135482552252E+04    0.11914E-04   -0.25571E-03  2360   0.102E-01    0.766E-02
DAV:   8    -0.135482553900E+04   -0.16473E-04   -0.99317E-04  2456   0.558E-02    0.430E-02
DAV:   9    -0.135482552968E+04    0.93134E-05   -0.19424E-04  2608   0.312E-02    0.311E-02
DAV:  10    -0.135482553327E+04   -0.35908E-05   -0.20626E-04  2472   0.255E-02    0.220E-02
DAV:  11    -0.135482553018E+04    0.30932E-05   -0.65261E-05  2440   0.172E-02    0.883E-03
DAV:  12    -0.135482553204E+04   -0.18576E-05   -0.25780E-05  2200   0.983E-03    0.810E-03
DAV:  13    -0.135482553103E+04    0.10125E-05   -0.54304E-06  1336   0.653E-03    0.361E-03
DAV:  14    -0.135482553161E+04   -0.58427E-06   -0.82373E-06  1424   0.634E-03
   9 F= -.13548255E+04 E0= -.13548255E+04  d E =-.815862E+00
 BRION: g(F)=  0.627E+00 g(S)=  0.000E+00 retain N=  7 mean eig= 1.30
 eig:   2.974  2.974  0.906  0.906  0.345  0.345  0.671
 bond charge predicted
       N       E                     dE             d eps       ncg     rms          rms(c)
DAV:   1    -0.135505931876E+04   -0.23379E+00   -0.12949E+02  1384   0.164E+01    0.204E+00
DAV:   2    -0.135574627067E+04   -0.68695E+00   -0.72781E+00  2288   0.635E+00    0.103E+00
DAV:   3    -0.135578671286E+04   -0.40442E-01   -0.58925E-01  2616   0.131E+00    0.834E-01
DAV:   4    -0.135577696912E+04    0.97437E-02   -0.62233E-02  2600   0.605E-01    0.551E-01
DAV:   5    -0.135577099818E+04    0.59709E-02   -0.28303E-02  2432   0.325E-01    0.213E-01
DAV:   6    -0.135577175459E+04   -0.75641E-03   -0.14901E-02  2456   0.225E-01    0.152E-01
DAV:   7    -0.135577178586E+04   -0.31271E-04   -0.65072E-03  2504   0.154E-01    0.108E-01
DAV:   8    -0.135577180647E+04   -0.20606E-04   -0.21837E-03  2608   0.897E-02    0.655E-02
DAV:   9    -0.135577178107E+04    0.25399E-04   -0.43777E-04  2560   0.458E-02    0.479E-02
DAV:  10    -0.135577178561E+04   -0.45417E-05   -0.29985E-04  2592   0.307E-02    0.268E-02
DAV:  11    -0.135577178642E+04   -0.80789E-06   -0.13091E-04  2496   0.232E-02    0.129E-02
DAV:  12    -0.135577178655E+04   -0.13658E-06   -0.33793E-05  2344   0.148E-02    0.106E-02
DAV:  13    -0.135577178618E+04    0.37182E-06   -0.24111E-05  2088   0.838E-03    0.579E-03
DAV:  14    -0.135577178598E+04    0.20502E-06   -0.32174E-06  1152   0.518E-03
  10 F= -.13557718E+04 E0= -.13557718E+04  d E =-.946254E+00
 BRION: g(F)=  0.415E+00 g(S)=  0.000E+00 retain N=  8 mean eig= 2.00
 eig:   5.473  5.473  1.339  1.339  0.613  0.613  0.571  0.571
 bond charge predicted
       N       E                     dE             d eps       ncg     rms          rms(c)
DAV:   1    -0.135601641260E+04   -0.24463E+00   -0.59902E+01  1384   0.112E+01    0.148E+00
DAV:   2    -0.135633461190E+04   -0.31820E+00   -0.33821E+00  2280   0.430E+00    0.753E-01
DAV:   3    -0.135635156648E+04   -0.16955E-01   -0.27170E-01  2608   0.912E-01    0.609E-01
DAV:   4    -0.135634524786E+04    0.63186E-02   -0.35682E-02  2568   0.436E-01    0.367E-01
DAV:   5    -0.135634291938E+04    0.23285E-02   -0.15853E-02  2448   0.250E-01    0.153E-01
DAV:   6    -0.135634337287E+04   -0.45349E-03   -0.71555E-03  2568   0.157E-01    0.107E-01
DAV:   7    -0.135634332298E+04    0.49892E-04   -0.22757E-03  2432   0.977E-02    0.705E-02
DAV:   8    -0.135634334622E+04   -0.23237E-04   -0.96361E-04  2528   0.555E-02    0.421E-02
DAV:   9    -0.135634333458E+04    0.11639E-04   -0.16443E-04  2536   0.292E-02    0.297E-02
DAV:  10    -0.135634333817E+04   -0.35862E-05   -0.15266E-04  2520   0.215E-02    0.181E-02
DAV:  11    -0.135634333710E+04    0.10622E-05   -0.51657E-05  2400   0.153E-02    0.723E-03
DAV:  12    -0.135634333810E+04   -0.99583E-06   -0.13355E-05  1904   0.877E-03    0.629E-03
DAV:  13    -0.135634333763E+04    0.47286E-06   -0.49587E-06  1312   0.556E-03
  11 F= -.13563433E+04 E0= -.13563433E+04  d E =-.571552E+00
 BRION: g(F)=  0.281E+00 g(S)=  0.000E+00 retain N=  9 mean eig= 2.54
 eig:   7.364  7.364  2.420  2.420  0.752  0.752  0.644  0.644  0.544
 bond charge predicted
       N       E                     dE             d eps       ncg     rms          rms(c)
DAV:   1    -0.135651064819E+04   -0.16731E+00   -0.49930E+01  1384   0.102E+01    0.124E+00
DAV:   2    -0.135676947977E+04   -0.25883E+00   -0.27369E+00  2280   0.387E+00    0.632E-01
DAV:   3    -0.135678337486E+04   -0.13895E-01   -0.21379E-01  2608   0.795E-01    0.514E-01
DAV:   4    -0.135677925488E+04    0.41200E-02   -0.22962E-02  2608   0.363E-01    0.351E-01
DAV:   5    -0.135677591066E+04    0.33442E-02   -0.11990E-02  2320   0.221E-01    0.133E-01
DAV:   6    -0.135677626219E+04   -0.35153E-03   -0.74772E-03  2472   0.158E-01    0.109E-01
DAV:   7    -0.135677622371E+04    0.38483E-04   -0.23774E-03  2472   0.942E-02    0.768E-02
DAV:   8    -0.135677621238E+04    0.11327E-04   -0.98061E-04  2592   0.580E-02    0.405E-02
DAV:   9    -0.135677620264E+04    0.97476E-05   -0.17880E-04  2440   0.292E-02    0.289E-02
DAV:  10    -0.135677620491E+04   -0.22749E-05   -0.86030E-05  2448   0.175E-02    0.152E-02
DAV:  11    -0.135677620492E+04   -0.70577E-08   -0.29684E-05  2424   0.122E-02    0.712E-03
DAV:  12    -0.135677620576E+04   -0.84669E-06   -0.12787E-05  1872   0.797E-03    0.735E-03
DAV:  13    -0.135677620496E+04    0.80845E-06   -0.31675E-06  1136   0.557E-03
  12 F= -.13567762E+04 E0= -.13567762E+04  d E =-.432867E+00
 BRION: g(F)=  0.233E+00 g(S)=  0.000E+00 retain N=  9 mean eig= 2.18
 eig:   5.905  5.905  1.726  1.637  1.637  0.299  0.893  0.893  0.766
 bond charge predicted
       N       E                     dE             d eps       ncg     rms          rms(c)
DAV:   1    -0.135694074333E+04   -0.16454E+00   -0.26131E+01  1368   0.722E+00    0.934E-01
DAV:   2    -0.135707542102E+04   -0.13468E+00   -0.14284E+00  2272   0.271E+00    0.465E-01
DAV:   3    -0.135708254429E+04   -0.71233E-02   -0.11442E-01  2608   0.576E-01    0.375E-01
DAV:   4    -0.135707993306E+04    0.26112E-02   -0.13314E-02  2576   0.270E-01    0.230E-01
DAV:   5    -0.135707868386E+04    0.12492E-02   -0.62080E-03  2392   0.154E-01    0.894E-02
DAV:   6    -0.135707884110E+04   -0.15724E-03   -0.28229E-03  2488   0.981E-02    0.685E-02
DAV:   7    -0.135707882909E+04    0.12007E-04   -0.95372E-04  2488   0.603E-02    0.453E-02
DAV:   8    -0.135707883563E+04   -0.65329E-05   -0.36564E-04  2576   0.350E-02    0.269E-02
DAV:   9    -0.135707883048E+04    0.51467E-05   -0.68382E-05  2528   0.185E-02    0.195E-02
DAV:  10    -0.135707883216E+04   -0.16810E-05   -0.60504E-05  2272   0.138E-02    0.121E-02
DAV:  11    -0.135707883123E+04    0.93321E-06   -0.20595E-05  2192   0.102E-02    0.464E-03
DAV:  12    -0.135707883178E+04   -0.55546E-06   -0.71897E-06  1576   0.619E-03
  13 F= -.13570788E+04 E0= -.13570788E+04  d E =-.302627E+00
 BRION: g(F)=  0.214E+00 g(S)=  0.000E+00 retain N= 10 mean eig= 2.90
 eig:   7.328  7.328  4.195  4.195  1.735  0.616  0.954  0.954  0.846  0.846
 bond charge predicted
       N       E                     dE             d eps       ncg     rms          rms(c)
DAV:   1    -0.135716484912E+04   -0.86018E-01   -0.72114E+01  1376   0.121E+01    0.142E+00
DAV:   2    -0.135753532688E+04   -0.37048E+00   -0.38998E+00  2280   0.459E+00    0.730E-01
DAV:   3    -0.135755681439E+04   -0.21488E-01   -0.30933E-01  2584   0.950E-01    0.600E-01
DAV:   4    -0.135755242406E+04    0.43903E-02   -0.30019E-02  2600   0.414E-01    0.439E-01
DAV:   5    -0.135754676776E+04    0.56563E-02   -0.15768E-02  2344   0.261E-01    0.180E-01
DAV:   6    -0.135754705222E+04   -0.28446E-03   -0.13262E-02  2344   0.209E-01    0.133E-01
DAV:   7    -0.135754705406E+04   -0.18399E-05   -0.48083E-03  2392   0.131E-01    0.105E-01
DAV:   8    -0.135754701236E+04    0.41699E-04   -0.15917E-03  2576   0.772E-02    0.562E-02
DAV:   9    -0.135754698264E+04    0.29716E-04   -0.43056E-04  2424   0.418E-02    0.350E-02
DAV:  10    -0.135754699153E+04   -0.88861E-05   -0.14420E-04  2440   0.229E-02    0.225E-02
DAV:  11    -0.135754699071E+04    0.82304E-06   -0.55278E-05  2472   0.155E-02    0.136E-02
DAV:  12    -0.135754699065E+04    0.59299E-07   -0.30567E-05  2336   0.119E-02    0.120E-02
DAV:  13    -0.135754698953E+04    0.11214E-05   -0.17444E-05  1888   0.778E-03    0.612E-03
DAV:  14    -0.135754698922E+04    0.30517E-06   -0.40265E-06  1208   0.545E-03
  14 F= -.13575470E+04 E0= -.13575470E+04  d E =-.468157E+00
 BRION: g(F)=  0.158E+00 g(S)=  0.000E+00 retain N=  7 mean eig= 3.49
 eig:   7.342  7.342  3.020  3.020  1.367  1.367  0.948
 bond charge predicted
       N       E                     dE             d eps       ncg     rms          rms(c)
DAV:   1    -0.135764774049E+04   -0.10075E+00   -0.59236E+01  1376   0.110E+01    0.128E+00
DAV:   2    -0.135795729328E+04   -0.30955E+00   -0.32753E+00  2288   0.423E+00    0.655E-01
DAV:   3    -0.135797633184E+04   -0.19039E-01   -0.26804E-01  2576   0.875E-01    0.533E-01
DAV:   4    -0.135797280614E+04    0.35257E-02   -0.26104E-02  2600   0.388E-01    0.384E-01
DAV:   5    -0.135796898192E+04    0.38242E-02   -0.12060E-02  2392   0.219E-01    0.164E-01
DAV:   6    -0.135796899820E+04   -0.16286E-04   -0.86864E-03  2344   0.173E-01    0.108E-01
DAV:   7    -0.135796907103E+04   -0.72827E-04   -0.41801E-03  2448   0.120E-01    0.895E-02
DAV:   8    -0.135796904655E+04    0.24477E-04   -0.12598E-03  2560   0.703E-02    0.559E-02
DAV:   9    -0.135796902340E+04    0.23158E-04   -0.35824E-04  2560   0.376E-02    0.343E-02
DAV:  10    -0.135796902793E+04   -0.45383E-05   -0.12469E-04  2560   0.213E-02    0.205E-02
DAV:  11    -0.135796903119E+04   -0.32524E-05   -0.47535E-05  2480   0.144E-02    0.147E-02
DAV:  12    -0.135796902880E+04    0.23858E-05   -0.29175E-05  2280   0.120E-02    0.109E-02
DAV:  13    -0.135796902829E+04    0.51210E-06   -0.20381E-05  2120   0.832E-03    0.599E-03
DAV:  14    -0.135796902786E+04    0.42943E-06   -0.30565E-06  1120   0.510E-03
  15 F= -.13579690E+04 E0= -.13579690E+04  d E =-.422039E+00
 BRION: g(F)=  0.137E+00 g(S)=  0.000E+00 retain N=  4 mean eig= 3.88
 eig:   6.145  6.145  1.619  1.619
 bond charge predicted
       N       E                     dE             d eps       ncg     rms          rms(c)
DAV:   1    -0.135809605917E+04   -0.12703E+00   -0.26011E+01  1384   0.723E+00    0.850E-01
DAV:   2    -0.135823013533E+04   -0.13408E+00   -0.14137E+00  2280   0.279E+00    0.432E-01
DAV:   3    -0.135823831088E+04   -0.81755E-02   -0.11535E-01  2584   0.564E-01    0.351E-01
DAV:   4    -0.135823668534E+04    0.16255E-02   -0.11307E-02  2600   0.253E-01    0.248E-01
DAV:   5    -0.135823508110E+04    0.16042E-02   -0.51530E-03  2352   0.148E-01    0.103E-01
DAV:   6    -0.135823513903E+04   -0.57930E-04   -0.38378E-03  2352   0.118E-01    0.724E-02
DAV:   7    -0.135823516021E+04   -0.21179E-04   -0.17458E-03  2416   0.775E-02    0.585E-02
DAV:   8    -0.135823515107E+04    0.91422E-05   -0.52423E-04  2576   0.442E-02    0.343E-02
DAV:   9    -0.135823514200E+04    0.90696E-05   -0.15446E-04  2520   0.247E-02    0.218E-02
DAV:  10    -0.135823514458E+04   -0.25749E-05   -0.61102E-05  2512   0.149E-02    0.146E-02
DAV:  11    -0.135823514481E+04   -0.23693E-06   -0.26916E-05  2264   0.108E-02    0.905E-03
DAV:  12    -0.135823514417E+04    0.64135E-06   -0.12133E-05  1808   0.850E-03    0.743E-03
DAV:  13    -0.135823514390E+04    0.27544E-06   -0.10293E-05  1648   0.631E-03    0.409E-03
DAV:  14    -0.135823514366E+04    0.23890E-06   -0.18267E-06   968   0.512E-03
  16 F= -.13582351E+04 E0= -.13582351E+04  d E =-.266116E+00
 BRION: g(F)=  0.127E+00 g(S)=  0.000E+00 retain N=  4 mean eig= 4.42
 eig:   7.564  7.564  1.269  1.269
 bond charge predicted
       N       E                     dE             d eps       ncg     rms          rms(c)
DAV:   1    -0.135835916049E+04   -0.12402E+00   -0.20451E+01  1384   0.646E+00    0.757E-01
DAV:   2    -0.135846648801E+04   -0.10733E+00   -0.11339E+00  2296   0.250E+00    0.391E-01
DAV:   3    -0.135847321547E+04   -0.67275E-02   -0.93785E-02  2584   0.506E-01    0.317E-01
DAV:   4    -0.135847192291E+04    0.12926E-02   -0.92168E-03  2584   0.231E-01    0.223E-01
DAV:   5    -0.135847071193E+04    0.12110E-02   -0.43367E-03  2368   0.131E-01    0.919E-02
DAV:   6    -0.135847077344E+04   -0.61516E-04   -0.28690E-03  2432   0.101E-01    0.652E-02
DAV:   7    -0.135847078326E+04   -0.98202E-05   -0.12874E-03  2448   0.673E-02    0.496E-02
DAV:   8    -0.135847077845E+04    0.48118E-05   -0.44233E-04  2568   0.404E-02    0.300E-02
DAV:   9    -0.135847077246E+04    0.59958E-05   -0.10739E-04  2520   0.213E-02    0.203E-02
DAV:  10    -0.135847077295E+04   -0.48899E-06   -0.44017E-05  2520   0.125E-02    0.123E-02
DAV:  11    -0.135847077352E+04   -0.57157E-06   -0.18047E-05  2072   0.913E-03    0.755E-03
DAV:  12    -0.135847077309E+04    0.42496E-06   -0.84113E-06  1680   0.703E-03
  17 F= -.13584708E+04 E0= -.13584708E+04  d E =-.235629E+00
 BRION: g(F)=  0.119E+00 g(S)=  0.000E+00 retain N=  4 mean eig= 4.03
 eig:   6.507  6.507  1.559  1.559
 bond charge predicted
       N       E                     dE             d eps       ncg     rms          rms(c)
DAV:   1    -0.135857678724E+04   -0.10601E+00   -0.31465E+01  1384   0.799E+00    0.917E-01
DAV:   2    -0.135874076381E+04   -0.16398E+00   -0.17310E+00  2288   0.309E+00    0.475E-01
DAV:   3    -0.135875112535E+04   -0.10362E-01   -0.14446E-01  2576   0.630E-01    0.383E-01
DAV:   4    -0.135874934911E+04    0.17762E-02   -0.14107E-02  2592   0.284E-01    0.274E-01
DAV:   5    -0.135874754028E+04    0.18088E-02   -0.57839E-03  2416   0.153E-01    0.126E-01
DAV:   6    -0.135874742165E+04    0.11862E-03   -0.43830E-03  2296   0.128E-01    0.723E-02
DAV:   7    -0.135874750351E+04   -0.81854E-04   -0.23830E-03  2424   0.887E-02    0.674E-02
DAV:   8    -0.135874748757E+04    0.15935E-04   -0.59373E-04  2600   0.492E-02    0.460E-02
DAV:   9    -0.135874746777E+04    0.19799E-04   -0.24787E-04  2512   0.293E-02    0.248E-02
DAV:  10    -0.135874747218E+04   -0.44049E-05   -0.83996E-05  2536   0.182E-02    0.163E-02
DAV:  11    -0.135874747316E+04   -0.98620E-06   -0.24199E-05  2224   0.104E-02    0.104E-02
DAV:  12    -0.135874747200E+04    0.11630E-05   -0.24116E-05  1944   0.994E-03    0.775E-03
DAV:  13    -0.135874747189E+04    0.11014E-06   -0.10508E-05  1784   0.666E-03    0.590E-03
DAV:  14    -0.135874747149E+04    0.39930E-06   -0.37037E-06  1200   0.485E-03
  18 F= -.13587475E+04 E0= -.13587475E+04  d E =-.276698E+00
 BRION: g(F)=  0.105E+00 g(S)=  0.000E+00 retain N=  3 mean eig= 3.35
 eig:   4.430  4.430  1.195
 bond charge predicted
       N       E                     dE             d eps       ncg     rms          rms(c)
DAV:   1    -0.135884889055E+04   -0.10142E+00   -0.20045E+01  1384   0.634E+00    0.743E-01
DAV:   2    -0.135895228219E+04   -0.10339E+00   -0.10892E+00  2280   0.244E+00    0.378E-01
DAV:   3    -0.135895882436E+04   -0.65422E-02   -0.90963E-02  2576   0.498E-01    0.304E-01
DAV:   4    -0.135895761389E+04    0.12105E-02   -0.88205E-03  2568   0.224E-01    0.215E-01
DAV:   5    -0.135895646869E+04    0.11452E-02   -0.39525E-03  2416   0.124E-01    0.917E-02
DAV:   6    -0.135895648313E+04   -0.14446E-04   -0.26519E-03  2376   0.971E-02    0.593E-02
DAV:   7    -0.135895650405E+04   -0.20921E-04   -0.12732E-03  2424   0.664E-02    0.483E-02
DAV:   8    -0.135895649988E+04    0.41693E-05   -0.39798E-04  2584   0.386E-02    0.315E-02
DAV:   9    -0.135895649275E+04    0.71388E-05   -0.11369E-04  2536   0.211E-02    0.195E-02
DAV:  10    -0.135895649379E+04   -0.10430E-05   -0.43582E-05  2528   0.125E-02    0.120E-02
DAV:  11    -0.135895649402E+04   -0.23244E-06   -0.12321E-05  1832   0.807E-03    0.715E-03
DAV:  12    -0.135895649384E+04    0.17627E-06   -0.11259E-05  1696   0.724E-03    0.557E-03
DAV:  13    -0.135895649350E+04    0.34618E-06   -0.32835E-06  1136   0.555E-03
  19 F= -.13589565E+04 E0= -.13589565E+04  d E =-.209022E+00
 BRION: g(F)=  0.972E-01 g(S)=  0.000E+00 retain N=  4 mean eig= 4.13
 eig:   6.963  6.963  1.295  1.295
 bond charge predicted
       N       E                     dE             d eps       ncg     rms          rms(c)
DAV:   1    -0.135905063667E+04   -0.94143E-01   -0.14987E+01  1376   0.547E+00    0.633E-01
DAV:   2    -0.135912776476E+04   -0.77128E-01   -0.81133E-01  2280   0.209E+00    0.326E-01
DAV:   3    -0.135913258383E+04   -0.48191E-02   -0.67714E-02  2576   0.433E-01    0.263E-01
DAV:   4    -0.135913167860E+04    0.90522E-03   -0.66252E-03  2576   0.193E-01    0.188E-01
DAV:   5    -0.135913076160E+04    0.91700E-03   -0.28451E-03  2408   0.109E-01    0.835E-02
DAV:   6    -0.135913073080E+04    0.30798E-04   -0.21835E-03  2328   0.893E-02    0.501E-02
DAV:   7    -0.135913076413E+04   -0.33330E-04   -0.10619E-03  2432   0.598E-02    0.451E-02
DAV:   8    -0.135913075579E+04    0.83397E-05   -0.27754E-04  2584   0.329E-02    0.284E-02
DAV:   9    -0.135913074849E+04    0.73038E-05   -0.11527E-04  2488   0.201E-02    0.159E-02
DAV:  10    -0.135913075078E+04   -0.22958E-05   -0.39279E-05  2512   0.124E-02    0.122E-02
DAV:  11    -0.135913075017E+04    0.61284E-06   -0.14772E-05  1808   0.828E-03    0.666E-03
DAV:  12    -0.135913074999E+04    0.18351E-06   -0.10425E-05  1680   0.724E-03    0.539E-03
DAV:  13    -0.135913074961E+04    0.37299E-06   -0.28595E-06  1080   0.514E-03
  20 F= -.13591307E+04 E0= -.13591307E+04  d E =-.174256E+00
 BRION: g(F)=  0.874E-01 g(S)=  0.000E+00 retain N=  3 mean eig= 3.28
 eig:   4.346  4.346  1.157
