 running on  160 total cores
 distrk:  each k-point on  160 cores,    1 groups
 distr:  one band on   20 cores,    8 groups
 using from now: INCAR     
 vasp.5.4.4.18Apr17-6-g9f103f2a35 (build May 01 2020 14:22:42) gamma-only       
  
 POSCAR found type information on POSCAR  O  La Zr Li Al
 POSCAR found :  5 types and     186 ions
 scaLAPACK will be used
 LDA part: xc-table for Pade appr. of Perdew
 POSCAR, INCAR and KPOINTS ok, starting setup
 FFT: planning ...
 WAVECAR not read
 WARNING: random wavefunctions but no delay for mixing, default for NELMDL
 entering main loop
       N       E                     dE             d eps       ncg     rms          rms(c)
DAV:   1     0.252235717105E+05    0.25224E+05   -0.42099E+05  1608   0.253E+03
DAV:   2     0.951988699875E+04   -0.15704E+05   -0.14517E+05  1440   0.712E+02
DAV:   3     0.272997272558E+04   -0.67899E+04   -0.61841E+04  1528   0.356E+02
DAV:   4    -0.334176957615E+03   -0.30641E+04   -0.28569E+04  2048   0.223E+02
DAV:   5    -0.139330783871E+04   -0.10591E+04   -0.10210E+04  2528   0.140E+02    0.116E+02
DAV:   6    -0.128592358273E+04    0.10738E+03   -0.14371E+03  2416   0.659E+01    0.501E+01
DAV:   7    -0.130938591881E+04   -0.23462E+02   -0.40340E+02  2576   0.341E+01    0.256E+01
DAV:   8    -0.131526550712E+04   -0.58796E+01   -0.24058E+02  2544   0.264E+01    0.240E+01
DAV:   9    -0.131074323039E+04    0.45223E+01   -0.42378E+01  2536   0.140E+01    0.806E+00
DAV:  10    -0.131129889161E+04   -0.55566E+00   -0.16292E+01  2624   0.746E+00    0.644E+00
DAV:  11    -0.131168353714E+04   -0.38465E+00   -0.44687E+00  2624   0.388E+00    0.412E+00
DAV:  12    -0.131155361767E+04    0.12992E+00   -0.19618E+00  2568   0.310E+00    0.284E+00
DAV:  13    -0.131157296693E+04   -0.19349E-01   -0.84486E-01  2584   0.172E+00    0.180E+00
DAV:  14    -0.131156869523E+04    0.42717E-02   -0.18578E-01  2616   0.907E-01    0.119E+00
DAV:  15    -0.131157211585E+04   -0.34206E-02   -0.68373E-02  2584   0.489E-01    0.749E-01
DAV:  16    -0.131157251832E+04   -0.40247E-03   -0.24907E-02  2576   0.294E-01    0.454E-01
DAV:  17    -0.131157288171E+04   -0.36339E-03   -0.14770E-02  2456   0.234E-01    0.237E-01
DAV:  18    -0.131157296039E+04   -0.78682E-04   -0.40273E-03  2480   0.131E-01    0.124E-01
DAV:  19    -0.131157302680E+04   -0.66408E-04   -0.22455E-03  2552   0.926E-02    0.867E-02
DAV:  20    -0.131157305652E+04   -0.29719E-04   -0.51462E-04  2568   0.404E-02    0.373E-02
DAV:  21    -0.131157307761E+04   -0.21091E-04   -0.25859E-04  2552   0.303E-02    0.368E-02
DAV:  22    -0.131157309132E+04   -0.13709E-04   -0.62585E-05  2504   0.159E-02    0.131E-02
DAV:  23    -0.131157308712E+04    0.41923E-05   -0.36913E-05  2168   0.107E-02    0.111E-02
DAV:  24    -0.131157309452E+04   -0.73965E-05   -0.10999E-05  1456   0.822E-03    0.562E-03
DAV:  25    -0.131157309211E+04    0.24100E-05   -0.42364E-06  1032   0.573E-03    0.283E-03
DAV:  26    -0.131157309365E+04   -0.15392E-05   -0.34484E-06  1096   0.521E-03    0.182E-03
DAV:  27    -0.131157309470E+04   -0.10511E-05   -0.13295E-06   976   0.424E-03    0.166E-03
DAV:  28    -0.131157309332E+04    0.13794E-05   -0.59724E-07   936   0.327E-03    0.213E-03
DAV:  29    -0.131157309359E+04   -0.26697E-06   -0.37656E-07   920   0.265E-03
   1 F= -.13115731E+04 E0= -.13115720E+04  d E =-.131157E+04
 BRION: g(F)=  0.916E+02 g(S)=  0.000E+00
 bond charge predicted
       N       E                     dE             d eps       ncg     rms          rms(c)
DAV:   1    -0.125556647193E+04    0.56007E+02   -0.98573E+03  1704   0.147E+02    0.349E+01
DAV:   2    -0.133853053609E+04   -0.82964E+02   -0.94447E+02  2584   0.706E+01    0.182E+01
DAV:   3    -0.133464727106E+04    0.38833E+01   -0.51764E+01  2584   0.183E+01    0.117E+01
DAV:   4    -0.133141878744E+04    0.32285E+01   -0.22775E+01  2376   0.965E+00    0.551E+00
DAV:   5    -0.133132530708E+04    0.93480E-01   -0.61748E+00  2552   0.523E+00    0.399E+00
DAV:   6    -0.133117924586E+04    0.14606E+00   -0.34034E+00  2568   0.318E+00    0.212E+00
DAV:   7    -0.133113407602E+04    0.45170E-01   -0.45511E-01  2520   0.183E+00    0.148E+00
DAV:   8    -0.133112303845E+04    0.11038E-01   -0.72490E-01  2368   0.148E+00    0.813E-01
DAV:   9    -0.133112726111E+04   -0.42227E-02   -0.14790E-01  2400   0.798E-01    0.749E-01
DAV:  10    -0.133112368565E+04    0.35755E-02   -0.49179E-02  2544   0.377E-01    0.402E-01
DAV:  11    -0.133112269286E+04    0.99280E-03   -0.26632E-02  2600   0.290E-01    0.152E-01
DAV:  12    -0.133112323592E+04   -0.54307E-03   -0.56704E-03  2280   0.168E-01    0.101E-01
DAV:  13    -0.133112324092E+04   -0.49958E-05   -0.12436E-03  2616   0.680E-02    0.581E-02
DAV:  14    -0.133112324731E+04   -0.63940E-05   -0.62089E-04  2624   0.464E-02    0.271E-02
DAV:  15    -0.133112326022E+04   -0.12904E-04   -0.12432E-04  2568   0.271E-02    0.192E-02
DAV:  16    -0.133112326047E+04   -0.24894E-06   -0.47577E-05  2504   0.146E-02    0.178E-02
DAV:  17    -0.133112325887E+04    0.15920E-05   -0.36927E-05  2200   0.108E-02    0.814E-03
DAV:  18    -0.133112325911E+04   -0.23347E-06   -0.80268E-06  1648   0.641E-03
   2 F= -.13311233E+04 E0= -.13311233E+04  d E =-.195502E+02
 BRION: g(F)=  0.109E+03 g(S)=  0.000E+00 retain N=  1 mean eig= 0.47
 eig:   0.471
 bond charge predicted
       N       E                     dE             d eps       ncg     rms          rms(c)
DAV:   1    -0.130935386426E+04    0.21769E+02   -0.40015E+03  1424   0.864E+01    0.225E+01
DAV:   2    -0.135152006011E+04   -0.42166E+02   -0.52384E+02  2488   0.402E+01    0.186E+01
DAV:   3    -0.134801629492E+04    0.35038E+01   -0.35652E+01  2576   0.142E+01    0.141E+01
DAV:   4    -0.134536811034E+04    0.26482E+01   -0.27391E+01  2168   0.695E+00    0.624E+00
DAV:   5    -0.134577222290E+04   -0.40411E+00   -0.75432E+00  2424   0.431E+00    0.719E+00
DAV:   6    -0.134483977246E+04    0.93245E+00   -0.62487E+00  2456   0.408E+00    0.186E+00
DAV:   7    -0.134491741989E+04   -0.77647E-01   -0.16661E+00  2408   0.237E+00    0.136E+00
DAV:   8    -0.134491338272E+04    0.40372E-02   -0.27657E-01  2624   0.100E+00    0.925E-01
DAV:   9    -0.134490378395E+04    0.95988E-02   -0.95797E-02  2520   0.586E-01    0.406E-01
DAV:  10    -0.134490562289E+04   -0.18389E-02   -0.30456E-02  2528   0.337E-01    0.192E-01
DAV:  11    -0.134490559132E+04    0.31571E-04   -0.57576E-03  2624   0.167E-01    0.166E-01
DAV:  12    -0.134490540531E+04    0.18601E-03   -0.44232E-03  2496   0.112E-01    0.809E-02
DAV:  13    -0.134490542069E+04   -0.15379E-04   -0.83021E-04  2576   0.675E-02    0.562E-02
DAV:  14    -0.134490539971E+04    0.20980E-04   -0.48947E-04  2568   0.391E-02    0.281E-02
DAV:  15    -0.134490540369E+04   -0.39864E-05   -0.14386E-04  2512   0.254E-02    0.176E-02
DAV:  16    -0.134490540424E+04   -0.54543E-06   -0.44412E-05  2520   0.125E-02    0.814E-03
DAV:  17    -0.134490540408E+04    0.16118E-06   -0.58554E-06  1480   0.694E-03
   3 F= -.13449054E+04 E0= -.13449054E+04  d E =-.137821E+02
 BRION: g(F)=  0.123E+02 g(S)=  0.000E+00 retain N=  2 mean eig= 1.40
 eig:   0.316  2.486
 bond charge predicted
       N       E                     dE             d eps       ncg     rms          rms(c)
DAV:   1    -0.134592301892E+04   -0.10176E+01   -0.62329E+02  1376   0.331E+01    0.746E+00
DAV:   2    -0.134945287370E+04   -0.35299E+01   -0.39732E+01  2304   0.129E+01    0.347E+00
DAV:   3    -0.134946118698E+04   -0.83133E-02   -0.28547E+00  2592   0.344E+00    0.304E+00
DAV:   4    -0.134933199481E+04    0.12919E+00   -0.82620E-01  2520   0.170E+00    0.153E+00
DAV:   5    -0.134931649712E+04    0.15498E-01   -0.32453E-01  2464   0.109E+00    0.104E+00
DAV:   6    -0.134930734245E+04    0.91547E-02   -0.16458E-01  2528   0.786E-01    0.677E-01
DAV:   7    -0.134930534358E+04    0.19989E-02   -0.85064E-02  2520   0.485E-01    0.430E-01
DAV:   8    -0.134930433765E+04    0.10059E-02   -0.15481E-02  2616   0.244E-01    0.258E-01
DAV:   9    -0.134930382625E+04    0.51140E-03   -0.70210E-03  2552   0.145E-01    0.116E-01
DAV:  10    -0.134930399757E+04   -0.17132E-03   -0.29091E-03  2232   0.966E-02    0.104E-01
DAV:  11    -0.134930388133E+04    0.11624E-03   -0.69809E-04  2616   0.538E-02    0.532E-02
DAV:  12    -0.134930387653E+04    0.47959E-05   -0.56332E-04  2568   0.386E-02    0.288E-02
DAV:  13    -0.134930388047E+04   -0.39330E-05   -0.89769E-05  2352   0.207E-02    0.143E-02
DAV:  14    -0.134930388122E+04   -0.75450E-06   -0.45408E-05  2152   0.114E-02    0.983E-03
DAV:  15    -0.134930388118E+04    0.40964E-07   -0.90569E-06  1720   0.713E-03
   4 F= -.13493039E+04 E0= -.13493039E+04  d E =-.439848E+01
 BRION: g(F)=  0.455E+01 g(S)=  0.000E+00 retain N=  3 mean eig= 1.90
 eig:   4.819  0.445  0.445
 bond charge predicted
       N       E                     dE             d eps       ncg     rms          rms(c)
DAV:   1    -0.135039050519E+04   -0.10866E+01   -0.24221E+02  1368   0.210E+01    0.355E+00
DAV:   2    -0.135157402957E+04   -0.11835E+01   -0.12547E+01  2288   0.765E+00    0.178E+00
DAV:   3    -0.135158541449E+04   -0.11385E-01   -0.80971E-01  2608   0.160E+00    0.146E+00
DAV:   4    -0.135153915694E+04    0.46258E-01   -0.27597E-01  2448   0.994E-01    0.651E-01
DAV:   5    -0.135153836839E+04    0.78855E-03   -0.79834E-02  2480   0.572E-01    0.517E-01
DAV:   6    -0.135153665489E+04    0.17135E-02   -0.65499E-02  2456   0.423E-01    0.220E-01
DAV:   7    -0.135153658522E+04    0.69676E-04   -0.11669E-02  2376   0.223E-01    0.188E-01
DAV:   8    -0.135153640060E+04    0.18461E-03   -0.45974E-03  2448   0.108E-01    0.701E-02
DAV:   9    -0.135153646725E+04   -0.66651E-04   -0.17142E-03  2608   0.713E-02    0.602E-02
DAV:  10    -0.135153643040E+04    0.36854E-04   -0.44598E-04  2520   0.433E-02    0.335E-02
DAV:  11    -0.135153643970E+04   -0.93034E-05   -0.27760E-04  2560   0.279E-02    0.159E-02
DAV:  12    -0.135153643883E+04    0.87346E-06   -0.40557E-05  2480   0.132E-02    0.778E-03
DAV:  13    -0.135153643973E+04   -0.90091E-06   -0.13763E-05  1792   0.776E-03    0.495E-03
DAV:  14    -0.135153643983E+04   -0.10141E-06   -0.48692E-06  1248   0.564E-03
   5 F= -.13515364E+04 E0= -.13515364E+04  d E =-.223256E+01
 BRION: g(F)=  0.237E+01 g(S)=  0.000E+00 retain N=  4 mean eig= 1.59
 eig:   4.855  0.538  0.491  0.491
 bond charge predicted
       N       E                     dE             d eps       ncg     rms          rms(c)
DAV:   1    -0.135169324572E+04   -0.15681E+00   -0.38983E+02  1384   0.274E+01    0.387E+00
DAV:   2    -0.135369519268E+04   -0.20019E+01   -0.20987E+01  2288   0.100E+01    0.207E+00
DAV:   3    -0.135375441671E+04   -0.59224E-01   -0.14468E+00  2616   0.214E+00    0.171E+00
DAV:   4    -0.135370322848E+04    0.51188E-01   -0.28505E-01  2528   0.108E+00    0.890E-01
DAV:   5    -0.135369109515E+04    0.12133E-01   -0.97881E-02  2496   0.613E-01    0.466E-01
DAV:   6    -0.135369157148E+04   -0.47633E-03   -0.40711E-02  2584   0.374E-01    0.275E-01
DAV:   7    -0.135369119556E+04    0.37592E-03   -0.14374E-02  2472   0.237E-01    0.164E-01
DAV:   8    -0.135369143712E+04   -0.24156E-03   -0.57522E-03  2544   0.129E-01    0.102E-01
DAV:   9    -0.135369134175E+04    0.95364E-04   -0.10302E-03  2600   0.685E-02    0.655E-02
DAV:  10    -0.135369136346E+04   -0.21708E-04   -0.98321E-04  2392   0.526E-02    0.403E-02
DAV:  11    -0.135369135210E+04    0.11366E-04   -0.27809E-04  2544   0.356E-02    0.153E-02
DAV:  12    -0.135369135903E+04   -0.69338E-05   -0.97766E-05  2520   0.193E-02    0.123E-02
DAV:  13    -0.135369135874E+04    0.28595E-06   -0.24080E-05  2416   0.100E-02    0.689E-03
DAV:  14    -0.135369135882E+04   -0.78377E-07   -0.64787E-06  1384   0.608E-03
   6 F= -.13536914E+04 E0= -.13536914E+04  d E =-.215492E+01
 BRION: g(F)=  0.119E+01 g(S)=  0.000E+00 retain N=  5 mean eig= 1.48
 eig:   4.739  0.915  0.915  0.265  0.560
 bond charge predicted
       N       E                     dE             d eps       ncg     rms          rms(c)
DAV:   1    -0.135406438998E+04   -0.37303E+00   -0.11864E+02  1368   0.154E+01    0.220E+00
DAV:   2    -0.135464897233E+04   -0.58458E+00   -0.61829E+00  2288   0.580E+00    0.113E+00
DAV:   3    -0.135467168095E+04   -0.22709E-01   -0.46181E-01  2608   0.117E+00    0.907E-01
DAV:   4    -0.135465705027E+04    0.14631E-01   -0.79204E-02  2520   0.593E-01    0.469E-01
DAV:   5    -0.135465453024E+04    0.25200E-02   -0.29375E-02  2480   0.348E-01    0.245E-01
DAV:   6    -0.135465493810E+04   -0.40786E-03   -0.13618E-02  2584   0.219E-01    0.148E-01
DAV:   7    -0.135465481735E+04    0.12075E-03   -0.42781E-03  2280   0.131E-01    0.100E-01
DAV:   8    -0.135465487949E+04   -0.62145E-04   -0.18351E-03  2400   0.725E-02    0.608E-02
DAV:   9    -0.135465484078E+04    0.38716E-04   -0.35980E-04  2608   0.427E-02    0.386E-02
DAV:  10    -0.135465486036E+04   -0.19587E-04   -0.49904E-04  2488   0.360E-02    0.345E-02
DAV:  11    -0.135465484341E+04    0.16955E-04   -0.16606E-04  2480   0.261E-02    0.107E-02
DAV:  12    -0.135465484701E+04   -0.35999E-05   -0.49222E-05  2256   0.142E-02    0.834E-03
DAV:  13    -0.135465484643E+04    0.57634E-06   -0.66579E-06  1440   0.658E-03
   7 F= -.13546548E+04 E0= -.13546548E+04  d E =-.963488E+00
 BRION: g(F)=  0.864E+00 g(S)=  0.000E+00 retain N=  6 mean eig= 1.75
 eig:   4.808  2.119  2.119  0.263  0.609  0.609
 bond charge predicted
       N       E                     dE             d eps       ncg     rms          rms(c)
DAV:   1    -0.135503121873E+04   -0.37637E+00   -0.57071E+01  1376   0.107E+01    0.146E+00
DAV:   2    -0.135531655798E+04   -0.28534E+00   -0.30211E+00  2288   0.405E+00    0.756E-01
DAV:   3    -0.135532935785E+04   -0.12800E-01   -0.23123E-01  2624   0.816E-01    0.609E-01
DAV:   4    -0.135532283011E+04    0.65277E-02   -0.37013E-02  2544   0.414E-01    0.320E-01
DAV:   5    -0.135532172041E+04    0.11097E-02   -0.13152E-02  2464   0.235E-01    0.164E-01
DAV:   6    -0.135532192425E+04   -0.20384E-03   -0.62593E-03  2592   0.148E-01    0.932E-02
DAV:   7    -0.135532190844E+04    0.15808E-04   -0.16629E-03  2272   0.851E-02    0.656E-02
DAV:   8    -0.135532192714E+04   -0.18700E-04   -0.67930E-04  2360   0.446E-02    0.377E-02
DAV:   9    -0.135532191753E+04    0.96147E-05   -0.14128E-04  2560   0.269E-02    0.243E-02
DAV:  10    -0.135532192281E+04   -0.52829E-05   -0.16028E-04  2520   0.217E-02    0.201E-02
DAV:  11    -0.135532191908E+04    0.37248E-05   -0.52575E-05  2312   0.150E-02    0.729E-03
DAV:  12    -0.135532191988E+04   -0.79469E-06   -0.13732E-05  1808   0.848E-03    0.490E-03
DAV:  13    -0.135532191968E+04    0.19591E-06   -0.16797E-06  1008   0.499E-03
   8 F= -.13553219E+04 E0= -.13553219E+04  d E =-.667073E+00
 BRION: g(F)=  0.564E+00 g(S)=  0.000E+00 retain N=  7 mean eig= 1.82
 eig:   4.075  3.358  3.358  0.262  0.532  0.532  0.658
 bond charge predicted
       N       E                     dE             d eps       ncg     rms          rms(c)
DAV:   1    -0.135558555872E+04   -0.26364E+00   -0.11581E+02  1368   0.155E+01    0.189E+00
DAV:   2    -0.135616972067E+04   -0.58416E+00   -0.61484E+00  2296   0.591E+00    0.952E-01
DAV:   3    -0.135620314869E+04   -0.33428E-01   -0.48165E-01  2616   0.118E+00    0.762E-01
DAV:   4    -0.135619477545E+04    0.83732E-02   -0.51550E-02  2616   0.532E-01    0.494E-01
DAV:   5    -0.135618995250E+04    0.48229E-02   -0.23770E-02  2416   0.314E-01    0.191E-01
DAV:   6    -0.135619075700E+04   -0.80450E-03   -0.12707E-02  2488   0.214E-01    0.152E-01
DAV:   7    -0.135619070047E+04    0.56533E-04   -0.49019E-03  2472   0.135E-01    0.105E-01
DAV:   8    -0.135619069871E+04    0.17631E-05   -0.20966E-03  2592   0.852E-02    0.603E-02
DAV:   9    -0.135619068022E+04    0.18486E-04   -0.35715E-04  2560   0.430E-02    0.454E-02
DAV:  10    -0.135619068093E+04   -0.71133E-06   -0.28331E-04  2576   0.294E-02    0.255E-02
DAV:  11    -0.135619067985E+04    0.10847E-05   -0.92285E-05  2480   0.208E-02    0.115E-02
DAV:  12    -0.135619068120E+04   -0.13517E-05   -0.30480E-05  2328   0.125E-02    0.103E-02
DAV:  13    -0.135619068054E+04    0.65696E-06   -0.15287E-05  1848   0.739E-03    0.551E-03
DAV:  14    -0.135619068028E+04    0.26487E-06   -0.27342E-06  1072   0.542E-03
   9 F= -.13561907E+04 E0= -.13561907E+04  d E =-.868761E+00
 BRION: g(F)=  0.406E+00 g(S)=  0.000E+00 retain N=  8 mean eig= 2.52
 eig:   5.598  5.598  4.046  1.538  1.538  0.224  0.813  0.813
 bond charge predicted
       N       E                     dE             d eps       ncg     rms          rms(c)
DAV:   1    -0.135641980186E+04   -0.22912E+00   -0.10772E+02  1384   0.148E+01    0.177E+00
DAV:   2    -0.135697263588E+04   -0.55283E+00   -0.58428E+00  2288   0.578E+00    0.890E-01
DAV:   3    -0.135700548310E+04   -0.32847E-01   -0.46456E-01  2608   0.114E+00    0.729E-01
DAV:   4    -0.135699851070E+04    0.69724E-02   -0.45714E-02  2608   0.508E-01    0.499E-01
DAV:   5    -0.135699271888E+04    0.57918E-02   -0.22646E-02  2360   0.299E-01    0.193E-01
DAV:   6    -0.135699336394E+04   -0.64505E-03   -0.13501E-02  2480   0.213E-01    0.153E-01
DAV:   7    -0.135699332736E+04    0.36580E-04   -0.53089E-03  2464   0.139E-01    0.106E-01
DAV:   8    -0.135699331634E+04    0.11012E-04   -0.20743E-03  2600   0.870E-02    0.612E-02
DAV:   9    -0.135699329941E+04    0.16937E-04   -0.39376E-04  2536   0.431E-02    0.448E-02
DAV:  10    -0.135699330159E+04   -0.21872E-05   -0.19083E-04  2536   0.253E-02    0.236E-02
DAV:  11    -0.135699330433E+04   -0.27409E-05   -0.70600E-05  2464   0.183E-02    0.134E-02
DAV:  12    -0.135699330384E+04    0.49225E-06   -0.29702E-05  2328   0.128E-02    0.110E-02
DAV:  13    -0.135699330357E+04    0.27691E-06   -0.23330E-05  2120   0.845E-03    0.620E-03
DAV:  14    -0.135699330318E+04    0.38417E-06   -0.28487E-06  1136   0.528E-03
  10 F= -.13569933E+04 E0= -.13569933E+04  d E =-.802623E+00
 BRION: g(F)=  0.338E+00 g(S)=  0.000E+00 retain N=  9 mean eig= 2.73
 eig:   6.521  6.521  4.127  2.474  2.474  0.053  0.780  0.780  0.831
 bond charge predicted
       N       E                     dE             d eps       ncg     rms          rms(c)
DAV:   1    -0.135723099511E+04   -0.23769E+00   -0.72485E+01  1384   0.122E+01    0.146E+00
DAV:   2    -0.135760688127E+04   -0.37589E+00   -0.39897E+00  2296   0.478E+00    0.742E-01
DAV:   3    -0.135762895725E+04   -0.22076E-01   -0.31791E-01  2600   0.941E-01    0.607E-01
DAV:   4    -0.135762404597E+04    0.49113E-02   -0.32235E-02  2608   0.427E-01    0.419E-01
DAV:   5    -0.135761993254E+04    0.41134E-02   -0.16104E-02  2336   0.251E-01    0.161E-01
DAV:   6    -0.135762037476E+04   -0.44221E-03   -0.94435E-03  2464   0.178E-01    0.128E-01
DAV:   7    -0.135762034826E+04    0.26497E-04   -0.37988E-03  2456   0.118E-01    0.878E-02
DAV:   8    -0.135762033831E+04    0.99508E-05   -0.14197E-03  2576   0.727E-02    0.526E-02
DAV:   9    -0.135762032748E+04    0.10830E-04   -0.27299E-04  2536   0.358E-02    0.379E-02
DAV:  10    -0.135762032942E+04   -0.19414E-05   -0.13092E-04  2552   0.209E-02    0.196E-02
DAV:  11    -0.135762033188E+04   -0.24596E-05   -0.44932E-05  2472   0.151E-02    0.115E-02
DAV:  12    -0.135762033135E+04    0.52797E-06   -0.21811E-05  2296   0.108E-02    0.886E-03
DAV:  13    -0.135762033127E+04    0.80778E-07   -0.15328E-05  1920   0.718E-03    0.511E-03
DAV:  14    -0.135762033099E+04    0.28071E-06   -0.16243E-06   968   0.476E-03
  11 F= -.13576203E+04 E0= -.13576203E+04  d E =-.627028E+00
 BRION: g(F)=  0.292E+00 g(S)=  0.000E+00 retain N=  8 mean eig= 2.52
 eig:   5.667  5.667  2.319  2.319  1.201  1.201  0.912  0.912
 bond charge predicted
       N       E                     dE             d eps       ncg     rms          rms(c)
DAV:   1    -0.135782811606E+04   -0.20778E+00   -0.70564E+01  1376   0.121E+01    0.144E+00
DAV:   2    -0.135819574687E+04   -0.36763E+00   -0.39105E+00  2304   0.473E+00    0.731E-01
DAV:   3    -0.135821695282E+04   -0.21206E-01   -0.31117E-01  2608   0.935E-01    0.592E-01
DAV:   4    -0.135821193527E+04    0.50176E-02   -0.31101E-02  2608   0.422E-01    0.411E-01
DAV:   5    -0.135820751129E+04    0.44240E-02   -0.16036E-02  2320   0.254E-01    0.157E-01
DAV:   6    -0.135820795478E+04   -0.44349E-03   -0.99975E-03  2432   0.183E-01    0.126E-01
DAV:   7    -0.135820793631E+04    0.18469E-04   -0.36658E-03  2424   0.114E-01    0.873E-02
DAV:   8    -0.135820793497E+04    0.13412E-05   -0.14449E-03  2592   0.715E-02    0.502E-02
DAV:   9    -0.135820792342E+04    0.11544E-04   -0.25922E-04  2504   0.362E-02    0.371E-02
DAV:  10    -0.135820792541E+04   -0.19853E-05   -0.13501E-04  2512   0.214E-02    0.191E-02
DAV:  11    -0.135820792690E+04   -0.14882E-05   -0.48267E-05  2480   0.155E-02    0.102E-02
DAV:  12    -0.135820792725E+04   -0.35181E-06   -0.21050E-05  2320   0.105E-02    0.925E-03
DAV:  13    -0.135820792668E+04    0.56614E-06   -0.12757E-05  1800   0.682E-03    0.499E-03
DAV:  14    -0.135820792642E+04    0.25885E-06   -0.23070E-06  1056   0.510E-03
  12 F= -.13582079E+04 E0= -.13582079E+04  d E =-.587595E+00
 BRION: g(F)=  0.248E+00 g(S)=  0.000E+00 retain N=  7 mean eig= 3.55
 eig:   7.759  7.759  3.070  3.070  1.115  1.115  0.951
 bond charge predicted
       N       E                     dE             d eps       ncg     rms          rms(c)
DAV:   1    -0.135835409056E+04   -0.14616E+00   -0.77857E+01  1384   0.127E+01    0.151E+00
DAV:   2    -0.135876313310E+04   -0.40904E+00   -0.43614E+00  2304   0.500E+00    0.771E-01
DAV:   3    -0.135878770903E+04   -0.24576E-01   -0.35634E-01  2592   0.997E-01    0.630E-01
DAV:   4    -0.135878238714E+04    0.53219E-02   -0.34676E-02  2592   0.447E-01    0.448E-01
DAV:   5    -0.135877712259E+04    0.52645E-02   -0.18243E-02  2304   0.264E-01    0.176E-01
DAV:   6    -0.135877746196E+04   -0.33936E-03   -0.11702E-02  2400   0.196E-01    0.135E-01
DAV:   7    -0.135877745507E+04    0.68848E-05   -0.48282E-03  2392   0.129E-01    0.942E-02
DAV:   8    -0.135877745988E+04   -0.48087E-05   -0.17882E-03  2584   0.803E-02    0.584E-02
DAV:   9    -0.135877744198E+04    0.17898E-04   -0.34483E-04  2536   0.406E-02    0.408E-02
DAV:  10    -0.135877744490E+04   -0.29119E-05   -0.16229E-04  2576   0.232E-02    0.210E-02
DAV:  11    -0.135877744807E+04   -0.31779E-05   -0.52326E-05  2544   0.159E-02    0.124E-02
DAV:  12    -0.135877744768E+04    0.39188E-06   -0.25069E-05  2336   0.114E-02    0.102E-02
DAV:  13    -0.135877744717E+04    0.51210E-06   -0.17835E-05  2000   0.775E-03    0.559E-03
DAV:  14    -0.135877744686E+04    0.30773E-06   -0.28541E-06  1104   0.529E-03
  13 F= -.13587774E+04 E0= -.13587774E+04  d E =-.569520E+00
 BRION: g(F)=  0.194E+00 g(S)=  0.000E+00 retain N=  3 mean eig= 3.36
 eig:   4.435  4.435  1.214
 bond charge predicted
       N       E                     dE             d eps       ncg     rms          rms(c)
DAV:   1    -0.135893471300E+04   -0.15727E+00   -0.53777E+01  1384   0.105E+01    0.126E+00
DAV:   2    -0.135921693300E+04   -0.28222E+00   -0.30117E+00  2296   0.411E+00    0.637E-01
DAV:   3    -0.135923416503E+04   -0.17232E-01   -0.24870E-01  2576   0.824E-01    0.515E-01
DAV:   4    -0.135923046591E+04    0.36991E-02   -0.24685E-02  2592   0.373E-01    0.362E-01
DAV:   5    -0.135922716595E+04    0.33000E-02   -0.12552E-02  2320   0.220E-01    0.141E-01
DAV:   6    -0.135922742520E+04   -0.25926E-03   -0.75341E-03  2416   0.160E-01    0.110E-01
DAV:   7    -0.135922742615E+04   -0.94403E-06   -0.32224E-03  2416   0.106E-01    0.755E-02
DAV:   8    -0.135922743178E+04   -0.56366E-05   -0.11255E-03  2608   0.637E-02    0.470E-02
DAV:   9    -0.135922742016E+04    0.11624E-04   -0.22655E-04  2552   0.327E-02    0.333E-02
DAV:  10    -0.135922742185E+04   -0.16908E-05   -0.12005E-04  2560   0.198E-02    0.178E-02
DAV:  11    -0.135922742381E+04   -0.19590E-05   -0.44207E-05  2496   0.145E-02    0.106E-02
DAV:  12    -0.135922742343E+04    0.38347E-06   -0.18994E-05  2224   0.103E-02    0.868E-03
DAV:  13    -0.135922742310E+04    0.32844E-06   -0.13499E-05  1840   0.681E-03    0.479E-03
DAV:  14    -0.135922742283E+04    0.26793E-06   -0.23051E-06  1056   0.488E-03
  14 F= -.13592274E+04 E0= -.13592274E+04  d E =-.449976E+00
 BRION: g(F)=  0.170E+00 g(S)=  0.000E+00 retain N=  4 mean eig= 4.47
 eig:   7.371  7.371  1.572  1.572
 bond charge predicted
       N       E                     dE             d eps       ncg     rms          rms(c)
DAV:   1    -0.135937114113E+04   -0.14372E+00   -0.22452E+01  1376   0.685E+00    0.823E-01
DAV:   2    -0.135948904023E+04   -0.11790E+00   -0.12594E+00  2296   0.268E+00    0.417E-01
DAV:   3    -0.135949658922E+04   -0.75490E-02   -0.10633E-01  2592   0.552E-01    0.343E-01
DAV:   4    -0.135949511131E+04    0.14779E-02   -0.10077E-02  2600   0.243E-01    0.247E-01
DAV:   5    -0.135949356281E+04    0.15485E-02   -0.59300E-03  2312   0.150E-01    0.978E-02
DAV:   6    -0.135949369590E+04   -0.13309E-03   -0.37221E-03  2432   0.115E-01    0.846E-02
DAV:   7    -0.135949367050E+04    0.25400E-04   -0.17308E-03  2400   0.760E-02    0.561E-02
DAV:   8    -0.135949366802E+04    0.24879E-05   -0.61394E-04  2584   0.474E-02    0.329E-02
DAV:   9    -0.135949366239E+04    0.56305E-05   -0.10393E-04  2528   0.227E-02    0.231E-02
DAV:  10    -0.135949366254E+04   -0.15629E-06   -0.55484E-05  2536   0.135E-02    0.113E-02
DAV:  11    -0.135949366351E+04   -0.96507E-06   -0.17366E-05  2144   0.964E-03    0.612E-03
DAV:  12    -0.135949366343E+04    0.77285E-07   -0.65356E-06  1616   0.641E-03
  15 F= -.13594937E+04 E0= -.13594937E+04  d E =-.266241E+00
 BRION: g(F)=  0.156E+00 g(S)=  0.000E+00 retain N=  4 mean eig= 4.18
 eig:   7.067  7.067  1.292  1.292
 bond charge predicted
       N       E                     dE             d eps       ncg     rms          rms(c)
DAV:   1    -0.135963648872E+04   -0.14283E+00   -0.28157E+01  1376   0.761E+00    0.899E-01
DAV:   2    -0.135978477923E+04   -0.14829E+00   -0.15768E+00  2288   0.297E+00    0.459E-01
DAV:   3    -0.135979413449E+04   -0.93553E-02   -0.13142E-01  2576   0.605E-01    0.374E-01
DAV:   4    -0.135979236545E+04    0.17690E-02   -0.12272E-02  2600   0.267E-01    0.272E-01
DAV:   5    -0.135979040582E+04    0.19596E-02   -0.65572E-03  2328   0.162E-01    0.109E-01
DAV:   6    -0.135979050387E+04   -0.98053E-04   -0.45093E-03  2392   0.123E-01    0.825E-02
DAV:   7    -0.135979051203E+04   -0.81581E-05   -0.18105E-03  2448   0.789E-02    0.597E-02
DAV:   8    -0.135979050306E+04    0.89696E-05   -0.62061E-04  2608   0.480E-02    0.341E-02
DAV:   9    -0.135979049618E+04    0.68801E-05   -0.14117E-04  2480   0.246E-02    0.228E-02
DAV:  10    -0.135979049807E+04   -0.18967E-05   -0.55306E-05  2504   0.143E-02    0.131E-02
DAV:  11    -0.135979049869E+04   -0.62070E-06   -0.22225E-05  2224   0.102E-02    0.766E-03
DAV:  12    -0.135979049852E+04    0.17961E-06   -0.88677E-06  1784   0.723E-03
  16 F= -.13597905E+04 E0= -.13597905E+04  d E =-.296835E+00
 BRION: g(F)=  0.144E+00 g(S)=  0.000E+00 retain N=  4 mean eig= 3.57
 eig:   5.661  5.661  1.486  1.486
 bond charge predicted
       N       E                     dE             d eps       ncg     rms          rms(c)
DAV:   1    -0.135991056263E+04   -0.12006E+00   -0.34024E+01  1384   0.837E+00    0.995E-01
DAV:   2    -0.136008998695E+04   -0.17942E+00   -0.19110E+00  2288   0.326E+00    0.508E-01
DAV:   3    -0.136010149256E+04   -0.11506E-01   -0.16150E-01  2584   0.677E-01    0.414E-01
DAV:   4    -0.136009940545E+04    0.20871E-02   -0.15486E-02  2608   0.298E-01    0.301E-01
DAV:   5    -0.136009720616E+04    0.21993E-02   -0.74029E-03  2360   0.173E-01    0.129E-01
DAV:   6    -0.136009720323E+04    0.29272E-05   -0.51891E-03  2320   0.136E-01    0.846E-02
DAV:   7    -0.136009725551E+04   -0.52275E-04   -0.24427E-03  2480   0.908E-02    0.691E-02
DAV:   8    -0.136009723894E+04    0.16572E-04   -0.75919E-04  2592   0.540E-02    0.429E-02
DAV:   9    -0.136009722731E+04    0.11621E-04   -0.22263E-04  2544   0.292E-02    0.256E-02
DAV:  10    -0.136009723032E+04   -0.30056E-05   -0.73292E-05  2568   0.168E-02    0.160E-02
DAV:  11    -0.136009723118E+04   -0.86121E-06   -0.25712E-05  2320   0.112E-02    0.102E-02
DAV:  12    -0.136009723045E+04    0.73218E-06   -0.18235E-05  2048   0.915E-03    0.796E-03
DAV:  13    -0.136009723011E+04    0.33606E-06   -0.98845E-06  1760   0.652E-03
  17 F= -.13600972E+04 E0= -.13600972E+04  d E =-.306732E+00
 BRION: g(F)=  0.128E+00 g(S)=  0.000E+00 retain N=  4 mean eig= 4.67
 eig:   7.921  7.921  1.416  1.416
 bond charge predicted
       N       E                     dE             d eps       ncg     rms          rms(c)
DAV:   1    -0.136020018353E+04   -0.10295E+00   -0.27002E+01  1376   0.742E+00    0.869E-01
DAV:   2    -0.136034120444E+04   -0.14102E+00   -0.14905E+00  2280   0.290E+00    0.442E-01
DAV:   3    -0.136034995503E+04   -0.87506E-02   -0.12253E-01  2584   0.587E-01    0.359E-01
DAV:   4    -0.136034835787E+04    0.15972E-02   -0.11254E-02  2592   0.254E-01    0.267E-01
DAV:   5    -0.136034637806E+04    0.19798E-02   -0.56481E-03  2312   0.157E-01    0.116E-01
DAV:   6    -0.136034636132E+04    0.16740E-04   -0.47666E-03  2312   0.129E-01    0.774E-02
DAV:   7    -0.136034641709E+04   -0.55770E-04   -0.21604E-03  2464   0.839E-02    0.670E-02
DAV:   8    -0.136034639491E+04    0.22177E-04   -0.60325E-04  2584   0.490E-02    0.406E-02
DAV:   9    -0.136034637905E+04    0.15859E-04   -0.22608E-04  2496   0.280E-02    0.219E-02
DAV:  10    -0.136034638372E+04   -0.46667E-05   -0.72337E-05  2520   0.170E-02    0.156E-02
DAV:  11    -0.136034638318E+04    0.54098E-06   -0.21717E-05  2232   0.105E-02    0.960E-03
DAV:  12    -0.136034638318E+04   -0.81927E-08   -0.17065E-05  1984   0.832E-03    0.871E-03
DAV:  13    -0.136034638245E+04    0.73476E-06   -0.88127E-06  1728   0.624E-03
  18 F= -.13603464E+04 E0= -.13603464E+04  d E =-.249152E+00
 BRION: g(F)=  0.112E+00 g(S)=  0.000E+00 retain N=  4 mean eig= 3.84
 eig:   6.519  6.519  1.152  1.152
 bond charge predicted
       N       E                     dE             d eps       ncg     rms          rms(c)
DAV:   1    -0.136043281923E+04   -0.86436E-01   -0.30786E+01  1392   0.796E+00    0.932E-01
DAV:   2    -0.136059511072E+04   -0.16229E+00   -0.17266E+00  2296   0.314E+00    0.484E-01
DAV:   3    -0.136060534453E+04   -0.10234E-01   -0.14495E-01  2560   0.638E-01    0.397E-01
DAV:   4    -0.136060357780E+04    0.17667E-02   -0.14613E-02  2608   0.285E-01    0.292E-01
DAV:   5    -0.136060159386E+04    0.19839E-02   -0.63139E-03  2400   0.161E-01    0.137E-01
DAV:   6    -0.136060138898E+04    0.20488E-03   -0.48423E-03  2208   0.136E-01    0.780E-02
DAV:   7    -0.136060152296E+04   -0.13398E-03   -0.29406E-03  2480   0.948E-02    0.808E-02
DAV:   8    -0.136060148595E+04    0.37009E-04   -0.65296E-04  2592   0.545E-02    0.572E-02
DAV:   9    -0.136060144866E+04    0.37294E-04   -0.36900E-04  2440   0.337E-02    0.260E-02
DAV:  10    -0.136060145813E+04   -0.94674E-05   -0.13018E-04  2400   0.220E-02    0.181E-02
DAV:  11    -0.136060146019E+04   -0.20662E-05   -0.26294E-05  2136   0.108E-02    0.143E-02
DAV:  12    -0.136060145661E+04    0.35811E-05   -0.36770E-05  2072   0.118E-02    0.921E-03
DAV:  13    -0.136060145686E+04   -0.24270E-06   -0.19387E-05  2112   0.862E-03    0.777E-03
DAV:  14    -0.136060145597E+04    0.88885E-06   -0.32018E-06  1120   0.519E-03
  19 F= -.13606015E+04 E0= -.13606015E+04  d E =-.255074E+00
 BRION: g(F)=  0.936E-01 g(S)=  0.000E+00 retain N=  3 mean eig= 3.70
 eig:   4.944  4.944  1.214
 bond charge predicted
       N       E                     dE             d eps       ncg     rms          rms(c)
DAV:   1    -0.136061007092E+04   -0.86141E-02   -0.51397E+01  1392   0.102E+01    0.119E+00
DAV:   2    -0.136088036174E+04   -0.27029E+00   -0.28574E+00  2280   0.406E+00    0.614E-01
DAV:   3    -0.136089697937E+04   -0.16618E-01   -0.23546E-01  2560   0.813E-01    0.495E-01
DAV:   4    -0.136089411659E+04    0.28628E-02   -0.23273E-02  2592   0.359E-01    0.367E-01
DAV:   5    -0.136089078962E+04    0.33270E-02   -0.95602E-03  2424   0.205E-01    0.179E-01
DAV:   6    -0.136089031500E+04    0.47463E-03   -0.82863E-03  2216   0.180E-01    0.925E-02
DAV:   7    -0.136089059058E+04   -0.27558E-03   -0.51017E-03  2448   0.123E-01    0.103E-01
DAV:   8    -0.136089054438E+04    0.46190E-04   -0.99353E-04  2584   0.681E-02    0.780E-02
DAV:   9    -0.136089046171E+04    0.82677E-04   -0.61443E-04  2408   0.444E-02    0.347E-02
DAV:  10    -0.136089048133E+04   -0.19625E-04   -0.29814E-04  2376   0.311E-02    0.230E-02
DAV:  11    -0.136089048572E+04   -0.43839E-05   -0.59465E-05  2136   0.159E-02    0.186E-02
DAV:  12    -0.136089047914E+04    0.65768E-05   -0.71464E-05  2200   0.168E-02    0.133E-02
DAV:  13    -0.136089047885E+04    0.28750E-06   -0.38073E-05  2280   0.120E-02    0.111E-02
DAV:  14    -0.136089047770E+04    0.11495E-05   -0.11034E-05  1824   0.666E-03    0.436E-03
DAV:  15    -0.136089047757E+04    0.12990E-06   -0.15136E-06  1016   0.402E-03
  20 F= -.13608905E+04 E0= -.13608905E+04  d E =-.289022E+00
 BRION: g(F)=  0.753E-01 g(S)=  0.000E+00 retain N=  3 mean eig= 5.27
 eig:   7.190  7.190  1.428
