 running on  160 total cores
 distrk:  each k-point on  160 cores,    1 groups
 distr:  one band on   20 cores,    8 groups
 using from now: INCAR     
 vasp.5.4.4.18Apr17-6-g9f103f2a35 (build May 01 2020 14:22:42) gamma-only       
  
 POSCAR found type information on POSCAR  O  La Zr Li Al
 POSCAR found :  5 types and     186 ions
 scaLAPACK will be used
 LDA part: xc-table for Pade appr. of Perdew
 POSCAR, INCAR and KPOINTS ok, starting setup
 FFT: planning ...
 WAVECAR not read
 WARNING: random wavefunctions but no delay for mixing, default for NELMDL
 entering main loop
       N       E                     dE             d eps       ncg     rms          rms(c)
DAV:   1     0.253096248377E+05    0.25310E+05   -0.42366E+05  1600   0.253E+03
DAV:   2     0.954440321827E+04   -0.15765E+05   -0.14486E+05  1416   0.710E+02
DAV:   3     0.275210181767E+04   -0.67923E+04   -0.61980E+04  1528   0.358E+02
DAV:   4    -0.322292924416E+03   -0.30744E+04   -0.28671E+04  2024   0.225E+02
DAV:   5    -0.138117713939E+04   -0.10589E+04   -0.10154E+04  2536   0.143E+02    0.116E+02
DAV:   6    -0.129597278864E+04    0.85204E+02   -0.15803E+03  2432   0.668E+01    0.506E+01
DAV:   7    -0.131823107902E+04   -0.22258E+02   -0.42776E+02  2560   0.350E+01    0.270E+01
DAV:   8    -0.132059064420E+04   -0.23596E+01   -0.22863E+02  2528   0.266E+01    0.221E+01
DAV:   9    -0.131851303942E+04    0.20776E+01   -0.34697E+01  2552   0.132E+01    0.773E+00
DAV:  10    -0.131889572220E+04   -0.38268E+00   -0.13447E+01  2616   0.683E+00    0.610E+00
DAV:  11    -0.131925724464E+04   -0.36152E+00   -0.46872E+00  2616   0.386E+00    0.398E+00
DAV:  12    -0.131922031487E+04    0.36930E-01   -0.17317E+00  2584   0.298E+00    0.270E+00
DAV:  13    -0.131916970484E+04    0.50610E-01   -0.12226E+00  2520   0.187E+00    0.179E+00
DAV:  14    -0.131917148352E+04   -0.17787E-02   -0.17893E-01  2608   0.988E-01    0.110E+00
DAV:  15    -0.131916875974E+04    0.27238E-02   -0.63994E-02  2600   0.426E-01    0.528E-01
DAV:  16    -0.131916793897E+04    0.82077E-03   -0.32485E-02  2600   0.299E-01    0.310E-01
DAV:  17    -0.131916841599E+04   -0.47701E-03   -0.97083E-03  2584   0.185E-01    0.130E-01
DAV:  18    -0.131916852538E+04   -0.10939E-03   -0.31934E-03  2592   0.979E-02    0.110E-01
DAV:  19    -0.131916857995E+04   -0.54569E-04   -0.16200E-03  2504   0.699E-02    0.549E-02
DAV:  20    -0.131916861717E+04   -0.37227E-04   -0.49532E-04  2584   0.372E-02    0.223E-02
DAV:  21    -0.131916863376E+04   -0.16584E-04   -0.20545E-04  2584   0.250E-02    0.204E-02
DAV:  22    -0.131916864477E+04   -0.11013E-04   -0.80885E-05  2280   0.142E-02    0.918E-03
DAV:  23    -0.131916864613E+04   -0.13629E-05   -0.27153E-05  1248   0.923E-03    0.735E-03
DAV:  24    -0.131916865074E+04   -0.46015E-05   -0.18388E-05  1680   0.796E-03    0.247E-03
DAV:  25    -0.131916865022E+04    0.51220E-06   -0.49404E-06  1040   0.535E-03
   1 F= -.13191687E+04 E0= -.13191545E+04  d E =-.131917E+04
 BRION: g(F)=  0.728E+02 g(S)=  0.000E+00
 bond charge predicted
       N       E                     dE             d eps       ncg     rms          rms(c)
DAV:   1    -0.128139016278E+04    0.37778E+02   -0.78576E+03  1752   0.136E+02    0.276E+01
DAV:   2    -0.134401018408E+04   -0.62620E+02   -0.70581E+02  2576   0.624E+01    0.159E+01
DAV:   3    -0.134178750137E+04    0.22227E+01   -0.40159E+01  2616   0.162E+01    0.107E+01
DAV:   4    -0.133951882730E+04    0.22687E+01   -0.16964E+01  2368   0.814E+00    0.496E+00
DAV:   5    -0.133944523986E+04    0.73587E-01   -0.45563E+00  2560   0.462E+00    0.350E+00
DAV:   6    -0.133936309843E+04    0.82141E-01   -0.31330E+00  2584   0.312E+00    0.187E+00
DAV:   7    -0.133934874073E+04    0.14358E-01   -0.45799E-01  2552   0.172E+00    0.135E+00
DAV:   8    -0.133934084776E+04    0.78930E-02   -0.50030E-01  2496   0.120E+00    0.732E-01
DAV:   9    -0.133934179045E+04   -0.94269E-03   -0.75012E-02  2536   0.624E-01    0.584E-01
DAV:  10    -0.133933864513E+04    0.31453E-02   -0.37619E-02  2544   0.354E-01    0.250E-01
DAV:  11    -0.133933962967E+04   -0.98453E-03   -0.22459E-02  2568   0.255E-01    0.180E-01
DAV:  12    -0.133933945019E+04    0.17947E-03   -0.38090E-03  2488   0.137E-01    0.959E-02
DAV:  13    -0.133933944292E+04    0.72723E-05   -0.21849E-03  2560   0.784E-02    0.299E-02
DAV:  14    -0.133933946332E+04   -0.20403E-04   -0.29119E-04  2624   0.383E-02    0.150E-02
DAV:  15    -0.133933947261E+04   -0.92871E-05   -0.75626E-05  2624   0.187E-02    0.717E-03
DAV:  16    -0.133933947418E+04   -0.15662E-05   -0.22112E-05  1920   0.105E-02    0.383E-03
DAV:  17    -0.133933947525E+04   -0.10745E-05   -0.10983E-05  1808   0.770E-03    0.328E-03
DAV:  18    -0.133933947541E+04   -0.15537E-06   -0.17400E-06  1080   0.472E-03
   2 F= -.13393395E+04 E0= -.13393395E+04  d E =-.201708E+02
 BRION: g(F)=  0.140E+03 g(S)=  0.000E+00 retain N=  1 mean eig= 0.39
 eig:   0.386
 bond charge predicted
       N       E                     dE             d eps       ncg     rms          rms(c)
DAV:   1    -0.132320645747E+04    0.16133E+02   -0.26000E+03  1344   0.611E+01    0.206E+01
DAV:   2    -0.135357801943E+04   -0.30372E+02   -0.38892E+02  2480   0.319E+01    0.170E+01
DAV:   3    -0.135005809778E+04    0.35199E+01   -0.29235E+01  2480   0.120E+01    0.124E+01
DAV:   4    -0.134795700534E+04    0.21011E+01   -0.31192E+01  2080   0.753E+00    0.499E+00
DAV:   5    -0.134862871165E+04   -0.67171E+00   -0.77359E+00  2384   0.416E+00    0.732E+00
DAV:   6    -0.134779798117E+04    0.83073E+00   -0.30711E+00  2536   0.253E+00    0.327E+00
DAV:   7    -0.134773447944E+04    0.63502E-01   -0.32266E+00  2416   0.244E+00    0.159E+00
DAV:   8    -0.134770504829E+04    0.29431E-01   -0.46855E-01  2472   0.147E+00    0.930E-01
DAV:   9    -0.134770835496E+04   -0.33067E-02   -0.13519E-01  2560   0.664E-01    0.391E-01
DAV:  10    -0.134770829263E+04    0.62331E-04   -0.19860E-02  2616   0.262E-01    0.197E-01
DAV:  11    -0.134770973355E+04   -0.14409E-02   -0.62497E-03  2544   0.179E-01    0.242E-01
DAV:  12    -0.134770920366E+04    0.52989E-03   -0.26417E-03  2544   0.121E-01    0.225E-01
DAV:  13    -0.134770852272E+04    0.68094E-03   -0.52284E-03  2264   0.107E-01    0.681E-02
DAV:  14    -0.134770858610E+04   -0.63381E-04   -0.15500E-03  2512   0.646E-02    0.282E-02
DAV:  15    -0.134770860540E+04   -0.19300E-04   -0.17889E-04  2568   0.282E-02    0.352E-02
DAV:  16    -0.134770859440E+04    0.10995E-04   -0.41464E-05  2480   0.147E-02    0.279E-02
DAV:  17    -0.134770858282E+04    0.11585E-04   -0.72795E-05  2072   0.135E-02    0.903E-03
DAV:  18    -0.134770858326E+04   -0.44325E-06   -0.22641E-05  2064   0.892E-03    0.397E-03
DAV:  19    -0.134770858336E+04   -0.92885E-07   -0.35140E-06  1312   0.489E-03
   3 F= -.13477086E+04 E0= -.13477086E+04  d E =-.836911E+01
 BRION: g(F)=  0.182E+02 g(S)=  0.000E+00 retain N=  2 mean eig= 1.70
 eig:   0.218  3.177
 bond charge predicted
       N       E                     dE             d eps       ncg     rms          rms(c)
DAV:   1    -0.134821594933E+04   -0.50737E+00   -0.79919E+02  1400   0.388E+01    0.852E+00
DAV:   2    -0.135270426188E+04   -0.44883E+01   -0.52781E+01  2256   0.156E+01    0.408E+00
DAV:   3    -0.135276982673E+04   -0.65565E-01   -0.47149E+00  2600   0.453E+00    0.368E+00
DAV:   4    -0.135258337873E+04    0.18645E+00   -0.98499E-01  2520   0.208E+00    0.209E+00
DAV:   5    -0.135252378786E+04    0.59591E-01   -0.67816E-01  2208   0.159E+00    0.130E+00
DAV:   6    -0.135251721462E+04    0.65732E-02   -0.31886E-01  2496   0.111E+00    0.109E+00
DAV:   7    -0.135250724309E+04    0.99715E-02   -0.22247E-01  2432   0.779E-01    0.565E-01
DAV:   8    -0.135250559910E+04    0.16440E-02   -0.29343E-02  2512   0.370E-01    0.382E-01
DAV:   9    -0.135250493247E+04    0.66663E-03   -0.16035E-02  2576   0.216E-01    0.157E-01
DAV:  10    -0.135250514687E+04   -0.21440E-03   -0.44387E-03  2552   0.126E-01    0.123E-01
DAV:  11    -0.135250491975E+04    0.22712E-03   -0.19299E-03  2552   0.897E-02    0.489E-02
DAV:  12    -0.135250496299E+04   -0.43231E-04   -0.96213E-04  2544   0.600E-02    0.319E-02
DAV:  13    -0.135250496334E+04   -0.35789E-06   -0.16970E-04  2592   0.268E-02    0.165E-02
DAV:  14    -0.135250496626E+04   -0.29175E-05   -0.94323E-05  2408   0.172E-02    0.118E-02
DAV:  15    -0.135250496592E+04    0.34146E-06   -0.17878E-05  2184   0.937E-03    0.793E-03
DAV:  16    -0.135250496575E+04    0.16960E-06   -0.11447E-05  1712   0.642E-03    0.292E-03
DAV:  17    -0.135250496566E+04    0.93758E-07   -0.12208E-06  1008   0.419E-03
   4 F= -.13525050E+04 E0= -.13525050E+04  d E =-.479638E+01
 BRION: g(F)=  0.669E+01 g(S)=  0.000E+00 retain N=  3 mean eig= 2.71
 eig:   7.341  0.395  0.395
 bond charge predicted
       N       E                     dE             d eps       ncg     rms          rms(c)
DAV:   1    -0.135385554424E+04   -0.13506E+01   -0.28764E+02  1376   0.233E+01    0.366E+00
DAV:   2    -0.135530005093E+04   -0.14445E+01   -0.15606E+01  2296   0.877E+00    0.197E+00
DAV:   3    -0.135532479332E+04   -0.24742E-01   -0.11120E+00  2608   0.190E+00    0.162E+00
DAV:   4    -0.135526967806E+04    0.55115E-01   -0.24888E-01  2520   0.104E+00    0.825E-01
DAV:   5    -0.135525634000E+04    0.13338E-01   -0.10457E-01  2360   0.701E-01    0.497E-01
DAV:   6    -0.135525672226E+04   -0.38227E-03   -0.73378E-02  2448   0.521E-01    0.334E-01
DAV:   7    -0.135525650490E+04    0.21737E-03   -0.23715E-02  2288   0.281E-01    0.263E-01
DAV:   8    -0.135525631053E+04    0.19436E-03   -0.70522E-03  2344   0.145E-01    0.139E-01
DAV:   9    -0.135525610665E+04    0.20389E-03   -0.26738E-03  2544   0.937E-02    0.865E-02
DAV:  10    -0.135525621041E+04   -0.10377E-03   -0.17341E-03  2408   0.733E-02    0.101E-01
DAV:  11    -0.135525608429E+04    0.12613E-03   -0.83168E-04  2464   0.543E-02    0.409E-02
DAV:  12    -0.135525609070E+04   -0.64104E-05   -0.41257E-04  2488   0.365E-02    0.266E-02
DAV:  13    -0.135525609070E+04   -0.26484E-08   -0.10190E-04  2504   0.199E-02    0.154E-02
DAV:  14    -0.135525609019E+04    0.51044E-06   -0.35772E-05  2312   0.102E-02    0.739E-03
DAV:  15    -0.135525609037E+04   -0.17838E-06   -0.48992E-06  1288   0.645E-03
   5 F= -.13552561E+04 E0= -.13552561E+04  d E =-.275112E+01
 BRION: g(F)=  0.337E+01 g(S)=  0.000E+00 retain N=  4 mean eig= 2.33
 eig:   7.533  0.453  0.453  0.871
 bond charge predicted
       N       E                     dE             d eps       ncg     rms          rms(c)
DAV:   1    -0.135616218267E+04   -0.90609E+00   -0.22763E+02  1376   0.209E+01    0.286E+00
DAV:   2    -0.135724219295E+04   -0.10800E+01   -0.11387E+01  2296   0.765E+00    0.152E+00
DAV:   3    -0.135726821218E+04   -0.26019E-01   -0.73725E-01  2616   0.156E+00    0.125E+00
DAV:   4    -0.135723766355E+04    0.30549E-01   -0.14691E-01  2512   0.787E-01    0.657E-01
DAV:   5    -0.135723114600E+04    0.65175E-02   -0.59797E-02  2432   0.477E-01    0.366E-01
DAV:   6    -0.135723113403E+04    0.11970E-04   -0.26743E-02  2560   0.308E-01    0.192E-01
DAV:   7    -0.135723110089E+04    0.33137E-04   -0.81342E-03  2384   0.175E-01    0.127E-01
DAV:   8    -0.135723117338E+04   -0.72482E-04   -0.25109E-03  2472   0.906E-02    0.730E-02
DAV:   9    -0.135723112601E+04    0.47364E-04   -0.71836E-04  2624   0.541E-02    0.462E-02
DAV:  10    -0.135723115130E+04   -0.25287E-04   -0.43063E-04  2568   0.378E-02    0.422E-02
DAV:  11    -0.135723112706E+04    0.24238E-04   -0.23120E-04  2480   0.292E-02    0.134E-02
DAV:  12    -0.135723113115E+04   -0.40925E-05   -0.68851E-05  2272   0.168E-02    0.932E-03
DAV:  13    -0.135723113136E+04   -0.20985E-06   -0.15329E-05  1864   0.784E-03    0.581E-03
DAV:  14    -0.135723113132E+04    0.42040E-07   -0.51522E-06  1336   0.561E-03
   6 F= -.13572311E+04 E0= -.13572311E+04  d E =-.197504E+01
 BRION: g(F)=  0.200E+01 g(S)=  0.000E+00 retain N=  5 mean eig= 2.20
 eig:   6.364  2.748  0.658  0.658  0.590
 bond charge predicted
       N       E                     dE             d eps       ncg     rms          rms(c)
DAV:   1    -0.135722837750E+04    0.27539E-02   -0.36391E+02  1376   0.264E+01    0.347E+00
DAV:   2    -0.135903977513E+04   -0.18114E+01   -0.18935E+01  2280   0.964E+00    0.184E+00
DAV:   3    -0.135910584433E+04   -0.66069E-01   -0.13230E+00  2624   0.200E+00    0.150E+00
DAV:   4    -0.135906559257E+04    0.40252E-01   -0.19156E-01  2560   0.952E-01    0.869E-01
DAV:   5    -0.135904941577E+04    0.16177E-01   -0.79857E-02  2440   0.554E-01    0.368E-01
DAV:   6    -0.135905090799E+04   -0.14922E-02   -0.35638E-02  2528   0.355E-01    0.260E-01
DAV:   7    -0.135905050211E+04    0.40588E-03   -0.11854E-02  2456   0.218E-01    0.170E-01
DAV:   8    -0.135905061800E+04   -0.11588E-03   -0.57762E-03  2496   0.127E-01    0.976E-02
DAV:   9    -0.135905054423E+04    0.73770E-04   -0.10030E-03  2488   0.664E-02    0.686E-02
DAV:  10    -0.135905054226E+04    0.19697E-05   -0.78213E-04  2400   0.501E-02    0.396E-02
DAV:  11    -0.135905053808E+04    0.41792E-05   -0.27022E-04  2528   0.350E-02    0.152E-02
DAV:  12    -0.135905054515E+04   -0.70714E-05   -0.96992E-05  2464   0.196E-02    0.165E-02
DAV:  13    -0.135905054291E+04    0.22368E-05   -0.41807E-05  2360   0.125E-02    0.810E-03
DAV:  14    -0.135905054338E+04   -0.46741E-06   -0.13133E-05  1840   0.713E-03    0.493E-03
DAV:  15    -0.135905054345E+04   -0.65163E-07   -0.12786E-06   992   0.440E-03
   7 F= -.13590505E+04 E0= -.13590505E+04  d E =-.181941E+01
 BRION: g(F)=  0.697E+00 g(S)=  0.000E+00 retain N=  6 mean eig= 2.26
 eig:   7.539  1.527  1.682  1.682  0.560  0.560
 bond charge predicted
       N       E                     dE             d eps       ncg     rms          rms(c)
DAV:   1    -0.135929110315E+04   -0.24056E+00   -0.88230E+01  1384   0.133E+01    0.181E+00
DAV:   2    -0.135974178344E+04   -0.45068E+00   -0.47744E+00  2288   0.515E+00    0.896E-01
DAV:   3    -0.135976427797E+04   -0.22495E-01   -0.36761E-01  2624   0.103E+00    0.728E-01
DAV:   4    -0.135975615480E+04    0.81232E-02   -0.45728E-02  2600   0.499E-01    0.445E-01
DAV:   5    -0.135975256979E+04    0.35850E-02   -0.21131E-02  2408   0.292E-01    0.183E-01
DAV:   6    -0.135975318364E+04   -0.61385E-03   -0.10085E-02  2520   0.191E-01    0.150E-01
DAV:   7    -0.135975306288E+04    0.12076E-03   -0.41593E-03  2504   0.125E-01    0.101E-01
DAV:   8    -0.135975306691E+04   -0.40352E-05   -0.19012E-03  2592   0.782E-02    0.593E-02
DAV:   9    -0.135975303914E+04    0.27780E-04   -0.30480E-04  2544   0.391E-02    0.433E-02
DAV:  10    -0.135975304241E+04   -0.32767E-05   -0.33222E-04  2352   0.312E-02    0.274E-02
DAV:  11    -0.135975303670E+04    0.57078E-05   -0.96736E-05  2424   0.220E-02    0.107E-02
DAV:  12    -0.135975304024E+04   -0.35333E-05   -0.45173E-05  2328   0.126E-02    0.115E-02
DAV:  13    -0.135975303859E+04    0.16471E-05   -0.12193E-05  1768   0.761E-03    0.480E-03
DAV:  14    -0.135975303882E+04   -0.22475E-06   -0.61862E-06  1488   0.559E-03
   8 F= -.13597530E+04 E0= -.13597530E+04  d E =-.702495E+00
 BRION: g(F)=  0.442E+00 g(S)=  0.000E+00 retain N=  6 mean eig= 1.13
 eig:   2.447  2.447  0.469  0.110  0.656  0.656
 bond charge predicted
       N       E                     dE             d eps       ncg     rms          rms(c)
DAV:   1    -0.135987885561E+04   -0.12582E+00   -0.10068E+02  1384   0.145E+01    0.175E+00
DAV:   2    -0.136039370843E+04   -0.51485E+00   -0.54527E+00  2296   0.557E+00    0.885E-01
DAV:   3    -0.136042431112E+04   -0.30603E-01   -0.43153E-01  2624   0.111E+00    0.722E-01
DAV:   4    -0.136041791067E+04    0.64004E-02   -0.44009E-02  2624   0.512E-01    0.492E-01
DAV:   5    -0.136041305630E+04    0.48544E-02   -0.21327E-02  2384   0.299E-01    0.203E-01
DAV:   6    -0.136041359024E+04   -0.53394E-03   -0.12613E-02  2464   0.215E-01    0.157E-01
DAV:   7    -0.136041356431E+04    0.25928E-04   -0.54913E-03  2456   0.144E-01    0.113E-01
DAV:   8    -0.136041354697E+04    0.17347E-04   -0.22650E-03  2592   0.894E-02    0.653E-02
DAV:   9    -0.136041351379E+04    0.33174E-04   -0.45988E-04  2488   0.459E-02    0.447E-02
DAV:  10    -0.136041351837E+04   -0.45733E-05   -0.27241E-04  2520   0.297E-02    0.256E-02
DAV:  11    -0.136041351966E+04   -0.12957E-05   -0.92709E-05  2448   0.209E-02    0.156E-02
DAV:  12    -0.136041351947E+04    0.18817E-06   -0.37960E-05  2328   0.139E-02    0.139E-02
DAV:  13    -0.136041351780E+04    0.16762E-05   -0.29457E-05  2064   0.965E-03    0.626E-03
DAV:  14    -0.136041351796E+04   -0.16086E-06   -0.85177E-06  1696   0.603E-03
   9 F= -.13604135E+04 E0= -.13604135E+04  d E =-.660479E+00
 BRION: g(F)=  0.391E+00 g(S)=  0.000E+00 retain N=  7 mean eig= 1.46
 eig:   3.395  3.395  0.840  0.840  0.482  0.482  0.788
 bond charge predicted
       N       E                     dE             d eps       ncg     rms          rms(c)
DAV:   1    -0.136044573369E+04   -0.32216E-01   -0.10536E+02  1384   0.148E+01    0.178E+00
DAV:   2    -0.136100056068E+04   -0.55483E+00   -0.58898E+00  2288   0.581E+00    0.903E-01
DAV:   3    -0.136103370110E+04   -0.33140E-01   -0.46972E-01  2592   0.115E+00    0.741E-01
DAV:   4    -0.136102728571E+04    0.64154E-02   -0.46803E-02  2584   0.529E-01    0.521E-01
DAV:   5    -0.136102153642E+04    0.57493E-02   -0.22703E-02  2400   0.312E-01    0.217E-01
DAV:   6    -0.136102189155E+04   -0.35513E-03   -0.15015E-02  2400   0.236E-01    0.156E-01
DAV:   7    -0.136102197806E+04   -0.86511E-04   -0.70178E-03  2464   0.158E-01    0.122E-01
DAV:   8    -0.136102194401E+04    0.34046E-04   -0.25354E-03  2584   0.964E-02    0.705E-02
DAV:   9    -0.136102190821E+04    0.35808E-04   -0.60173E-04  2568   0.503E-02    0.456E-02
DAV:  10    -0.136102191560E+04   -0.73970E-05   -0.24774E-04  2576   0.296E-02    0.274E-02
DAV:  11    -0.136102191841E+04   -0.28070E-05   -0.10028E-04  2472   0.210E-02    0.174E-02
DAV:  12    -0.136102191615E+04    0.22641E-05   -0.43696E-05  2368   0.157E-02    0.138E-02
DAV:  13    -0.136102191560E+04    0.54612E-06   -0.38811E-05  2256   0.106E-02    0.756E-03
DAV:  14    -0.136102191543E+04    0.16636E-06   -0.86383E-06  1736   0.592E-03
  10 F= -.13610219E+04 E0= -.13610219E+04  d E =-.608397E+00
 BRION: g(F)=  0.233E+00 g(S)=  0.000E+00 retain N=  8 mean eig= 2.17
 eig:   5.575  5.575  1.447  1.421  1.421  0.743  0.425  0.718
 bond charge predicted
       N       E                     dE             d eps       ncg     rms          rms(c)
DAV:   1    -0.136108972314E+04   -0.67808E-01   -0.63837E+01  1384   0.116E+01    0.140E+00
DAV:   2    -0.136142947257E+04   -0.33975E+00   -0.36289E+00  2296   0.461E+00    0.711E-01
DAV:   3    -0.136145048010E+04   -0.21008E-01   -0.29606E-01  2592   0.916E-01    0.585E-01
DAV:   4    -0.136144649080E+04    0.39893E-02   -0.29319E-02  2584   0.422E-01    0.411E-01
DAV:   5    -0.136144306695E+04    0.34238E-02   -0.15101E-02  2400   0.245E-01    0.168E-01
DAV:   6    -0.136144336889E+04   -0.30194E-03   -0.89071E-03  2424   0.180E-01    0.128E-01
DAV:   7    -0.136144338061E+04   -0.11719E-04   -0.42653E-03  2488   0.124E-01    0.924E-02
DAV:   8    -0.136144336983E+04    0.10781E-04   -0.16140E-03  2592   0.773E-02    0.560E-02
DAV:   9    -0.136144334889E+04    0.20946E-04   -0.32437E-04  2592   0.385E-02    0.381E-02
DAV:  10    -0.136144335061E+04   -0.17219E-05   -0.15201E-04  2576   0.225E-02    0.206E-02
DAV:  11    -0.136144335326E+04   -0.26536E-05   -0.49935E-05  2432   0.153E-02    0.128E-02
DAV:  12    -0.136144335203E+04    0.12365E-05   -0.22743E-05  2304   0.114E-02    0.937E-03
DAV:  13    -0.136144335193E+04    0.99099E-07   -0.18875E-05  2040   0.776E-03    0.522E-03
DAV:  14    -0.136144335164E+04    0.28301E-06   -0.19506E-06  1016   0.495E-03
  11 F= -.13614434E+04 E0= -.13614434E+04  d E =-.421436E+00
 BRION: g(F)=  0.155E+00 g(S)=  0.000E+00 retain N=  9 mean eig= 2.80
 eig:   7.495  7.495  3.020  3.020  1.762  0.182  0.929  0.929  0.393
 bond charge predicted
       N       E                     dE             d eps       ncg     rms          rms(c)
DAV:   1    -0.136152345691E+04   -0.80105E-01   -0.39428E+01  1384   0.903E+00    0.108E+00
DAV:   2    -0.136172979692E+04   -0.20634E+00   -0.21875E+00  2296   0.359E+00    0.536E-01
DAV:   3    -0.136174241794E+04   -0.12621E-01   -0.17492E-01  2584   0.697E-01    0.441E-01
DAV:   4    -0.136174010180E+04    0.23161E-02   -0.16604E-02  2592   0.313E-01    0.318E-01
DAV:   5    -0.136173759950E+04    0.25023E-02   -0.86243E-03  2352   0.196E-01    0.132E-01
DAV:   6    -0.136173778631E+04   -0.18680E-03   -0.66904E-03  2368   0.158E-01    0.104E-01
DAV:   7    -0.136173779309E+04   -0.67854E-05   -0.29621E-03  2432   0.101E-01    0.806E-02
DAV:   8    -0.136173776739E+04    0.25697E-04   -0.10144E-03  2584   0.618E-02    0.438E-02
DAV:   9    -0.136173775131E+04    0.16087E-04   -0.25739E-04  2488   0.321E-02    0.277E-02
DAV:  10    -0.136173775489E+04   -0.35835E-05   -0.93318E-05  2496   0.186E-02    0.179E-02
DAV:  11    -0.136173775542E+04   -0.52492E-06   -0.39077E-05  2328   0.132E-02    0.117E-02
DAV:  12    -0.136173775457E+04    0.84224E-06   -0.19216E-05  2192   0.104E-02    0.966E-03
DAV:  13    -0.136173775395E+04    0.62205E-06   -0.15538E-05  1784   0.733E-03    0.488E-03
DAV:  14    -0.136173775371E+04    0.24615E-06   -0.23709E-06  1032   0.512E-03
  12 F= -.13617378E+04 E0= -.13617378E+04  d E =-.294402E+00
 BRION: g(F)=  0.131E+00 g(S)=  0.000E+00 retain N=  9 mean eig= 2.89
 eig:   7.673  7.673  2.088  2.333  2.333  0.639  1.123  1.123  1.018
 bond charge predicted
       N       E                     dE             d eps       ncg     rms          rms(c)
DAV:   1    -0.136176543608E+04   -0.27682E-01   -0.55058E+01  1384   0.106E+01    0.122E+00
DAV:   2    -0.136204989804E+04   -0.28446E+00   -0.30048E+00  2296   0.416E+00    0.607E-01
DAV:   3    -0.136206715373E+04   -0.17256E-01   -0.23696E-01  2592   0.809E-01    0.502E-01
DAV:   4    -0.136206440024E+04    0.27535E-02   -0.20638E-02  2600   0.350E-01    0.377E-01
DAV:   5    -0.136206046759E+04    0.39326E-02   -0.11618E-02  2296   0.221E-01    0.159E-01
DAV:   6    -0.136206065014E+04   -0.18255E-03   -0.97824E-03  2320   0.181E-01    0.122E-01
DAV:   7    -0.136206064770E+04    0.24396E-05   -0.40183E-03  2456   0.117E-01    0.933E-02
DAV:   8    -0.136206060771E+04    0.39991E-04   -0.13433E-03  2560   0.726E-02    0.495E-02
DAV:   9    -0.136206058533E+04    0.22382E-04   -0.34076E-04  2336   0.368E-02    0.311E-02
DAV:  10    -0.136206059163E+04   -0.62990E-05   -0.11058E-04  2376   0.198E-02    0.189E-02
DAV:  11    -0.136206059135E+04    0.27538E-06   -0.37841E-05  2400   0.131E-02    0.110E-02
DAV:  12    -0.136206059157E+04   -0.21905E-06   -0.22108E-05  2208   0.994E-03    0.988E-03
DAV:  13    -0.136206059080E+04    0.76863E-06   -0.12228E-05  1768   0.668E-03    0.529E-03
DAV:  14    -0.136206059051E+04    0.28638E-06   -0.21686E-06  1000   0.467E-03
  13 F= -.13620606E+04 E0= -.13620606E+04  d E =-.322837E+00
 BRION: g(F)=  0.108E+00 g(S)=  0.000E+00 retain N=  8 mean eig= 3.13
 eig:   6.818  6.818  3.095  3.095  1.151  1.151  1.461  1.461
 bond charge predicted
       N       E                     dE             d eps       ncg     rms          rms(c)
DAV:   1    -0.136207080290E+04   -0.10212E-01   -0.52783E+01  1392   0.103E+01    0.116E+00
DAV:   2    -0.136234147176E+04   -0.27067E+00   -0.28496E+00  2304   0.405E+00    0.589E-01
DAV:   3    -0.136235786442E+04   -0.16393E-01   -0.22482E-01  2600   0.779E-01    0.485E-01
DAV:   4    -0.136235533268E+04    0.25317E-02   -0.18942E-02  2616   0.332E-01    0.369E-01
DAV:   5    -0.136235143984E+04    0.38928E-02   -0.10130E-02  2296   0.209E-01    0.161E-01
DAV:   6    -0.136235144839E+04   -0.85491E-05   -0.94196E-03  2296   0.178E-01    0.108E-01
DAV:   7    -0.136235151961E+04   -0.71215E-04   -0.42157E-03  2440   0.117E-01    0.894E-02
DAV:   8    -0.136235148021E+04    0.39396E-04   -0.10817E-03  2552   0.689E-02    0.507E-02
DAV:   9    -0.136235145444E+04    0.25767E-04   -0.39232E-04  2480   0.372E-02    0.286E-02
DAV:  10    -0.136235146322E+04   -0.87730E-05   -0.11121E-04  2480   0.210E-02    0.194E-02
DAV:  11    -0.136235146329E+04   -0.72614E-07   -0.48691E-05  2384   0.144E-02    0.126E-02
DAV:  12    -0.136235146260E+04    0.69487E-06   -0.25054E-05  2232   0.112E-02    0.109E-02
DAV:  13    -0.136235146179E+04    0.80795E-06   -0.15965E-05  1792   0.734E-03    0.601E-03
DAV:  14    -0.136235146132E+04    0.46767E-06   -0.24755E-06  1008   0.513E-03
  14 F= -.13623515E+04 E0= -.13623515E+04  d E =-.290871E+00
 BRION: g(F)=  0.930E-01 g(S)=  0.000E+00 retain N=  6 mean eig= 4.13
 eig:   7.893  7.893  3.045  3.045  1.466  1.466
 bond charge predicted
       N       E                     dE             d eps       ncg     rms          rms(c)
DAV:   1    -0.136241079708E+04   -0.59335E-01   -0.29508E+01  1392   0.769E+00    0.888E-01
DAV:   2    -0.136256102624E+04   -0.15023E+00   -0.15829E+00  2288   0.300E+00    0.443E-01
DAV:   3    -0.136257019607E+04   -0.91698E-02   -0.12606E-01  2592   0.581E-01    0.364E-01
DAV:   4    -0.136256862913E+04    0.15669E-02   -0.10969E-02  2616   0.249E-01    0.269E-01
DAV:   5    -0.136256654601E+04    0.20831E-02   -0.61716E-03  2280   0.162E-01    0.107E-01
DAV:   6    -0.136256671160E+04   -0.16559E-03   -0.48618E-03  2352   0.126E-01    0.849E-02
DAV:   7    -0.136256669701E+04    0.14589E-04   -0.17052E-03  2440   0.771E-02    0.626E-02
DAV:   8    -0.136256667928E+04    0.17729E-04   -0.61017E-04  2576   0.478E-02    0.327E-02
DAV:   9    -0.136256667013E+04    0.91546E-05   -0.14793E-04  2272   0.247E-02    0.215E-02
DAV:  10    -0.136256667271E+04   -0.25819E-05   -0.50990E-05  2352   0.136E-02    0.126E-02
DAV:  11    -0.136256667212E+04    0.59129E-06   -0.15560E-05  2104   0.874E-03    0.618E-03
DAV:  12    -0.136256667259E+04   -0.47387E-06   -0.10600E-05  1800   0.657E-03    0.552E-03
DAV:  13    -0.136256667219E+04    0.40318E-06   -0.17735E-06  1000   0.449E-03
  15 F= -.13625667E+04 E0= -.13625667E+04  d E =-.215211E+00
 BRION: g(F)=  0.854E-01 g(S)=  0.000E+00 retain N=  3 mean eig= 4.19
 eig:   5.514  5.514  1.528
 bond charge predicted
       N       E                     dE             d eps       ncg     rms          rms(c)
DAV:   1    -0.136261960436E+04   -0.52932E-01   -0.28570E+01  1400   0.756E+00    0.862E-01
DAV:   2    -0.136276552525E+04   -0.14592E+00   -0.15381E+00  2296   0.296E+00    0.431E-01
DAV:   3    -0.136277458836E+04   -0.90631E-02   -0.12362E-01  2592   0.573E-01    0.356E-01
DAV:   4    -0.136277318894E+04    0.13994E-02   -0.10476E-02  2608   0.245E-01    0.268E-01
DAV:   5    -0.136277107080E+04    0.21181E-02   -0.55836E-03  2312   0.156E-01    0.114E-01
DAV:   6    -0.136277111329E+04   -0.42494E-04   -0.50291E-03  2288   0.130E-01    0.808E-02
DAV:   7    -0.136277113322E+04   -0.19924E-04   -0.20590E-03  2416   0.833E-02    0.647E-02
DAV:   8    -0.136277111444E+04    0.18778E-04   -0.60252E-04  2544   0.496E-02    0.353E-02
DAV:   9    -0.136277110181E+04    0.12625E-04   -0.19485E-04  2352   0.270E-02    0.209E-02
DAV:  10    -0.136277110637E+04   -0.45595E-05   -0.62170E-05  2376   0.154E-02    0.144E-02
DAV:  11    -0.136277110538E+04    0.99179E-06   -0.21845E-05  2176   0.102E-02    0.784E-03
DAV:  12    -0.136277110551E+04   -0.13252E-06   -0.12543E-05  1848   0.764E-03    0.689E-03
DAV:  13    -0.136277110507E+04    0.44386E-06   -0.56474E-06  1440   0.536E-03
  16 F= -.13627711E+04 E0= -.13627711E+04  d E =-.204433E+00
 BRION: g(F)=  0.779E-01 g(S)=  0.000E+00 retain N=  3 mean eig= 5.18
 eig:   6.973  6.973  1.605
 bond charge predicted
       N       E                     dE             d eps       ncg     rms          rms(c)
DAV:   1    -0.136282998769E+04   -0.58882E-01   -0.24635E+01  1392   0.703E+00    0.797E-01
DAV:   2    -0.136295613550E+04   -0.12615E+00   -0.13311E+00  2288   0.275E+00    0.401E-01
DAV:   3    -0.136296421597E+04   -0.80805E-02   -0.10898E-01  2592   0.542E-01    0.336E-01
DAV:   4    -0.136296311212E+04    0.11038E-02   -0.91721E-03  2624   0.228E-01    0.257E-01
DAV:   5    -0.136296117823E+04    0.19339E-02   -0.47734E-03  2328   0.146E-01    0.117E-01
DAV:   6    -0.136296113152E+04    0.46710E-04   -0.48553E-03  2248   0.128E-01    0.761E-02
DAV:   7    -0.136296116597E+04   -0.34449E-04   -0.21096E-03  2368   0.844E-02    0.649E-02
DAV:   8    -0.136296114739E+04    0.18578E-04   -0.54950E-04  2496   0.484E-02    0.391E-02
DAV:   9    -0.136296112995E+04    0.17442E-04   -0.22872E-04  2424   0.278E-02    0.202E-02
DAV:  10    -0.136296113571E+04   -0.57632E-05   -0.72490E-05  2464   0.168E-02    0.148E-02
DAV:  11    -0.136296113531E+04    0.39980E-06   -0.21172E-05  2072   0.101E-02    0.102E-02
DAV:  12    -0.136296113477E+04    0.53768E-06   -0.16934E-05  1936   0.856E-03    0.846E-03
DAV:  13    -0.136296113419E+04    0.57950E-06   -0.10073E-05  1768   0.662E-03    0.455E-03
DAV:  14    -0.136296113398E+04    0.21125E-06   -0.16327E-06   968   0.416E-03
  17 F= -.13629611E+04 E0= -.13629611E+04  d E =-.190029E+00
 BRION: g(F)=  0.714E-01 g(S)=  0.000E+00 retain N=  3 mean eig= 5.57
 eig:   7.523  7.523  1.659
 bond charge predicted
       N       E                     dE             d eps       ncg     rms          rms(c)
DAV:   1    -0.136301125155E+04   -0.50117E-01   -0.25093E+01  1392   0.708E+00    0.820E-01
DAV:   2    -0.136314051838E+04   -0.12927E+00   -0.13651E+00  2296   0.278E+00    0.406E-01
DAV:   3    -0.136314885959E+04   -0.83412E-02   -0.11255E-01  2584   0.548E-01    0.340E-01
DAV:   4    -0.136314771929E+04    0.11403E-02   -0.96979E-03  2624   0.233E-01    0.259E-01
DAV:   5    -0.136314579367E+04    0.19256E-02   -0.47358E-03  2336   0.146E-01    0.120E-01
DAV:   6    -0.136314569756E+04    0.96112E-04   -0.48226E-03  2200   0.129E-01    0.753E-02
DAV:   7    -0.136314574949E+04   -0.51926E-04   -0.23064E-03  2376   0.873E-02    0.680E-02
DAV:   8    -0.136314572900E+04    0.20481E-04   -0.59193E-04  2528   0.502E-02    0.443E-02
DAV:   9    -0.136314570599E+04    0.23011E-04   -0.26416E-04  2496   0.290E-02    0.215E-02
DAV:  10    -0.136314571209E+04   -0.60971E-05   -0.81954E-05  2528   0.180E-02    0.155E-02
DAV:  11    -0.136314571236E+04   -0.27448E-06   -0.18202E-05  2000   0.957E-03    0.117E-02
DAV:  12    -0.136314571132E+04    0.10479E-05   -0.22371E-05  1896   0.939E-03    0.949E-03
DAV:  13    -0.136314571078E+04    0.53942E-06   -0.11880E-05  1776   0.715E-03    0.606E-03
DAV:  14    -0.136314571032E+04    0.45812E-06   -0.23596E-06  1000   0.456E-03
  18 F= -.13631457E+04 E0= -.13631457E+04  d E =-.184576E+00
 BRION: g(F)=  0.660E-01 g(S)=  0.000E+00 retain N=  3 mean eig= 5.35
 eig:   7.107  7.107  1.838
 bond charge predicted
       N       E                     dE             d eps       ncg     rms          rms(c)
DAV:   1    -0.136317801903E+04   -0.32308E-01   -0.29420E+01  1384   0.766E+00    0.873E-01
DAV:   2    -0.136333007970E+04   -0.15206E+00   -0.16071E+00  2296   0.299E+00    0.442E-01
DAV:   3    -0.136333985509E+04   -0.97754E-02   -0.13304E-01  2592   0.603E-01    0.375E-01
DAV:   4    -0.136333866550E+04    0.11896E-02   -0.11371E-02  2624   0.253E-01    0.292E-01
DAV:   5    -0.136333622779E+04    0.24377E-02   -0.49028E-03  2368   0.154E-01    0.156E-01
DAV:   6    -0.136333573463E+04    0.49316E-03   -0.69648E-03  2112   0.163E-01    0.769E-02
DAV:   7    -0.136333592707E+04   -0.19244E-03   -0.38934E-03  2400   0.112E-01    0.875E-02
DAV:   8    -0.136333591414E+04    0.12926E-04   -0.63463E-04  2480   0.565E-02    0.717E-02
DAV:   9    -0.136333583297E+04    0.81174E-04   -0.41374E-04  2328   0.372E-02    0.338E-02
DAV:  10    -0.136333584672E+04   -0.13751E-04   -0.28878E-04  2384   0.286E-02    0.193E-02
DAV:  11    -0.136333584844E+04   -0.17278E-05   -0.55103E-05  2144   0.156E-02    0.152E-02
DAV:  12    -0.136333584732E+04    0.11284E-05   -0.55132E-05  2216   0.146E-02    0.153E-02
DAV:  13    -0.136333584472E+04    0.25924E-05   -0.31049E-05  2192   0.111E-02    0.993E-03
DAV:  14    -0.136333584411E+04    0.61339E-06   -0.74751E-06  1632   0.630E-03
  19 F= -.13633358E+04 E0= -.13633358E+04  d E =-.190134E+00
 BRION: g(F)=  0.591E-01 g(S)=  0.000E+00 retain N=  2 mean eig= 4.47
 eig:   4.465  4.465
 bond charge predicted
       N       E                     dE             d eps       ncg     rms          rms(c)
DAV:   1    -0.136337153421E+04   -0.35689E-01   -0.22090E+01  1376   0.666E+00    0.772E-01
DAV:   2    -0.136348622788E+04   -0.11469E+00   -0.12163E+00  2296   0.259E+00    0.391E-01
DAV:   3    -0.136349364411E+04   -0.74162E-02   -0.10233E-01  2592   0.530E-01    0.332E-01
DAV:   4    -0.136349263532E+04    0.10088E-02   -0.90503E-03  2616   0.228E-01    0.256E-01
DAV:   5    -0.136349083525E+04    0.18001E-02   -0.39659E-03  2368   0.136E-01    0.135E-01
DAV:   6    -0.136349049374E+04    0.34151E-03   -0.52298E-03  2128   0.138E-01    0.711E-02
DAV:   7    -0.136349061590E+04   -0.12216E-03   -0.27803E-03  2376   0.960E-02    0.781E-02
DAV:   8    -0.136349060114E+04    0.14753E-04   -0.57538E-04  2488   0.504E-02    0.618E-02
DAV:   9    -0.136349054170E+04    0.59443E-04   -0.33373E-04  2304   0.325E-02    0.278E-02
DAV:  10    -0.136349055214E+04   -0.10441E-04   -0.19676E-04  2336   0.239E-02    0.157E-02
DAV:  11    -0.136349055473E+04   -0.25899E-05   -0.33106E-05  2040   0.121E-02    0.139E-02
DAV:  12    -0.136349055362E+04    0.11142E-05   -0.40245E-05  2144   0.123E-02    0.141E-02
DAV:  13    -0.136349055122E+04    0.24000E-05   -0.22524E-05  2096   0.964E-03    0.871E-03
DAV:  14    -0.136349055072E+04    0.49593E-06   -0.59310E-06  1520   0.571E-03
  20 F= -.13634906E+04 E0= -.13634906E+04  d E =-.154707E+00
 BRION: g(F)=  0.535E-01 g(S)=  0.000E+00 retain N=  3 mean eig= 5.57
 eig:   7.440  7.440  1.829
