 running on  160 total cores
 distrk:  each k-point on  160 cores,    1 groups
 distr:  one band on   20 cores,    8 groups
 using from now: INCAR     
 vasp.5.4.4.18Apr17-6-g9f103f2a35 (build May 01 2020 14:22:42) gamma-only       
  
 POSCAR found type information on POSCAR  O  La Zr Li Al
 POSCAR found :  5 types and     186 ions
 scaLAPACK will be used
 LDA part: xc-table for Pade appr. of Perdew
 POSCAR, INCAR and KPOINTS ok, starting setup
 FFT: planning ...
 WAVECAR not read
 WARNING: random wavefunctions but no delay for mixing, default for NELMDL
 entering main loop
       N       E                     dE             d eps       ncg     rms          rms(c)
DAV:   1     0.253114658008E+05    0.25311E+05   -0.42179E+05  1584   0.253E+03
DAV:   2     0.945782543543E+04   -0.15854E+05   -0.14677E+05  1424   0.706E+02
DAV:   3     0.268110853896E+04   -0.67767E+04   -0.61947E+04  1520   0.354E+02
DAV:   4    -0.351781093075E+03   -0.30329E+04   -0.28288E+04  2048   0.225E+02
DAV:   5    -0.139198167970E+04   -0.10402E+04   -0.10034E+04  2536   0.141E+02    0.116E+02
DAV:   6    -0.128464073221E+04    0.10734E+03   -0.14604E+03  2440   0.661E+01    0.500E+01
DAV:   7    -0.130764736397E+04   -0.23007E+02   -0.39268E+02  2568   0.342E+01    0.255E+01
DAV:   8    -0.131511617145E+04   -0.74688E+01   -0.25959E+02  2552   0.269E+01    0.256E+01
DAV:   9    -0.130918723673E+04    0.59289E+01   -0.50431E+01  2520   0.148E+01    0.839E+00
DAV:  10    -0.130992042897E+04   -0.73319E+00   -0.16418E+01  2616   0.792E+00    0.737E+00
DAV:  11    -0.131029470574E+04   -0.37428E+00   -0.66317E+00  2624   0.439E+00    0.458E+00
DAV:  12    -0.131013833764E+04    0.15637E+00   -0.25898E+00  2576   0.355E+00    0.300E+00
DAV:  13    -0.131016294238E+04   -0.24605E-01   -0.11240E+00  2528   0.192E+00    0.199E+00
DAV:  14    -0.131015597905E+04    0.69633E-02   -0.20655E-01  2624   0.101E+00    0.129E+00
DAV:  15    -0.131015047440E+04    0.55047E-02   -0.11155E-01  2520   0.592E-01    0.835E-01
DAV:  16    -0.131014987140E+04    0.60300E-03   -0.45012E-02  2552   0.399E-01    0.451E-01
DAV:  17    -0.131014969743E+04    0.17396E-03   -0.17432E-02  2464   0.252E-01    0.256E-01
DAV:  18    -0.131014980973E+04   -0.11229E-03   -0.40570E-03  2504   0.129E-01    0.108E-01
DAV:  19    -0.131014986309E+04   -0.53363E-04   -0.20825E-03  2584   0.874E-02    0.875E-02
DAV:  20    -0.131014988659E+04   -0.23502E-04   -0.60383E-04  2520   0.454E-02    0.436E-02
DAV:  21    -0.131014989017E+04   -0.35793E-05   -0.27198E-04  2624   0.297E-02    0.195E-02
DAV:  22    -0.131014990092E+04   -0.10747E-04   -0.94218E-05  2584   0.173E-02    0.109E-02
DAV:  23    -0.131014990636E+04   -0.54433E-05   -0.28300E-05  1832   0.988E-03    0.754E-03
DAV:  24    -0.131014990802E+04   -0.16620E-05   -0.80656E-06  1080   0.598E-03    0.424E-03
DAV:  25    -0.131014990808E+04   -0.55006E-07   -0.68419E-06  1200   0.566E-03
   1 F= -.13101499E+04 E0= -.13101438E+04  d E =-.131015E+04
 BRION: g(F)=  0.913E+02 g(S)=  0.000E+00
 bond charge predicted
       N       E                     dE             d eps       ncg     rms          rms(c)
DAV:   1    -0.125870103346E+04    0.51449E+02   -0.98761E+03  1752   0.149E+02    0.378E+01
DAV:   2    -0.134529774530E+04   -0.86597E+02   -0.98055E+02  2584   0.708E+01    0.183E+01
DAV:   3    -0.134212042664E+04    0.31773E+01   -0.55010E+01  2616   0.182E+01    0.120E+01
DAV:   4    -0.133937683306E+04    0.27436E+01   -0.21583E+01  2448   0.924E+00    0.589E+00
DAV:   5    -0.133921502634E+04    0.16181E+00   -0.53454E+00  2584   0.505E+00    0.396E+00
DAV:   6    -0.133909354741E+04    0.12148E+00   -0.38655E+00  2480   0.349E+00    0.238E+00
DAV:   7    -0.133905349148E+04    0.40056E-01   -0.77927E-01  2544   0.216E+00    0.166E+00
DAV:   8    -0.133904418233E+04    0.93091E-02   -0.70937E-01  2544   0.138E+00    0.764E-01
DAV:   9    -0.133904640632E+04   -0.22240E-02   -0.93730E-02  2560   0.681E-01    0.534E-01
DAV:  10    -0.133904443958E+04    0.19667E-02   -0.26194E-02  2624   0.340E-01    0.282E-01
DAV:  11    -0.133904525112E+04   -0.81153E-03   -0.21962E-02  2584   0.252E-01    0.183E-01
DAV:  12    -0.133904501166E+04    0.23945E-03   -0.36633E-03  2536   0.142E-01    0.876E-02
DAV:  13    -0.133904505780E+04   -0.46137E-04   -0.20495E-03  2616   0.773E-02    0.314E-02
DAV:  14    -0.133904507542E+04   -0.17621E-04   -0.28067E-04  2616   0.364E-02    0.148E-02
DAV:  15    -0.133904508391E+04   -0.84912E-05   -0.83769E-05  2624   0.175E-02    0.811E-03
DAV:  16    -0.133904508661E+04   -0.27022E-05   -0.21478E-05  1824   0.105E-02    0.558E-03
DAV:  17    -0.133904508655E+04    0.66924E-07   -0.72991E-06  1472   0.675E-03
   2 F= -.13390451E+04 E0= -.13390451E+04  d E =-.288952E+02
 BRION: g(F)=  0.499E+02 g(S)=  0.000E+00 retain N=  1 mean eig= 0.60
 eig:   0.600
 bond charge predicted
       N       E                     dE             d eps       ncg     rms          rms(c)
DAV:   1    -0.132106478496E+04    0.17980E+02   -0.38404E+03  1440   0.882E+01    0.198E+01
DAV:   2    -0.135131680252E+04   -0.30252E+02   -0.36241E+02  2520   0.392E+01    0.169E+01
DAV:   3    -0.135102000842E+04    0.29679E+00   -0.25478E+01  2592   0.125E+01    0.134E+01
DAV:   4    -0.134954499507E+04    0.14750E+01   -0.13853E+01  2264   0.592E+00    0.715E+00
DAV:   5    -0.134966124408E+04   -0.11625E+00   -0.48351E+00  2320   0.418E+00    0.630E+00
DAV:   6    -0.134899231203E+04    0.66893E+00   -0.60017E+00  2376   0.436E+00    0.171E+00
DAV:   7    -0.134906099693E+04   -0.68685E-01   -0.14003E+00  2304   0.243E+00    0.130E+00
DAV:   8    -0.134906068632E+04    0.31062E-03   -0.31918E-01  2552   0.935E-01    0.706E-01
DAV:   9    -0.134905597664E+04    0.47097E-02   -0.91214E-02  2616   0.579E-01    0.357E-01
DAV:  10    -0.134905765554E+04   -0.16789E-02   -0.26419E-02  2408   0.314E-01    0.238E-01
DAV:  11    -0.134905706633E+04    0.58921E-03   -0.45791E-03  2616   0.169E-01    0.135E-01
DAV:  12    -0.134905724699E+04   -0.18067E-03   -0.56558E-03  2416   0.114E-01    0.840E-02
DAV:  13    -0.134905720806E+04    0.38931E-04   -0.98424E-04  2584   0.676E-02    0.549E-02
DAV:  14    -0.134905719482E+04    0.13249E-04   -0.53349E-04  2592   0.399E-02    0.273E-02
DAV:  15    -0.134905719447E+04    0.35018E-06   -0.13345E-04  2552   0.238E-02    0.130E-02
DAV:  16    -0.134905719758E+04   -0.31171E-05   -0.44761E-05  2528   0.128E-02    0.721E-03
DAV:  17    -0.134905719825E+04   -0.67148E-06   -0.97359E-06  1848   0.747E-03
   3 F= -.13490572E+04 E0= -.13490572E+04  d E =-.100121E+02
 BRION: g(F)=  0.859E+01 g(S)=  0.000E+00 retain N=  2 mean eig= 1.06
 eig:   0.444  1.673
 bond charge predicted
       N       E                     dE             d eps       ncg     rms          rms(c)
DAV:   1    -0.135027491622E+04   -0.12177E+01   -0.43534E+02  1352   0.294E+01    0.622E+00
DAV:   2    -0.135268095554E+04   -0.24060E+01   -0.27408E+01  2432   0.121E+01    0.311E+00
DAV:   3    -0.135266229358E+04    0.18662E-01   -0.17617E+00  2608   0.308E+00    0.238E+00
DAV:   4    -0.135258420340E+04    0.78090E-01   -0.70512E-01  2376   0.164E+00    0.106E+00
DAV:   5    -0.135258184957E+04    0.23538E-02   -0.19115E-01  2464   0.965E-01    0.836E-01
DAV:   6    -0.135258044667E+04    0.14029E-02   -0.19964E-01  2504   0.748E-01    0.420E-01
DAV:   7    -0.135257998665E+04    0.46002E-03   -0.30053E-02  2448   0.372E-01    0.330E-01
DAV:   8    -0.135257952525E+04    0.46140E-03   -0.18413E-02  2512   0.217E-01    0.119E-01
DAV:   9    -0.135257977713E+04   -0.25189E-03   -0.37061E-03  2608   0.120E-01    0.113E-01
DAV:  10    -0.135257968766E+04    0.89476E-04   -0.12318E-03  2624   0.710E-02    0.577E-02
DAV:  11    -0.135257969404E+04   -0.63864E-05   -0.77504E-04  2608   0.501E-02    0.267E-02
DAV:  12    -0.135257970024E+04   -0.62001E-05   -0.11209E-04  2624   0.222E-02    0.189E-02
DAV:  13    -0.135257970017E+04    0.70460E-07   -0.40579E-05  2544   0.133E-02    0.978E-03
DAV:  14    -0.135257970108E+04   -0.90702E-06   -0.18773E-05  2344   0.863E-03    0.402E-03
DAV:  15    -0.135257970126E+04   -0.18050E-06   -0.32492E-06  1264   0.524E-03
   4 F= -.13525797E+04 E0= -.13525797E+04  d E =-.352250E+01
 BRION: g(F)=  0.327E+01 g(S)=  0.000E+00 retain N=  3 mean eig= 1.27
 eig:   3.077  0.467  0.251
 bond charge predicted
       N       E                     dE             d eps       ncg     rms          rms(c)
DAV:   1    -0.135366324148E+04   -0.10835E+01   -0.19106E+02  1368   0.192E+01    0.327E+00
DAV:   2    -0.135455298570E+04   -0.88974E+00   -0.96838E+00  2280   0.708E+00    0.161E+00
DAV:   3    -0.135456425702E+04   -0.11271E-01   -0.66105E-01  2600   0.152E+00    0.132E+00
DAV:   4    -0.135453166773E+04    0.32589E-01   -0.18224E-01  2480   0.859E-01    0.615E-01
DAV:   5    -0.135452959004E+04    0.20777E-02   -0.65088E-02  2472   0.531E-01    0.447E-01
DAV:   6    -0.135452841940E+04    0.11706E-02   -0.47207E-02  2520   0.387E-01    0.209E-01
DAV:   7    -0.135452855318E+04   -0.13378E-03   -0.96972E-03  2456   0.200E-01    0.175E-01
DAV:   8    -0.135452836371E+04    0.18947E-03   -0.31511E-03  2560   0.985E-02    0.767E-02
DAV:   9    -0.135452838072E+04   -0.17007E-04   -0.14006E-03  2600   0.652E-02    0.571E-02
DAV:  10    -0.135452839052E+04   -0.98039E-05   -0.37979E-04  2296   0.380E-02    0.497E-02
DAV:  11    -0.135452836406E+04    0.26459E-04   -0.26993E-04  2344   0.285E-02    0.210E-02
DAV:  12    -0.135452836458E+04   -0.52020E-06   -0.11411E-04  2392   0.199E-02    0.124E-02
DAV:  13    -0.135452836544E+04   -0.86114E-06   -0.28577E-05  2216   0.112E-02    0.878E-03
DAV:  14    -0.135452836509E+04    0.35811E-06   -0.11625E-05  1656   0.620E-03    0.399E-03
DAV:  15    -0.135452836486E+04    0.22631E-06   -0.20463E-06  1056   0.497E-03
   5 F= -.13545284E+04 E0= -.13545284E+04  d E =-.194866E+01
 BRION: g(F)=  0.157E+01 g(S)=  0.000E+00 retain N=  4 mean eig= 2.20
 eig:   3.778  3.778  0.613  0.613
 bond charge predicted
       N       E                     dE             d eps       ncg     rms          rms(c)
DAV:   1    -0.135496383271E+04   -0.43547E+00   -0.32354E+02  1360   0.255E+01    0.340E+00
DAV:   2    -0.135656512395E+04   -0.16013E+01   -0.16881E+01  2272   0.954E+00    0.170E+00
DAV:   3    -0.135663255446E+04   -0.67431E-01   -0.12288E+00  2608   0.200E+00    0.137E+00
DAV:   4    -0.135659999732E+04    0.32557E-01   -0.16356E-01  2520   0.916E-01    0.817E-01
DAV:   5    -0.135658746189E+04    0.12535E-01   -0.77344E-02  2440   0.547E-01    0.349E-01
DAV:   6    -0.135658888643E+04   -0.14245E-02   -0.33690E-02  2536   0.358E-01    0.259E-01
DAV:   7    -0.135658873782E+04    0.14861E-03   -0.13727E-02  2560   0.229E-01    0.167E-01
DAV:   8    -0.135658884427E+04   -0.10645E-03   -0.52243E-03  2608   0.134E-01    0.997E-02
DAV:   9    -0.135658876528E+04    0.78985E-04   -0.95254E-04  2568   0.687E-02    0.709E-02
DAV:  10    -0.135658880133E+04   -0.36045E-04   -0.10890E-03  2320   0.550E-02    0.496E-02
DAV:  11    -0.135658877154E+04    0.29786E-04   -0.31802E-04  2528   0.411E-02    0.175E-02
DAV:  12    -0.135658878403E+04   -0.12490E-04   -0.17230E-04  2472   0.234E-02    0.197E-02
DAV:  13    -0.135658877911E+04    0.49261E-05   -0.39927E-05  2416   0.134E-02    0.836E-03
DAV:  14    -0.135658877972E+04   -0.60920E-06   -0.17454E-05  1920   0.748E-03    0.410E-03
DAV:  15    -0.135658877991E+04   -0.19907E-06   -0.12834E-06  1016   0.441E-03
   6 F= -.13565888E+04 E0= -.13565888E+04  d E =-.206042E+01
 BRION: g(F)=  0.101E+01 g(S)=  0.000E+00 retain N=  5 mean eig= 2.03
 eig:   3.857  3.857  0.688  0.869  0.869
 bond charge predicted
       N       E                     dE             d eps       ncg     rms          rms(c)
DAV:   1    -0.135711042526E+04   -0.52165E+00   -0.12488E+02  1368   0.159E+01    0.222E+00
DAV:   2    -0.135772488517E+04   -0.61446E+00   -0.64971E+00  2288   0.615E+00    0.109E+00
DAV:   3    -0.135775219653E+04   -0.27311E-01   -0.48616E-01  2624   0.119E+00    0.853E-01
DAV:   4    -0.135773822643E+04    0.13970E-01   -0.71621E-02  2544   0.606E-01    0.456E-01
DAV:   5    -0.135773548469E+04    0.27417E-02   -0.29107E-02  2448   0.362E-01    0.219E-01
DAV:   6    -0.135773617555E+04   -0.69086E-03   -0.13425E-02  2584   0.217E-01    0.144E-01
DAV:   7    -0.135773607077E+04    0.10479E-03   -0.32255E-03  2432   0.121E-01    0.101E-01
DAV:   8    -0.135773610900E+04   -0.38234E-04   -0.19559E-03  2400   0.744E-02    0.574E-02
DAV:   9    -0.135773607868E+04    0.30323E-04   -0.30727E-04  2600   0.416E-02    0.381E-02
DAV:  10    -0.135773608040E+04   -0.17233E-05   -0.37321E-04  2480   0.342E-02    0.256E-02
DAV:  11    -0.135773607735E+04    0.30469E-05   -0.93671E-05  2448   0.213E-02    0.121E-02
DAV:  12    -0.135773607980E+04   -0.24527E-05   -0.48409E-05  2440   0.123E-02    0.933E-03
DAV:  13    -0.135773607911E+04    0.69724E-06   -0.98684E-06  1792   0.763E-03
   7 F= -.13577361E+04 E0= -.13577361E+04  d E =-.114730E+01
 BRION: g(F)=  0.572E+00 g(S)=  0.000E+00 retain N=  6 mean eig= 2.61
 eig:   5.301  5.301  1.803  1.803  0.724  0.724
 bond charge predicted
       N       E                     dE             d eps       ncg     rms          rms(c)
DAV:   1    -0.135802465083E+04   -0.28857E+00   -0.13549E+02  1384   0.167E+01    0.218E+00
DAV:   2    -0.135872201169E+04   -0.69736E+00   -0.74408E+00  2304   0.652E+00    0.109E+00
DAV:   3    -0.135875846667E+04   -0.36455E-01   -0.57815E-01  2592   0.132E+00    0.876E-01
DAV:   4    -0.135874705537E+04    0.11411E-01   -0.69425E-02  2584   0.621E-01    0.562E-01
DAV:   5    -0.135874095321E+04    0.61022E-02   -0.35098E-02  2384   0.384E-01    0.235E-01
DAV:   6    -0.135874187532E+04   -0.92211E-03   -0.17666E-02  2544   0.259E-01    0.201E-01
DAV:   7    -0.135874172921E+04    0.14611E-03   -0.75018E-03  2536   0.168E-01    0.137E-01
DAV:   8    -0.135874170075E+04    0.28460E-04   -0.32274E-03  2600   0.106E-01    0.722E-02
DAV:   9    -0.135874166659E+04    0.34159E-04   -0.53186E-04  2552   0.514E-02    0.512E-02
DAV:  10    -0.135874167493E+04   -0.83354E-05   -0.46137E-04  2368   0.384E-02    0.319E-02
DAV:  11    -0.135874166761E+04    0.73231E-05   -0.13410E-04  2528   0.269E-02    0.132E-02
DAV:  12    -0.135874167390E+04   -0.62962E-05   -0.81495E-05  2408   0.160E-02    0.165E-02
DAV:  13    -0.135874167009E+04    0.38161E-05   -0.26728E-05  2176   0.106E-02    0.695E-03
DAV:  14    -0.135874167026E+04   -0.17384E-06   -0.10324E-05  1776   0.639E-03    0.273E-03
DAV:  15    -0.135874167039E+04   -0.13255E-06   -0.10829E-06   992   0.390E-03
   8 F= -.13587417E+04 E0= -.13587417E+04  d E =-.100559E+01
 BRION: g(F)=  0.393E+00 g(S)=  0.000E+00 retain N=  7 mean eig= 2.82
 eig:   5.033  5.033  3.560  3.560  0.774  0.774  1.011
 bond charge predicted
       N       E                     dE             d eps       ncg     rms          rms(c)
DAV:   1    -0.135898388782E+04   -0.24222E+00   -0.78195E+01  1392   0.127E+01    0.160E+00
DAV:   2    -0.135939342429E+04   -0.40954E+00   -0.43868E+00  2296   0.511E+00    0.807E-01
DAV:   3    -0.135941657956E+04   -0.23155E-01   -0.35419E-01  2600   0.995E-01    0.661E-01
DAV:   4    -0.135941054163E+04    0.60379E-02   -0.38350E-02  2584   0.471E-01    0.441E-01
DAV:   5    -0.135940647014E+04    0.40715E-02   -0.17814E-02  2400   0.276E-01    0.185E-01
DAV:   6    -0.135940670804E+04   -0.23790E-03   -0.10634E-02  2424   0.205E-01    0.135E-01
DAV:   7    -0.135940675023E+04   -0.42194E-04   -0.49407E-03  2424   0.135E-01    0.104E-01
DAV:   8    -0.135940675349E+04   -0.32619E-05   -0.21187E-03  2608   0.844E-02    0.616E-02
DAV:   9    -0.135940672644E+04    0.27056E-04   -0.42338E-04  2576   0.440E-02    0.427E-02
DAV:  10    -0.135940672875E+04   -0.23139E-05   -0.25582E-04  2584   0.286E-02    0.256E-02
DAV:  11    -0.135940672904E+04   -0.28852E-06   -0.92542E-05  2440   0.203E-02    0.139E-02
DAV:  12    -0.135940672840E+04    0.63521E-06   -0.34840E-05  2304   0.139E-02    0.115E-02
DAV:  13    -0.135940672786E+04    0.54255E-06   -0.28015E-05  2152   0.930E-03    0.618E-03
DAV:  14    -0.135940672783E+04    0.28071E-07   -0.71439E-06  1616   0.563E-03
   9 F= -.13594067E+04 E0= -.13594067E+04  d E =-.665057E+00
 BRION: g(F)=  0.276E+00 g(S)=  0.000E+00 retain N=  8 mean eig= 3.32
 eig:   5.245  5.245  5.901  5.901  1.319  1.319  0.808  0.808
 bond charge predicted
       N       E                     dE             d eps       ncg     rms          rms(c)
DAV:   1    -0.135950668088E+04   -0.99953E-01   -0.89681E+01  1392   0.135E+01    0.166E+00
DAV:   2    -0.135997837764E+04   -0.47170E+00   -0.50037E+00  2296   0.541E+00    0.837E-01
DAV:   3    -0.136000436419E+04   -0.25987E-01   -0.39252E-01  2592   0.104E+00    0.676E-01
DAV:   4    -0.135999763001E+04    0.67342E-02   -0.41846E-02  2576   0.488E-01    0.460E-01
DAV:   5    -0.135999263906E+04    0.49910E-02   -0.17367E-02  2456   0.284E-01    0.209E-01
DAV:   6    -0.135999250139E+04    0.13767E-03   -0.12622E-02  2360   0.226E-01    0.124E-01
DAV:   7    -0.135999272472E+04   -0.22332E-03   -0.65000E-03  2432   0.153E-01    0.119E-01
DAV:   8    -0.135999269710E+04    0.27612E-04   -0.17814E-03  2624   0.813E-02    0.788E-02
DAV:   9    -0.135999263141E+04    0.65690E-04   -0.68627E-04  2616   0.502E-02    0.418E-02
DAV:  10    -0.135999264738E+04   -0.15964E-04   -0.31627E-04  2592   0.339E-02    0.279E-02
DAV:  11    -0.135999264661E+04    0.77157E-06   -0.85117E-05  2416   0.202E-02    0.161E-02
DAV:  12    -0.135999264521E+04    0.13913E-05   -0.61577E-05  2272   0.162E-02    0.142E-02
DAV:  13    -0.135999264374E+04    0.14792E-05   -0.34395E-05  2256   0.115E-02    0.796E-03
DAV:  14    -0.135999264379E+04   -0.58280E-07   -0.12388E-05  1784   0.655E-03    0.364E-03
DAV:  15    -0.135999264380E+04   -0.93860E-08   -0.10125E-06   960   0.380E-03
  10 F= -.13599926E+04 E0= -.13599926E+04  d E =-.585916E+00
 BRION: g(F)=  0.186E+00 g(S)=  0.000E+00 retain N=  7 mean eig= 3.37
 eig:   6.841  6.841  3.169  3.169  1.237  1.237  1.096
 bond charge predicted
       N       E                     dE             d eps       ncg     rms          rms(c)
DAV:   1    -0.136009905527E+04   -0.10641E+00   -0.39369E+01  1392   0.897E+00    0.107E+00
DAV:   2    -0.136030593031E+04   -0.20688E+00   -0.21939E+00  2304   0.355E+00    0.549E-01
DAV:   3    -0.136031778744E+04   -0.11857E-01   -0.17444E-01  2608   0.690E-01    0.453E-01
DAV:   4    -0.136031510980E+04    0.26776E-02   -0.17450E-02  2608   0.317E-01    0.321E-01
DAV:   5    -0.136031261962E+04    0.24902E-02   -0.77501E-03  2432   0.179E-01    0.144E-01
DAV:   6    -0.136031251367E+04    0.10595E-03   -0.60718E-03  2288   0.151E-01    0.877E-02
DAV:   7    -0.136031262649E+04   -0.11282E-03   -0.33341E-03  2408   0.104E-01    0.842E-02
DAV:   8    -0.136031259460E+04    0.31898E-04   -0.90050E-04  2600   0.591E-02    0.543E-02
DAV:   9    -0.136031256751E+04    0.27084E-04   -0.34356E-04  2576   0.345E-02    0.290E-02
DAV:  10    -0.136031257367E+04   -0.61606E-05   -0.11763E-04  2552   0.212E-02    0.192E-02
DAV:  11    -0.136031257471E+04   -0.10327E-05   -0.33678E-05  2384   0.124E-02    0.131E-02
DAV:  12    -0.136031257318E+04    0.15267E-05   -0.33107E-05  2200   0.118E-02    0.103E-02
DAV:  13    -0.136031257240E+04    0.77607E-06   -0.15607E-05  1952   0.810E-03    0.634E-03
DAV:  14    -0.136031257225E+04    0.14852E-06   -0.64591E-06  1568   0.529E-03
  11 F= -.13603126E+04 E0= -.13603126E+04  d E =-.319928E+00
 BRION: g(F)=  0.148E+00 g(S)=  0.000E+00 retain N=  7 mean eig= 3.49
 eig:   7.246  7.246  3.145  3.145  1.304  1.304  1.007
 bond charge predicted
       N       E                     dE             d eps       ncg     rms          rms(c)
DAV:   1    -0.136037335580E+04   -0.60783E-01   -0.41572E+01  1392   0.917E+00    0.106E+00
DAV:   2    -0.136058917716E+04   -0.21582E+00   -0.22802E+00  2320   0.362E+00    0.550E-01
DAV:   3    -0.136060138657E+04   -0.12209E-01   -0.17725E-01  2600   0.686E-01    0.456E-01
DAV:   4    -0.136059895634E+04    0.24302E-02   -0.16462E-02  2608   0.308E-01    0.337E-01
DAV:   5    -0.136059596462E+04    0.29917E-02   -0.78995E-03  2368   0.181E-01    0.153E-01
DAV:   6    -0.136059582908E+04    0.13554E-03   -0.73407E-03  2264   0.160E-01    0.939E-02
DAV:   7    -0.136059594330E+04   -0.11422E-03   -0.37330E-03  2424   0.109E-01    0.889E-02
DAV:   8    -0.136059590416E+04    0.39139E-04   -0.95763E-04  2568   0.627E-02    0.578E-02
DAV:   9    -0.136059586670E+04    0.37468E-04   -0.42001E-04  2544   0.371E-02    0.292E-02
DAV:  10    -0.136059587515E+04   -0.84502E-05   -0.12931E-04  2552   0.227E-02    0.202E-02
DAV:  11    -0.136059587740E+04   -0.22557E-05   -0.43052E-05  2296   0.136E-02    0.156E-02
DAV:  12    -0.136059587548E+04    0.19260E-05   -0.41011E-05  2224   0.132E-02    0.135E-02
DAV:  13    -0.136059587409E+04    0.13900E-05   -0.22743E-05  2192   0.929E-03    0.881E-03
DAV:  14    -0.136059587347E+04    0.61489E-06   -0.80173E-06  1688   0.550E-03
  12 F= -.13605959E+04 E0= -.13605959E+04  d E =-.283301E+00
 BRION: g(F)=  0.116E+00 g(S)=  0.000E+00 retain N=  4 mean eig= 4.24
 eig:   6.819  6.819  1.658  1.658
 bond charge predicted
       N       E                     dE             d eps       ncg     rms          rms(c)
DAV:   1    -0.136061118028E+04   -0.15306E-01   -0.49536E+01  1368   0.100E+01    0.116E+00
DAV:   2    -0.136086599862E+04   -0.25482E+00   -0.26841E+00  2304   0.390E+00    0.595E-01
DAV:   3    -0.136088045598E+04   -0.14457E-01   -0.20764E-01  2584   0.755E-01    0.486E-01
DAV:   4    -0.136087759048E+04    0.28655E-02   -0.19854E-02  2600   0.332E-01    0.352E-01
DAV:   5    -0.136087437875E+04    0.32117E-02   -0.92340E-03  2368   0.195E-01    0.151E-01
DAV:   6    -0.136087441189E+04   -0.33145E-04   -0.74491E-03  2312   0.158E-01    0.962E-02
DAV:   7    -0.136087448094E+04   -0.69052E-04   -0.33616E-03  2400   0.105E-01    0.831E-02
DAV:   8    -0.136087445466E+04    0.26280E-04   -0.10726E-03  2608   0.641E-02    0.524E-02
DAV:   9    -0.136087443221E+04    0.22454E-04   -0.32938E-04  2512   0.351E-02    0.310E-02
DAV:  10    -0.136087443703E+04   -0.48198E-05   -0.11152E-04  2552   0.203E-02    0.198E-02
DAV:  11    -0.136087443820E+04   -0.11725E-05   -0.34166E-05  2424   0.126E-02    0.137E-02
DAV:  12    -0.136087443664E+04    0.15606E-05   -0.29406E-05  2200   0.111E-02    0.105E-02
DAV:  13    -0.136087443588E+04    0.75877E-06   -0.15247E-05  1872   0.784E-03    0.577E-03
DAV:  14    -0.136087443566E+04    0.22314E-06   -0.40983E-06  1256   0.523E-03
  13 F= -.13608744E+04 E0= -.13608744E+04  d E =-.278562E+00
 BRION: g(F)=  0.942E-01 g(S)=  0.000E+00 retain N=  4 mean eig= 4.63
 eig:   7.304  7.304  1.956  1.956
 bond charge predicted
       N       E                     dE             d eps       ncg     rms          rms(c)
DAV:   1    -0.136093673951E+04   -0.62304E-01   -0.19143E+01  1368   0.621E+00    0.718E-01
DAV:   2    -0.136103394062E+04   -0.97201E-01   -0.10269E+00  2304   0.241E+00    0.365E-01
DAV:   3    -0.136103967411E+04   -0.57335E-02   -0.81775E-02  2600   0.467E-01    0.297E-01
DAV:   4    -0.136103844395E+04    0.12302E-02   -0.73773E-03  2600   0.206E-01    0.211E-01
DAV:   5    -0.136103723069E+04    0.12133E-02   -0.39577E-03  2296   0.123E-01    0.830E-02
DAV:   6    -0.136103730594E+04   -0.75243E-04   -0.27561E-03  2376   0.968E-02    0.659E-02
DAV:   7    -0.136103731419E+04   -0.82523E-05   -0.12746E-03  2368   0.633E-02    0.489E-02
DAV:   8    -0.136103730811E+04    0.60830E-05   -0.40731E-04  2552   0.389E-02    0.284E-02
DAV:   9    -0.136103730176E+04    0.63493E-05   -0.97934E-05  2400   0.205E-02    0.196E-02
DAV:  10    -0.136103730257E+04   -0.81256E-06   -0.47535E-05  2464   0.124E-02    0.118E-02
DAV:  11    -0.136103730272E+04   -0.15342E-06   -0.18089E-05  2048   0.935E-03    0.719E-03
DAV:  12    -0.136103730254E+04    0.18196E-06   -0.85242E-06  1720   0.677E-03
  14 F= -.13610373E+04 E0= -.13610373E+04  d E =-.162867E+00
 BRION: g(F)=  0.851E-01 g(S)=  0.000E+00 retain N=  4 mean eig= 4.69
 eig:   7.922  7.922  1.454  1.454
 bond charge predicted
       N       E                     dE             d eps       ncg     rms          rms(c)
DAV:   1    -0.136110603055E+04   -0.68728E-01   -0.96081E+00  1384   0.440E+00    0.513E-01
DAV:   2    -0.136115417457E+04   -0.48144E-01   -0.50950E-01  2296   0.171E+00    0.261E-01
DAV:   3    -0.136115702648E+04   -0.28519E-02   -0.40412E-02  2600   0.329E-01    0.213E-01
DAV:   4    -0.136115641415E+04    0.61233E-03   -0.36530E-03  2600   0.145E-01    0.149E-01
DAV:   5    -0.136115585778E+04    0.55636E-03   -0.23269E-03  2208   0.933E-02    0.508E-02
DAV:   6    -0.136115595428E+04   -0.96502E-04   -0.12960E-03  2544   0.652E-02    0.523E-02
DAV:   7    -0.136115594294E+04    0.11340E-04   -0.44490E-04  2552   0.385E-02    0.326E-02
DAV:   8    -0.136115593513E+04    0.78169E-05   -0.12895E-04  2560   0.230E-02    0.171E-02
DAV:   9    -0.136115593456E+04    0.56298E-06   -0.23390E-05  2232   0.105E-02    0.119E-02
DAV:  10    -0.136115593511E+04   -0.54656E-06   -0.11256E-05  1792   0.697E-03    0.493E-03
DAV:  11    -0.136115593491E+04    0.19725E-06   -0.13098E-06   992   0.534E-03
  15 F= -.13611559E+04 E0= -.13611559E+04  d E =-.118632E+00
 BRION: g(F)=  0.791E-01 g(S)=  0.000E+00 retain N=  4 mean eig= 3.41
 eig:   5.540  5.540  1.276  1.276
 bond charge predicted
       N       E                     dE             d eps       ncg     rms          rms(c)
DAV:   1    -0.136122598133E+04   -0.70046E-01   -0.84929E+00  1376   0.414E+00    0.482E-01
DAV:   2    -0.136126888013E+04   -0.42899E-01   -0.45288E-01  2312   0.162E+00    0.243E-01
DAV:   3    -0.136127138248E+04   -0.25024E-02   -0.35140E-02  2600   0.312E-01    0.196E-01
DAV:   4    -0.136127084803E+04    0.53446E-03   -0.32884E-03  2600   0.136E-01    0.135E-01
DAV:   5    -0.136127039500E+04    0.45303E-03   -0.18502E-03  2248   0.847E-02    0.482E-02
DAV:   6    -0.136127047044E+04   -0.75444E-04   -0.10764E-03  2528   0.594E-02    0.457E-02
DAV:   7    -0.136127046123E+04    0.92134E-05   -0.38774E-04  2504   0.365E-02    0.300E-02
DAV:   8    -0.136127045770E+04    0.35259E-05   -0.13637E-04  2560   0.227E-02    0.160E-02
DAV:   9    -0.136127045674E+04    0.96725E-06   -0.23335E-05  2192   0.107E-02    0.116E-02
DAV:  10    -0.136127045703E+04   -0.29946E-06   -0.14968E-05  1792   0.759E-03    0.524E-03
DAV:  11    -0.136127045682E+04    0.21076E-06   -0.16176E-06  1008   0.572E-03
  16 F= -.13612705E+04 E0= -.13612705E+04  d E =-.114522E+00
 BRION: g(F)=  0.752E-01 g(S)=  0.000E+00 retain N=  4 mean eig= 3.59
 eig:   5.822  5.822  1.358  1.358
 bond charge predicted
       N       E                     dE             d eps       ncg     rms          rms(c)
DAV:   1    -0.136134304430E+04   -0.72587E-01   -0.80178E+00  1376   0.399E+00    0.459E-01
DAV:   2    -0.136138319875E+04   -0.40154E-01   -0.42227E-01  2304   0.156E+00    0.227E-01
DAV:   3    -0.136138559967E+04   -0.24009E-02   -0.32853E-02  2600   0.297E-01    0.182E-01
DAV:   4    -0.136138512358E+04    0.47609E-03   -0.28440E-03  2600   0.128E-01    0.128E-01
DAV:   5    -0.136138469775E+04    0.42583E-03   -0.17212E-03  2200   0.801E-02    0.426E-02
DAV:   6    -0.136138477475E+04   -0.76999E-04   -0.97806E-04  2528   0.541E-02    0.421E-02
DAV:   7    -0.136138477002E+04    0.47314E-05   -0.28408E-04  2560   0.319E-02    0.276E-02
DAV:   8    -0.136138476402E+04    0.59960E-05   -0.94552E-05  2552   0.191E-02    0.143E-02
DAV:   9    -0.136138476373E+04    0.29361E-06   -0.16833E-05  2184   0.923E-03    0.974E-03
DAV:  10    -0.136138476402E+04   -0.29217E-06   -0.75626E-06  1704   0.604E-03
  17 F= -.13613848E+04 E0= -.13613848E+04  d E =-.114307E+00
 BRION: g(F)=  0.737E-01 g(S)=  0.000E+00 retain N=  4 mean eig= 2.79
 eig:   4.481  4.481  1.102  1.102
 bond charge predicted
       N       E                     dE             d eps       ncg     rms          rms(c)
DAV:   1    -0.136144755745E+04   -0.62794E-01   -0.40146E+00  1392   0.282E+00    0.317E-01
DAV:   2    -0.136146774507E+04   -0.20188E-01   -0.21283E-01  2296   0.111E+00    0.161E-01
DAV:   3    -0.136146897837E+04   -0.12333E-02   -0.16741E-02  2576   0.213E-01    0.130E-01
DAV:   4    -0.136146876725E+04    0.21112E-03   -0.14619E-03  2584   0.911E-02    0.939E-02
DAV:   5    -0.136146854114E+04    0.22611E-03   -0.85729E-04  2240   0.558E-02    0.339E-02
DAV:   6    -0.136146857143E+04   -0.30292E-04   -0.50364E-04  2456   0.390E-02    0.304E-02
DAV:   7    -0.136146856856E+04    0.28631E-05   -0.18647E-04  2480   0.255E-02    0.196E-02
DAV:   8    -0.136146856688E+04    0.16855E-05   -0.63355E-05  2520   0.156E-02    0.114E-02
DAV:   9    -0.136146856642E+04    0.46354E-06   -0.10517E-05  1944   0.750E-03    0.827E-03
DAV:  10    -0.136146856643E+04   -0.11976E-07   -0.79571E-06  1584   0.566E-03
  18 F= -.13614686E+04 E0= -.13614686E+04  d E =-.838024E-01
 BRION: g(F)=  0.722E-01 g(S)=  0.000E+00 retain N=  4 mean eig= 2.57
 eig:   4.113  4.113  1.035  1.035
 bond charge predicted
       N       E                     dE             d eps       ncg     rms          rms(c)
DAV:   1    -0.136153456484E+04   -0.65998E-01   -0.41553E+00  1384   0.286E+00    0.322E-01
DAV:   2    -0.136155536876E+04   -0.20804E-01   -0.21872E-01  2304   0.112E+00    0.160E-01
DAV:   3    -0.136155663280E+04   -0.12640E-02   -0.16997E-02  2584   0.211E-01    0.129E-01
DAV:   4    -0.136155641911E+04    0.21369E-03   -0.14585E-03  2584   0.912E-02    0.930E-02
DAV:   5    -0.136155618510E+04    0.23400E-03   -0.87005E-04  2240   0.566E-02    0.327E-02
DAV:   6    -0.136155621958E+04   -0.34475E-04   -0.52054E-04  2504   0.389E-02    0.303E-02
DAV:   7    -0.136155621661E+04    0.29662E-05   -0.16384E-04  2512   0.242E-02    0.198E-02
DAV:   8    -0.136155621407E+04    0.25409E-05   -0.59144E-05  2520   0.149E-02    0.107E-02
DAV:   9    -0.136155621367E+04    0.40256E-06   -0.90343E-06  1824   0.719E-03
  19 F= -.13615562E+04 E0= -.13615562E+04  d E =-.876472E-01
 BRION: g(F)=  0.719E-01 g(S)=  0.000E+00 retain N=  4 mean eig= 2.31
 eig:   3.541  3.541  1.089  1.089
 bond charge predicted
       N       E                     dE             d eps       ncg     rms          rms(c)
DAV:   1    -0.136161329592E+04   -0.57082E-01   -0.25489E+00  1384   0.224E+00    0.252E-01
DAV:   2    -0.136162597115E+04   -0.12675E-01   -0.13326E-01  2288   0.869E-01    0.125E-01
DAV:   3    -0.136162674737E+04   -0.77622E-03   -0.10484E-02  2576   0.167E-01    0.998E-02
DAV:   4    -0.136162660753E+04    0.13984E-03   -0.91392E-04  2584   0.719E-02    0.710E-02
DAV:   5    -0.136162647247E+04    0.13506E-03   -0.51398E-04  2248   0.435E-02    0.255E-02
DAV:   6    -0.136162649087E+04   -0.18400E-04   -0.30027E-04  2504   0.298E-02    0.221E-02
DAV:   7    -0.136162649031E+04    0.56192E-06   -0.10044E-04  2504   0.188E-02    0.147E-02
DAV:   8    -0.136162648915E+04    0.11590E-05   -0.33183E-05  2544   0.114E-02    0.818E-03
DAV:   9    -0.136162648875E+04    0.40357E-06   -0.38237E-06  1264   0.560E-03
  20 F= -.13616265E+04 E0= -.13616265E+04  d E =-.702751E-01
 BRION: g(F)=  0.714E-01 g(S)=  0.000E+00 retain N=  5 mean eig= 3.18
 eig:   6.192  6.192  1.268  1.119  1.119
