 running on  160 total cores
 distrk:  each k-point on  160 cores,    1 groups
 distr:  one band on   20 cores,    8 groups
 using from now: INCAR     
 vasp.5.4.4.18Apr17-6-g9f103f2a35 (build May 01 2020 14:22:42) gamma-only       
  
 POSCAR found type information on POSCAR  O  La Zr Li Al
 POSCAR found :  5 types and     186 ions
 scaLAPACK will be used
 LDA part: xc-table for Pade appr. of Perdew
 POSCAR, INCAR and KPOINTS ok, starting setup
 FFT: planning ...
 WAVECAR not read
 WARNING: random wavefunctions but no delay for mixing, default for NELMDL
 entering main loop
       N       E                     dE             d eps       ncg     rms          rms(c)
DAV:   1     0.253155105658E+05    0.25316E+05   -0.42189E+05  1600   0.253E+03
DAV:   2     0.937888746727E+04   -0.15937E+05   -0.14683E+05  1416   0.705E+02
DAV:   3     0.268130435790E+04   -0.66976E+04   -0.60994E+04  1488   0.356E+02
DAV:   4    -0.352447339554E+03   -0.30338E+04   -0.28272E+04  2032   0.222E+02
DAV:   5    -0.139587045075E+04   -0.10434E+04   -0.10020E+04  2528   0.141E+02    0.116E+02
DAV:   6    -0.129141607382E+04    0.10445E+03   -0.14763E+03  2440   0.663E+01    0.500E+01
DAV:   7    -0.131580518004E+04   -0.24389E+02   -0.40968E+02  2576   0.345E+01    0.256E+01
DAV:   8    -0.132291474137E+04   -0.71096E+01   -0.25674E+02  2528   0.268E+01    0.253E+01
DAV:   9    -0.131717122988E+04    0.57435E+01   -0.48339E+01  2520   0.148E+01    0.829E+00
DAV:  10    -0.131788981448E+04   -0.71858E+00   -0.17246E+01  2624   0.780E+00    0.690E+00
DAV:  11    -0.131823657713E+04   -0.34676E+00   -0.50769E+00  2624   0.408E+00    0.437E+00
DAV:  12    -0.131809250251E+04    0.14407E+00   -0.22058E+00  2568   0.335E+00    0.324E+00
DAV:  13    -0.131814126024E+04   -0.48758E-01   -0.85708E-01  2568   0.179E+00    0.212E+00
DAV:  14    -0.131812569217E+04    0.15568E-01   -0.26493E-01  2608   0.102E+00    0.112E+00
DAV:  15    -0.131813211776E+04   -0.64256E-02   -0.78752E-02  2584   0.580E-01    0.920E-01
DAV:  16    -0.131813283581E+04   -0.71806E-03   -0.27607E-02  2608   0.298E-01    0.574E-01
DAV:  17    -0.131813262797E+04    0.20785E-03   -0.18138E-02  2440   0.274E-01    0.296E-01
DAV:  18    -0.131813275176E+04   -0.12379E-03   -0.45874E-03  2376   0.145E-01    0.148E-01
DAV:  19    -0.131813277780E+04   -0.26037E-04   -0.24163E-03  2568   0.980E-02    0.880E-02
DAV:  20    -0.131813282150E+04   -0.43702E-04   -0.51483E-04  2568   0.432E-02    0.433E-02
DAV:  21    -0.131813285661E+04   -0.35116E-04   -0.22445E-04  2568   0.300E-02    0.458E-02
DAV:  22    -0.131813285780E+04   -0.11896E-05   -0.68602E-05  2448   0.160E-02    0.171E-02
DAV:  23    -0.131813285570E+04    0.21082E-05   -0.65029E-05  2416   0.142E-02    0.859E-03
DAV:  24    -0.131813286008E+04   -0.43849E-05   -0.93549E-06  1360   0.735E-03    0.467E-03
DAV:  25    -0.131813285820E+04    0.18794E-05   -0.35187E-06  1008   0.545E-03    0.441E-03
DAV:  26    -0.131813286020E+04   -0.19969E-05   -0.29076E-06  1016   0.488E-03    0.144E-03
DAV:  27    -0.131813286096E+04   -0.76661E-06   -0.15754E-06   920   0.466E-03
   1 F= -.13181329E+04 E0= -.13181329E+04  d E =-.131813E+04
 BRION: g(F)=  0.744E+02 g(S)=  0.000E+00
 bond charge predicted
       N       E                     dE             d eps       ncg     rms          rms(c)
DAV:   1    -0.124848253915E+04    0.69650E+02   -0.10457E+04  1704   0.151E+02    0.405E+01
DAV:   2    -0.133799174366E+04   -0.89509E+02   -0.10249E+03  2568   0.709E+01    0.185E+01
DAV:   3    -0.133443078772E+04    0.35610E+01   -0.57913E+01  2616   0.190E+01    0.119E+01
DAV:   4    -0.133169182052E+04    0.27390E+01   -0.25603E+01  2320   0.100E+01    0.558E+00
DAV:   5    -0.133162992110E+04    0.61899E-01   -0.61637E+00  2512   0.531E+00    0.413E+00
DAV:   6    -0.133149101091E+04    0.13891E+00   -0.40547E+00  2552   0.341E+00    0.219E+00
DAV:   7    -0.133147448039E+04    0.16531E-01   -0.50983E-01  2544   0.183E+00    0.152E+00
DAV:   8    -0.133145628085E+04    0.18200E-01   -0.57754E-01  2472   0.130E+00    0.705E-01
DAV:   9    -0.133146171948E+04   -0.54386E-02   -0.97266E-02  2512   0.650E-01    0.635E-01
DAV:  10    -0.133145798769E+04    0.37318E-02   -0.32629E-02  2616   0.351E-01    0.304E-01
DAV:  11    -0.133145840653E+04   -0.41884E-03   -0.25021E-02  2600   0.263E-01    0.168E-01
DAV:  12    -0.133145843935E+04   -0.32826E-04   -0.36669E-03  2504   0.142E-01    0.969E-02
DAV:  13    -0.133145843195E+04    0.74054E-05   -0.16040E-03  2608   0.711E-02    0.279E-02
DAV:  14    -0.133145846410E+04   -0.32150E-04   -0.24585E-04  2624   0.347E-02    0.199E-02
DAV:  15    -0.133145846745E+04   -0.33543E-05   -0.77373E-05  2616   0.179E-02    0.957E-03
DAV:  16    -0.133145846990E+04   -0.24497E-05   -0.28891E-05  2464   0.115E-02    0.484E-03
DAV:  17    -0.133145847122E+04   -0.13229E-05   -0.95718E-06  1728   0.703E-03    0.450E-03
DAV:  18    -0.133145847110E+04    0.12337E-06   -0.18378E-06  1056   0.506E-03
   2 F= -.13314585E+04 E0= -.13314585E+04  d E =-.133256E+02
 BRION: g(F)=  0.214E+03 g(S)=  0.000E+00 retain N=  1 mean eig= 0.33
 eig:   0.331
 bond charge predicted
       N       E                     dE             d eps       ncg     rms          rms(c)
DAV:   1    -0.131379520629E+04    0.17663E+02   -0.32399E+03  1312   0.721E+01    0.261E+01
DAV:   2    -0.135231257560E+04   -0.38517E+02   -0.49291E+02  2536   0.365E+01    0.223E+01
DAV:   3    -0.134764178166E+04    0.46708E+01   -0.39718E+01  2480   0.130E+01    0.161E+01
DAV:   4    -0.134521190468E+04    0.24299E+01   -0.51792E+01  2096   0.935E+00    0.762E+00
DAV:   5    -0.134604277288E+04   -0.83087E+00   -0.11710E+01  2264   0.494E+00    0.948E+00
DAV:   6    -0.134447473602E+04    0.15680E+01   -0.97601E+00  2432   0.333E+00    0.229E+00
DAV:   7    -0.134453974795E+04   -0.65012E-01   -0.21982E+00  2480   0.233E+00    0.120E+00
DAV:   8    -0.134452740651E+04    0.12341E-01   -0.25195E-01  2544   0.118E+00    0.776E-01
DAV:   9    -0.134452756581E+04   -0.15929E-03   -0.10953E-01  2568   0.521E-01    0.321E-01
DAV:  10    -0.134452912463E+04   -0.15588E-02   -0.19555E-02  2608   0.286E-01    0.233E-01
DAV:  11    -0.134452881619E+04    0.30844E-03   -0.38731E-03  2536   0.140E-01    0.202E-01
DAV:  12    -0.134452831865E+04    0.49754E-03   -0.85049E-03  2344   0.136E-01    0.581E-02
DAV:  13    -0.134452845873E+04   -0.14008E-03   -0.16994E-03  2392   0.773E-02    0.585E-02
DAV:  14    -0.134452847645E+04   -0.17716E-04   -0.26372E-04  2464   0.325E-02    0.568E-02
DAV:  15    -0.134452841123E+04    0.65217E-04   -0.46613E-04  2448   0.351E-02    0.102E-02
DAV:  16    -0.134452842392E+04   -0.12695E-04   -0.12724E-04  2296   0.218E-02    0.110E-02
DAV:  17    -0.134452842412E+04   -0.19078E-06   -0.15714E-05  2088   0.804E-03    0.825E-03
DAV:  18    -0.134452842358E+04    0.53762E-06   -0.12526E-05  1808   0.675E-03    0.219E-03
DAV:  19    -0.134452842367E+04   -0.88403E-07   -0.21674E-06  1144   0.460E-03
   3 F= -.13445284E+04 E0= -.13445284E+04  d E =-.130700E+02
 BRION: g(F)=  0.176E+02 g(S)=  0.000E+00 retain N=  2 mean eig= 2.78
 eig:   0.215  5.346
 bond charge predicted
       N       E                     dE             d eps       ncg     rms          rms(c)
DAV:   1    -0.134498488299E+04   -0.45646E+00   -0.87484E+02  1408   0.410E+01    0.889E+00
DAV:   2    -0.134977737770E+04   -0.47925E+01   -0.56531E+01  2280   0.163E+01    0.438E+00
DAV:   3    -0.134985980769E+04   -0.82430E-01   -0.51372E+00  2616   0.486E+00    0.385E+00
DAV:   4    -0.134966607650E+04    0.19373E+00   -0.10047E+00  2528   0.209E+00    0.217E+00
DAV:   5    -0.134961165767E+04    0.54419E-01   -0.73435E-01  2192   0.160E+00    0.136E+00
DAV:   6    -0.134960234161E+04    0.93161E-02   -0.35028E-01  2496   0.114E+00    0.101E+00
DAV:   7    -0.134959632109E+04    0.60205E-02   -0.22138E-01  2472   0.786E-01    0.579E-01
DAV:   8    -0.134959408992E+04    0.22312E-02   -0.26917E-02  2512   0.359E-01    0.374E-01
DAV:   9    -0.134959359094E+04    0.49898E-03   -0.15685E-02  2576   0.218E-01    0.162E-01
DAV:  10    -0.134959391029E+04   -0.31936E-03   -0.44235E-03  2520   0.122E-01    0.142E-01
DAV:  11    -0.134959358249E+04    0.32780E-03   -0.22028E-03  2568   0.913E-02    0.486E-02
DAV:  12    -0.134959363068E+04   -0.48189E-04   -0.96068E-04  2528   0.612E-02    0.329E-02
DAV:  13    -0.134959363341E+04   -0.27339E-05   -0.16482E-04  2616   0.259E-02    0.178E-02
DAV:  14    -0.134959363499E+04   -0.15788E-05   -0.82593E-05  2360   0.164E-02    0.935E-03
DAV:  15    -0.134959363602E+04   -0.10311E-05   -0.20002E-05  2240   0.920E-03    0.676E-03
DAV:  16    -0.134959363590E+04    0.12001E-06   -0.54379E-06  1376   0.556E-03
   4 F= -.13495936E+04 E0= -.13495936E+04  d E =-.506521E+01
 BRION: g(F)=  0.612E+01 g(S)=  0.000E+00 retain N=  2 mean eig= 0.37
 eig:   0.373  0.373
 bond charge predicted
       N       E                     dE             d eps       ncg     rms          rms(c)
DAV:   1    -0.135102070847E+04   -0.14271E+01   -0.25724E+02  1368   0.221E+01    0.359E+00
DAV:   2    -0.135227012453E+04   -0.12494E+01   -0.13390E+01  2280   0.809E+00    0.180E+00
DAV:   3    -0.135228692105E+04   -0.16797E-01   -0.91383E-01  2600   0.173E+00    0.147E+00
DAV:   4    -0.135223844136E+04    0.48480E-01   -0.25012E-01  2488   0.992E-01    0.706E-01
DAV:   5    -0.135223334579E+04    0.50956E-02   -0.88359E-02  2472   0.602E-01    0.495E-01
DAV:   6    -0.135223250683E+04    0.83896E-03   -0.64383E-02  2560   0.453E-01    0.242E-01
DAV:   7    -0.135223251238E+04   -0.55477E-05   -0.13352E-02  2360   0.233E-01    0.215E-01
DAV:   8    -0.135223227617E+04    0.23621E-03   -0.54877E-03  2376   0.121E-01    0.959E-02
DAV:   9    -0.135223230059E+04   -0.24419E-04   -0.23640E-03  2544   0.822E-02    0.697E-02
DAV:  10    -0.135223230026E+04    0.33362E-06   -0.59398E-04  2424   0.519E-02    0.615E-02
DAV:  11    -0.135223226664E+04    0.33620E-04   -0.45047E-04  2392   0.368E-02    0.233E-02
DAV:  12    -0.135223227260E+04   -0.59656E-05   -0.17516E-04  2440   0.239E-02    0.142E-02
DAV:  13    -0.135223227228E+04    0.32269E-06   -0.29410E-05  2240   0.123E-02    0.891E-03
DAV:  14    -0.135223227260E+04   -0.31924E-06   -0.19669E-05  1936   0.755E-03    0.503E-03
DAV:  15    -0.135223227233E+04    0.26477E-06   -0.21429E-06  1080   0.493E-03
   5 F= -.13522323E+04 E0= -.13522323E+04  d E =-.263864E+01
 BRION: g(F)=  0.351E+01 g(S)=  0.000E+00 retain N=  3 mean eig= 0.28
 eig:   0.331  0.247  0.247
 bond charge predicted
       N       E                     dE             d eps       ncg     rms          rms(c)
DAV:   1    -0.135314130927E+04   -0.90904E+00   -0.31690E+02  1368   0.250E+01    0.345E+00
DAV:   2    -0.135471433883E+04   -0.15730E+01   -0.16619E+01  2280   0.928E+00    0.187E+00
DAV:   3    -0.135477237669E+04   -0.58038E-01   -0.11927E+00  2600   0.196E+00    0.160E+00
DAV:   4    -0.135473514090E+04    0.37236E-01   -0.18163E-01  2592   0.923E-01    0.100E+00
DAV:   5    -0.135471222710E+04    0.22914E-01   -0.10873E-01  2312   0.686E-01    0.433E-01
DAV:   6    -0.135471624577E+04   -0.40187E-02   -0.68792E-02  2488   0.504E-01    0.476E-01
DAV:   7    -0.135471375566E+04    0.24901E-02   -0.28221E-02  2440   0.312E-01    0.285E-01
DAV:   8    -0.135471346393E+04    0.29172E-03   -0.11465E-02  2520   0.188E-01    0.120E-01
DAV:   9    -0.135471337701E+04    0.86922E-04   -0.17311E-03  2352   0.885E-02    0.860E-02
DAV:  10    -0.135471341651E+04   -0.39499E-04   -0.11371E-03  2288   0.568E-02    0.522E-02
DAV:  11    -0.135471338239E+04    0.34124E-04   -0.25497E-04  2528   0.404E-02    0.259E-02
DAV:  12    -0.135471340598E+04   -0.23593E-04   -0.36845E-04  2480   0.312E-02    0.339E-02
DAV:  13    -0.135471338818E+04    0.17796E-04   -0.11179E-04  2432   0.206E-02    0.135E-02
DAV:  14    -0.135471338939E+04   -0.12119E-05   -0.30752E-05  2256   0.104E-02    0.612E-03
DAV:  15    -0.135471338939E+04    0.40018E-08   -0.24865E-06  1096   0.509E-03
   6 F= -.13547134E+04 E0= -.13547134E+04  d E =-.248112E+01
 BRION: g(F)=  0.191E+01 g(S)=  0.000E+00 retain N=  4 mean eig= 0.53
 eig:   0.509  0.509  0.429  0.680
 bond charge predicted
       N       E                     dE             d eps       ncg     rms          rms(c)
DAV:   1    -0.135480205810E+04   -0.88669E-01   -0.36672E+02  1352   0.272E+01    0.376E+00
DAV:   2    -0.135665202665E+04   -0.18500E+01   -0.19526E+01  2280   0.102E+01    0.195E+00
DAV:   3    -0.135672257602E+04   -0.70549E-01   -0.14337E+00  2608   0.211E+00    0.161E+00
DAV:   4    -0.135668219600E+04    0.40380E-01   -0.22038E-01  2592   0.100E+00    0.950E-01
DAV:   5    -0.135666521933E+04    0.16977E-01   -0.10432E-01  2392   0.620E-01    0.431E-01
DAV:   6    -0.135666708042E+04   -0.18611E-02   -0.46305E-02  2544   0.422E-01    0.359E-01
DAV:   7    -0.135666610826E+04    0.97216E-03   -0.20905E-02  2496   0.275E-01    0.213E-01
DAV:   8    -0.135666616407E+04   -0.55814E-04   -0.87852E-03  2544   0.168E-01    0.117E-01
DAV:   9    -0.135666608507E+04    0.78999E-04   -0.12963E-03  2560   0.787E-02    0.830E-02
DAV:  10    -0.135666610207E+04   -0.16995E-04   -0.11314E-03  2336   0.560E-02    0.489E-02
DAV:  11    -0.135666608389E+04    0.18180E-04   -0.31905E-04  2528   0.411E-02    0.193E-02
DAV:  12    -0.135666609468E+04   -0.10792E-04   -0.16945E-04  2528   0.242E-02    0.205E-02
DAV:  13    -0.135666609019E+04    0.44926E-05   -0.50420E-05  2416   0.142E-02    0.914E-03
DAV:  14    -0.135666609053E+04   -0.34689E-06   -0.15546E-05  1856   0.769E-03    0.440E-03
DAV:  15    -0.135666609084E+04   -0.30667E-06   -0.22930E-06  1064   0.483E-03
   7 F= -.13566661E+04 E0= -.13566661E+04  d E =-.195270E+01
 BRION: g(F)=  0.737E+00 g(S)=  0.000E+00 retain N=  5 mean eig= 1.05
 eig:   1.934  1.934  0.461  0.461  0.462
 bond charge predicted
       N       E                     dE             d eps       ncg     rms          rms(c)
DAV:   1    -0.135703374666E+04   -0.36766E+00   -0.77966E+01  1376   0.126E+01    0.189E+00
DAV:   2    -0.135741752235E+04   -0.38378E+00   -0.40635E+00  2264   0.486E+00    0.871E-01
DAV:   3    -0.135743403225E+04   -0.16510E-01   -0.30717E-01  2624   0.965E-01    0.686E-01
DAV:   4    -0.135742461278E+04    0.94195E-02   -0.44446E-02  2504   0.477E-01    0.360E-01
DAV:   5    -0.135742313170E+04    0.14811E-02   -0.20537E-02  2376   0.292E-01    0.172E-01
DAV:   6    -0.135742356891E+04   -0.43721E-03   -0.94760E-03  2536   0.179E-01    0.119E-01
DAV:   7    -0.135742353596E+04    0.32954E-04   -0.20519E-03  2568   0.951E-02    0.857E-02
DAV:   8    -0.135742350655E+04    0.29405E-04   -0.77244E-04  2608   0.521E-02    0.443E-02
DAV:   9    -0.135742350362E+04    0.29302E-05   -0.21243E-04  2600   0.325E-02    0.244E-02
DAV:  10    -0.135742351021E+04   -0.65928E-05   -0.11050E-04  2472   0.202E-02    0.180E-02
DAV:  11    -0.135742350758E+04    0.26363E-05   -0.37035E-05  2432   0.131E-02    0.878E-03
DAV:  12    -0.135742350817E+04   -0.59031E-06   -0.16517E-05  1952   0.787E-03    0.589E-03
DAV:  13    -0.135742350774E+04    0.42790E-06   -0.24261E-06  1040   0.582E-03
   8 F= -.13574235E+04 E0= -.13574235E+04  d E =-.757417E+00
 BRION: g(F)=  0.563E+00 g(S)=  0.000E+00 retain N=  6 mean eig= 1.12
 eig:   2.369  2.369  0.493  0.493  0.498  0.498
 bond charge predicted
       N       E                     dE             d eps       ncg     rms          rms(c)
DAV:   1    -0.135764694248E+04   -0.22343E+00   -0.11872E+02  1384   0.159E+01    0.196E+00
DAV:   2    -0.135827255208E+04   -0.62561E+00   -0.66573E+00  2296   0.637E+00    0.979E-01
DAV:   3    -0.135831101240E+04   -0.38460E-01   -0.53378E-01  2592   0.125E+00    0.801E-01
DAV:   4    -0.135830386636E+04    0.71460E-02   -0.53714E-02  2616   0.556E-01    0.561E-01
DAV:   5    -0.135829793838E+04    0.59280E-02   -0.28983E-02  2344   0.336E-01    0.226E-01
DAV:   6    -0.135829874964E+04   -0.81125E-03   -0.15680E-02  2496   0.242E-01    0.187E-01
DAV:   7    -0.135829865481E+04    0.94822E-04   -0.77068E-03  2488   0.164E-01    0.126E-01
DAV:   8    -0.135829861838E+04    0.36435E-04   -0.28838E-03  2608   0.106E-01    0.738E-02
DAV:   9    -0.135829859136E+04    0.27020E-04   -0.55751E-04  2536   0.506E-02    0.502E-02
DAV:  10    -0.135829859805E+04   -0.66918E-05   -0.27221E-04  2616   0.307E-02    0.265E-02
DAV:  11    -0.135829860296E+04   -0.49084E-05   -0.11032E-04  2504   0.222E-02    0.162E-02
DAV:  12    -0.135829860082E+04    0.21358E-05   -0.35930E-05  2328   0.153E-02    0.128E-02
DAV:  13    -0.135829860048E+04    0.34398E-06   -0.31869E-05  2200   0.956E-03    0.698E-03
DAV:  14    -0.135829860001E+04    0.47158E-06   -0.30840E-06  1136   0.528E-03
   9 F= -.13582986E+04 E0= -.13582986E+04  d E =-.875092E+00
 BRION: g(F)=  0.509E+00 g(S)=  0.000E+00 retain N=  7 mean eig= 1.62
 eig:   3.229  3.229  1.405  1.405  0.375  0.852  0.852
 bond charge predicted
       N       E                     dE             d eps       ncg     rms          rms(c)
DAV:   1    -0.135850001078E+04   -0.20141E+00   -0.98673E+01  1384   0.144E+01    0.179E+00
DAV:   2    -0.135902252303E+04   -0.52251E+00   -0.55604E+00  2288   0.573E+00    0.907E-01
DAV:   3    -0.135905335334E+04   -0.30830E-01   -0.45278E-01  2584   0.113E+00    0.729E-01
DAV:   4    -0.135904578264E+04    0.75707E-02   -0.47800E-02  2584   0.523E-01    0.482E-01
DAV:   5    -0.135904135755E+04    0.44251E-02   -0.24184E-02  2376   0.297E-01    0.187E-01
DAV:   6    -0.135904201030E+04   -0.65274E-03   -0.11174E-02  2528   0.200E-01    0.141E-01
DAV:   7    -0.135904200688E+04    0.34198E-05   -0.51580E-03  2528   0.135E-01    0.938E-02
DAV:   8    -0.135904201496E+04   -0.80853E-05   -0.15987E-03  2616   0.808E-02    0.609E-02
DAV:   9    -0.135904199556E+04    0.19404E-04   -0.35583E-04  2536   0.403E-02    0.418E-02
DAV:  10    -0.135904200217E+04   -0.66095E-05   -0.20750E-04  2616   0.263E-02    0.234E-02
DAV:  11    -0.135904200232E+04   -0.15496E-06   -0.83777E-05  2512   0.187E-02    0.104E-02
DAV:  12    -0.135904200262E+04   -0.29383E-06   -0.23191E-05  2192   0.120E-02    0.747E-03
DAV:  13    -0.135904200283E+04   -0.21690E-06   -0.12680E-05  1848   0.653E-03    0.438E-03
DAV:  14    -0.135904200264E+04    0.19796E-06   -0.14299E-06   992   0.467E-03
  10 F= -.13590420E+04 E0= -.13590420E+04  d E =-.743403E+00
 BRION: g(F)=  0.281E+00 g(S)=  0.000E+00 retain N=  8 mean eig= 2.06
 eig:   5.062  5.062  1.955  1.305  1.305  0.551  0.323  0.954
 bond charge predicted
       N       E                     dE             d eps       ncg     rms          rms(c)
DAV:   1    -0.135919963625E+04   -0.15763E+00   -0.68448E+01  1376   0.119E+01    0.141E+00
DAV:   2    -0.135955777702E+04   -0.35814E+00   -0.37974E+00  2288   0.470E+00    0.719E-01
DAV:   3    -0.135957861129E+04   -0.20834E-01   -0.30490E-01  2592   0.911E-01    0.576E-01
DAV:   4    -0.135957333822E+04    0.52731E-02   -0.31381E-02  2592   0.421E-01    0.386E-01
DAV:   5    -0.135956976079E+04    0.35774E-02   -0.14648E-02  2368   0.235E-01    0.147E-01
DAV:   6    -0.135957010325E+04   -0.34246E-03   -0.79216E-03  2432   0.163E-01    0.105E-01
DAV:   7    -0.135957014619E+04   -0.42939E-04   -0.32656E-03  2440   0.106E-01    0.744E-02
DAV:   8    -0.135957015208E+04   -0.58846E-05   -0.10291E-03  2616   0.631E-02    0.460E-02
DAV:   9    -0.135957014374E+04    0.83410E-05   -0.24511E-04  2568   0.337E-02    0.334E-02
DAV:  10    -0.135957014756E+04   -0.38257E-05   -0.14000E-04  2568   0.218E-02    0.202E-02
DAV:  11    -0.135957014724E+04    0.31768E-06   -0.63385E-05  2448   0.163E-02    0.960E-03
DAV:  12    -0.135957014738E+04   -0.14140E-06   -0.19903E-05  2168   0.106E-02    0.762E-03
DAV:  13    -0.135957014721E+04    0.17589E-06   -0.10743E-05  1736   0.621E-03    0.404E-03
DAV:  14    -0.135957014704E+04    0.16636E-06   -0.19033E-06   984   0.501E-03
  11 F= -.13595701E+04 E0= -.13595701E+04  d E =-.528144E+00
 BRION: g(F)=  0.217E+00 g(S)=  0.000E+00 retain N=  9 mean eig= 2.63
 eig:   7.012  7.012  2.072  2.420  2.420  0.422  0.335  0.992  0.992
 bond charge predicted
       N       E                     dE             d eps       ncg     rms          rms(c)
DAV:   1    -0.135970960902E+04   -0.13946E+00   -0.55915E+01  1376   0.107E+01    0.126E+00
DAV:   2    -0.135999603020E+04   -0.28642E+00   -0.30262E+00  2304   0.412E+00    0.641E-01
DAV:   3    -0.136001180610E+04   -0.15776E-01   -0.23554E-01  2600   0.818E-01    0.516E-01
DAV:   4    -0.136000753415E+04    0.42720E-02   -0.25194E-02  2600   0.372E-01    0.345E-01
DAV:   5    -0.136000453852E+04    0.29956E-02   -0.12223E-02  2336   0.220E-01    0.131E-01
DAV:   6    -0.136000488269E+04   -0.34417E-03   -0.66179E-03  2472   0.152E-01    0.105E-01
DAV:   7    -0.136000485707E+04    0.25623E-04   -0.25481E-03  2464   0.957E-02    0.707E-02
DAV:   8    -0.136000486071E+04   -0.36375E-05   -0.96359E-04  2616   0.596E-02    0.423E-02
DAV:   9    -0.136000485472E+04    0.59833E-05   -0.18178E-04  2568   0.295E-02    0.316E-02
DAV:  10    -0.136000485546E+04   -0.73538E-06   -0.10922E-04  2528   0.192E-02    0.178E-02
DAV:  11    -0.136000485567E+04   -0.21624E-06   -0.45322E-05  2400   0.142E-02    0.873E-03
DAV:  12    -0.136000485579E+04   -0.11378E-06   -0.15368E-05  1984   0.935E-03    0.707E-03
DAV:  13    -0.136000485567E+04    0.11476E-06   -0.88788E-06  1616   0.584E-03
  12 F= -.13600049E+04 E0= -.13600049E+04  d E =-.434709E+00
 BRION: g(F)=  0.185E+00 g(S)=  0.000E+00 retain N=  9 mean eig= 2.72
 eig:   6.868  6.868  1.599  2.656  2.656  0.566  1.135  1.135  1.018
 bond charge predicted
       N       E                     dE             d eps       ncg     rms          rms(c)
DAV:   1    -0.136009457441E+04   -0.89719E-01   -0.69503E+01  1368   0.118E+01    0.136E+00
DAV:   2    -0.136044555259E+04   -0.35098E+00   -0.36981E+00  2312   0.451E+00    0.698E-01
DAV:   3    -0.136046453310E+04   -0.18981E-01   -0.28122E-01  2600   0.913E-01    0.564E-01
DAV:   4    -0.136045989829E+04    0.46348E-02   -0.28799E-02  2600   0.395E-01    0.385E-01
DAV:   5    -0.136045597017E+04    0.39281E-02   -0.13688E-02  2320   0.235E-01    0.151E-01
DAV:   6    -0.136045628941E+04   -0.31924E-03   -0.83389E-03  2424   0.168E-01    0.117E-01
DAV:   7    -0.136045625852E+04    0.30885E-04   -0.32532E-03  2440   0.108E-01    0.830E-02
DAV:   8    -0.136045625710E+04    0.14231E-05   -0.13551E-03  2584   0.686E-02    0.507E-02
DAV:   9    -0.136045624461E+04    0.12487E-04   -0.26872E-04  2512   0.348E-02    0.361E-02
DAV:  10    -0.136045624490E+04   -0.28656E-06   -0.13538E-04  2544   0.213E-02    0.202E-02
DAV:  11    -0.136045624553E+04   -0.62767E-06   -0.48253E-05  2432   0.150E-02    0.114E-02
DAV:  12    -0.136045624502E+04    0.50676E-06   -0.21022E-05  2200   0.103E-02    0.857E-03
DAV:  13    -0.136045624485E+04    0.17132E-06   -0.13662E-05  1792   0.701E-03    0.434E-03
DAV:  14    -0.136045624471E+04    0.14224E-06   -0.16458E-06   968   0.464E-03
  13 F= -.13604562E+04 E0= -.13604562E+04  d E =-.451389E+00
 BRION: g(F)=  0.157E+00 g(S)=  0.000E+00 retain N=  8 mean eig= 3.42
 eig:   7.220  7.220  3.766  3.766  1.496  1.496  1.202  1.202
 bond charge predicted
       N       E                     dE             d eps       ncg     rms          rms(c)
DAV:   1    -0.136036885336E+04    0.87391E-01   -0.10628E+02  1368   0.146E+01    0.167E+00
DAV:   2    -0.136090665050E+04   -0.53780E+00   -0.56407E+00  2304   0.561E+00    0.870E-01
DAV:   3    -0.136093374486E+04   -0.27094E-01   -0.41995E-01  2600   0.111E+00    0.695E-01
DAV:   4    -0.136092539253E+04    0.83523E-02   -0.44553E-02  2584   0.488E-01    0.467E-01
DAV:   5    -0.136091913027E+04    0.62623E-02   -0.20683E-02  2384   0.294E-01    0.186E-01
DAV:   6    -0.136091946441E+04   -0.33414E-03   -0.13222E-02  2424   0.212E-01    0.134E-01
DAV:   7    -0.136091948420E+04   -0.19787E-04   -0.48349E-03  2408   0.134E-01    0.101E-01
DAV:   8    -0.136091947542E+04    0.87778E-05   -0.17996E-03  2584   0.785E-02    0.566E-02
DAV:   9    -0.136091945835E+04    0.17068E-04   -0.42277E-04  2536   0.427E-02    0.390E-02
DAV:  10    -0.136091946550E+04   -0.71479E-05   -0.23102E-04  2520   0.283E-02    0.262E-02
DAV:  11    -0.136091946215E+04    0.33533E-05   -0.94257E-05  2448   0.206E-02    0.122E-02
DAV:  12    -0.136091946349E+04   -0.13397E-05   -0.40171E-05  2328   0.134E-02    0.119E-02
DAV:  13    -0.136091946221E+04    0.12768E-05   -0.19744E-05  1960   0.849E-03    0.570E-03
DAV:  14    -0.136091946233E+04   -0.11700E-06   -0.84517E-06  1712   0.609E-03
  14 F= -.13609195E+04 E0= -.13609195E+04  d E =-.463218E+00
 BRION: g(F)=  0.120E+00 g(S)=  0.000E+00 retain N=  3 mean eig= 4.07
 eig:   5.341  5.341  1.534
 bond charge predicted
       N       E                     dE             d eps       ncg     rms          rms(c)
DAV:   1    -0.136097773085E+04   -0.58269E-01   -0.45793E+01  1368   0.966E+00    0.109E+00
DAV:   2    -0.136121166092E+04   -0.23393E+00   -0.24718E+00  2320   0.375E+00    0.567E-01
DAV:   3    -0.136122475847E+04   -0.13098E-01   -0.19013E-01  2584   0.741E-01    0.452E-01
DAV:   4    -0.136122194712E+04    0.28113E-02   -0.18501E-02  2584   0.323E-01    0.317E-01
DAV:   5    -0.136121947008E+04    0.24770E-02   -0.91672E-03  2376   0.191E-01    0.133E-01
DAV:   6    -0.136121954722E+04   -0.77139E-04   -0.54770E-03  2352   0.140E-01    0.962E-02
DAV:   7    -0.136121956231E+04   -0.15088E-04   -0.26000E-03  2448   0.968E-02    0.725E-02
DAV:   8    -0.136121955855E+04    0.37529E-05   -0.10298E-03  2560   0.606E-02    0.478E-02
DAV:   9    -0.136121954187E+04    0.16684E-04   -0.24212E-04  2512   0.318E-02    0.311E-02
DAV:  10    -0.136121954252E+04   -0.65401E-06   -0.10532E-04  2552   0.190E-02    0.181E-02
DAV:  11    -0.136121954350E+04   -0.97627E-06   -0.36516E-05  2384   0.127E-02    0.116E-02
DAV:  12    -0.136121954213E+04    0.13649E-05   -0.19870E-05  2144   0.993E-03    0.802E-03
DAV:  13    -0.136121954205E+04    0.87311E-07   -0.12576E-05  1760   0.683E-03    0.439E-03
DAV:  14    -0.136121954188E+04    0.17050E-06   -0.17683E-06   968   0.456E-03
  15 F= -.13612195E+04 E0= -.13612195E+04  d E =-.300080E+00
 BRION: g(F)=  0.101E+00 g(S)=  0.000E+00 retain N=  3 mean eig= 5.67
 eig:   7.672  7.672  1.681
 bond charge predicted
       N       E                     dE             d eps       ncg     rms          rms(c)
DAV:   1    -0.136130725593E+04   -0.87714E-01   -0.19165E+01  1368   0.625E+00    0.703E-01
DAV:   2    -0.136140332390E+04   -0.96068E-01   -0.10101E+00  2304   0.241E+00    0.363E-01
DAV:   3    -0.136140885235E+04   -0.55285E-02   -0.78466E-02  2584   0.473E-01    0.287E-01
DAV:   4    -0.136140768953E+04    0.11628E-02   -0.71950E-03  2576   0.203E-01    0.205E-01
DAV:   5    -0.136140654557E+04    0.11440E-02   -0.37156E-03  2336   0.132E-01    0.858E-02
DAV:   6    -0.136140658968E+04   -0.44111E-04   -0.28322E-03  2344   0.103E-01    0.646E-02
DAV:   7    -0.136140660937E+04   -0.19685E-04   -0.11122E-03  2448   0.630E-02    0.520E-02
DAV:   8    -0.136140659789E+04    0.11475E-04   -0.40070E-04  2544   0.379E-02    0.276E-02
DAV:   9    -0.136140659028E+04    0.76095E-05   -0.10765E-04  2376   0.211E-02    0.168E-02
DAV:  10    -0.136140659206E+04   -0.17792E-05   -0.47095E-05  2424   0.135E-02    0.117E-02
DAV:  11    -0.136140659116E+04    0.90117E-06   -0.12590E-05  1888   0.854E-03    0.594E-03
DAV:  12    -0.136140659163E+04   -0.46859E-06   -0.95451E-06  1736   0.659E-03
  16 F= -.13614066E+04 E0= -.13614066E+04  d E =-.187050E+00
 BRION: g(F)=  0.926E-01 g(S)=  0.000E+00 retain N=  3 mean eig= 4.45
 eig:   5.784  5.784  1.785
 bond charge predicted
       N       E                     dE             d eps       ncg     rms          rms(c)
DAV:   1    -0.136148060378E+04   -0.74013E-01   -0.25039E+01  1368   0.715E+00    0.813E-01
DAV:   2    -0.136160735952E+04   -0.12676E+00   -0.13379E+00  2296   0.278E+00    0.417E-01
DAV:   3    -0.136161485061E+04   -0.74911E-02   -0.10604E-01  2592   0.556E-01    0.333E-01
DAV:   4    -0.136161336363E+04    0.14870E-02   -0.97896E-03  2592   0.238E-01    0.236E-01
DAV:   5    -0.136161195819E+04    0.14054E-02   -0.50092E-03  2328   0.145E-01    0.996E-02
DAV:   6    -0.136161200161E+04   -0.43421E-04   -0.33233E-03  2368   0.110E-01    0.746E-02
DAV:   7    -0.136161201667E+04   -0.15051E-04   -0.14551E-03  2440   0.720E-02    0.571E-02
DAV:   8    -0.136161200579E+04    0.10876E-04   -0.56246E-04  2536   0.449E-02    0.330E-02
DAV:   9    -0.136161199741E+04    0.83751E-05   -0.13328E-04  2416   0.238E-02    0.212E-02
DAV:  10    -0.136161199867E+04   -0.12506E-05   -0.64665E-05  2456   0.149E-02    0.128E-02
DAV:  11    -0.136161199873E+04   -0.66197E-07   -0.20205E-05  2208   0.101E-02    0.731E-03
DAV:  12    -0.136161199873E+04    0.24302E-08   -0.99395E-06  1784   0.716E-03
  17 F= -.13616120E+04 E0= -.13616120E+04  d E =-.205407E+00
 BRION: g(F)=  0.855E-01 g(S)=  0.000E+00 retain N=  3 mean eig= 5.14
 eig:   6.878  6.878  1.667
 bond charge predicted
       N       E                     dE             d eps       ncg     rms          rms(c)
DAV:   1    -0.136167363675E+04   -0.61638E-01   -0.29351E+01  1368   0.773E+00    0.858E-01
DAV:   2    -0.136182130322E+04   -0.14767E+00   -0.15562E+00  2304   0.300E+00    0.444E-01
DAV:   3    -0.136183007208E+04   -0.87689E-02   -0.12176E-01  2592   0.588E-01    0.356E-01
DAV:   4    -0.136182854887E+04    0.15232E-02   -0.10745E-02  2592   0.250E-01    0.260E-01
DAV:   5    -0.136182684200E+04    0.17069E-02   -0.55331E-03  2344   0.155E-01    0.114E-01
DAV:   6    -0.136182683832E+04    0.36778E-05   -0.40922E-03  2304   0.123E-01    0.795E-02
DAV:   7    -0.136182687698E+04   -0.38656E-04   -0.19309E-03  2464   0.817E-02    0.657E-02
DAV:   8    -0.136182685906E+04    0.17916E-04   -0.65706E-04  2544   0.499E-02    0.397E-02
DAV:   9    -0.136182684451E+04    0.14552E-04   -0.19604E-04  2472   0.272E-02    0.223E-02
DAV:  10    -0.136182684792E+04   -0.34114E-05   -0.71788E-05  2512   0.162E-02    0.143E-02
DAV:  11    -0.136182684821E+04   -0.28152E-06   -0.20512E-05  2152   0.102E-02    0.971E-03
DAV:  12    -0.136182684764E+04    0.56201E-06   -0.14445E-05  1928   0.820E-03    0.832E-03
DAV:  13    -0.136182684716E+04    0.48788E-06   -0.93692E-06  1760   0.623E-03
  18 F= -.13618268E+04 E0= -.13618268E+04  d E =-.214848E+00
 BRION: g(F)=  0.785E-01 g(S)=  0.000E+00 retain N=  3 mean eig= 4.68
 eig:   6.273  6.273  1.508
 bond charge predicted
       N       E                     dE             d eps       ncg     rms          rms(c)
DAV:   1    -0.136190181258E+04   -0.74965E-01   -0.12530E+01  1360   0.503E+00    0.566E-01
DAV:   2    -0.136196398673E+04   -0.62174E-01   -0.65324E-01  2296   0.194E+00    0.290E-01
DAV:   3    -0.136196750712E+04   -0.35204E-02   -0.50254E-02  2600   0.381E-01    0.228E-01
DAV:   4    -0.136196675085E+04    0.75627E-03   -0.45753E-03  2584   0.162E-01    0.162E-01
DAV:   5    -0.136196602576E+04    0.72509E-03   -0.23231E-03  2312   0.105E-01    0.661E-02
DAV:   6    -0.136196606077E+04   -0.35010E-04   -0.17482E-03  2384   0.792E-02    0.502E-02
DAV:   7    -0.136196607275E+04   -0.11976E-04   -0.62590E-04  2416   0.471E-02    0.401E-02
DAV:   8    -0.136196606674E+04    0.60114E-05   -0.23853E-04  2568   0.286E-02    0.213E-02
DAV:   9    -0.136196606180E+04    0.49339E-05   -0.62935E-05  2296   0.163E-02    0.129E-02
DAV:  10    -0.136196606287E+04   -0.10685E-05   -0.26688E-05  2280   0.103E-02    0.876E-03
DAV:  11    -0.136196606202E+04    0.85036E-06   -0.41895E-06  1232   0.654E-03
  19 F= -.13619661E+04 E0= -.13619661E+04  d E =-.139215E+00
 BRION: g(F)=  0.738E-01 g(S)=  0.000E+00 retain N=  3 mean eig= 4.11
 eig:   5.417  5.417  1.498
 bond charge predicted
       N       E                     dE             d eps       ncg     rms          rms(c)
DAV:   1    -0.136204453015E+04   -0.78467E-01   -0.13752E+01  1360   0.526E+00    0.584E-01
DAV:   2    -0.136211280156E+04   -0.68271E-01   -0.71822E-01  2304   0.203E+00    0.298E-01
DAV:   3    -0.136211679173E+04   -0.39902E-02   -0.55469E-02  2584   0.394E-01    0.236E-01
DAV:   4    -0.136211607005E+04    0.72168E-03   -0.48792E-03  2584   0.166E-01    0.171E-01
DAV:   5    -0.136211528745E+04    0.78260E-03   -0.26029E-03  2304   0.106E-01    0.697E-02
DAV:   6    -0.136211532794E+04   -0.40498E-04   -0.18289E-03  2360   0.797E-02    0.538E-02
DAV:   7    -0.136211533525E+04   -0.73095E-05   -0.70903E-04  2432   0.500E-02    0.404E-02
DAV:   8    -0.136211533051E+04    0.47440E-05   -0.27613E-04  2528   0.313E-02    0.227E-02
DAV:   9    -0.136211532631E+04    0.41980E-05   -0.62976E-05  2312   0.166E-02    0.146E-02
DAV:  10    -0.136211532698E+04   -0.67007E-06   -0.28856E-05  2320   0.102E-02    0.821E-03
DAV:  11    -0.136211532667E+04    0.31567E-06   -0.42560E-06  1232   0.685E-03
  20 F= -.13621153E+04 E0= -.13621153E+04  d E =-.149265E+00
 BRION: g(F)=  0.714E-01 g(S)=  0.000E+00 retain N=  3 mean eig= 4.64
 eig:   6.172  6.172  1.568
