 running on  160 total cores
 distrk:  each k-point on  160 cores,    1 groups
 distr:  one band on   20 cores,    8 groups
 using from now: INCAR     
 vasp.5.4.4.18Apr17-6-g9f103f2a35 (build May 01 2020 14:22:42) gamma-only       
  
 POSCAR found type information on POSCAR  O  La Zr Li Al
 POSCAR found :  5 types and     186 ions
 scaLAPACK will be used
 LDA part: xc-table for Pade appr. of Perdew
 POSCAR, INCAR and KPOINTS ok, starting setup
 FFT: planning ...
 WAVECAR not read
 WARNING: random wavefunctions but no delay for mixing, default for NELMDL
 entering main loop
       N       E                     dE             d eps       ncg     rms          rms(c)
DAV:   1     0.252849271415E+05    0.25285E+05   -0.42191E+05  1600   0.253E+03
DAV:   2     0.945853719893E+04   -0.15826E+05   -0.14541E+05  1416   0.709E+02
DAV:   3     0.269294422301E+04   -0.67656E+04   -0.61861E+04  1504   0.357E+02
DAV:   4    -0.331442996720E+03   -0.30244E+04   -0.28211E+04  2024   0.225E+02
DAV:   5    -0.138255127693E+04   -0.10511E+04   -0.10065E+04  2536   0.142E+02    0.116E+02
DAV:   6    -0.128767995844E+04    0.94871E+02   -0.15217E+03  2456   0.668E+01    0.501E+01
DAV:   7    -0.131051841592E+04   -0.22838E+02   -0.41859E+02  2552   0.350E+01    0.271E+01
DAV:   8    -0.131313967399E+04   -0.26213E+01   -0.21987E+02  2560   0.261E+01    0.216E+01
DAV:   9    -0.131198547298E+04    0.11542E+01   -0.31621E+01  2592   0.130E+01    0.970E+00
DAV:  10    -0.131162052436E+04    0.36495E+00   -0.15570E+01  2576   0.664E+00    0.632E+00
DAV:  11    -0.131187702649E+04   -0.25650E+00   -0.42291E+00  2608   0.393E+00    0.455E+00
DAV:  12    -0.131201137880E+04   -0.13435E+00   -0.22612E+00  2376   0.266E+00    0.407E+00
DAV:  13    -0.131187900715E+04    0.13237E+00   -0.13176E+00  2552   0.227E+00    0.141E+00
DAV:  14    -0.131188549822E+04   -0.64911E-02   -0.23057E-01  2552   0.107E+00    0.118E+00
DAV:  15    -0.131188046677E+04    0.50314E-02   -0.11184E-01  2528   0.646E-01    0.836E-01
DAV:  16    -0.131188131849E+04   -0.85172E-03   -0.25144E-02  2592   0.333E-01    0.569E-01
DAV:  17    -0.131188224400E+04   -0.92551E-03   -0.10249E-02  2552   0.204E-01    0.431E-01
DAV:  18    -0.131188179682E+04    0.44718E-03   -0.47026E-03  2456   0.124E-01    0.218E-01
DAV:  19    -0.131188153835E+04    0.25847E-03   -0.24647E-03  2520   0.973E-02    0.128E-01
DAV:  20    -0.131188153168E+04    0.66685E-05   -0.12830E-03  2496   0.602E-02    0.430E-02
DAV:  21    -0.131188152544E+04    0.62398E-05   -0.34882E-04  2520   0.407E-02    0.582E-02
DAV:  22    -0.131188154307E+04   -0.17628E-04   -0.13999E-04  2536   0.216E-02    0.257E-02
DAV:  23    -0.131188154368E+04   -0.60738E-06   -0.32815E-05  2264   0.122E-02    0.241E-02
DAV:  24    -0.131188154366E+04    0.17870E-07   -0.28001E-05  1888   0.874E-03    0.821E-03
DAV:  25    -0.131188154487E+04   -0.12101E-05   -0.88385E-06  1360   0.711E-03    0.384E-03
DAV:  26    -0.131188154539E+04   -0.52004E-06   -0.26871E-06   968   0.500E-03
   1 F= -.13118815E+04 E0= -.13118585E+04  d E =-.131188E+04
 BRION: g(F)=  0.881E+02 g(S)=  0.000E+00
 bond charge predicted
       N       E                     dE             d eps       ncg     rms          rms(c)
DAV:   1    -0.125739885410E+04    0.54483E+02   -0.96846E+03  1688   0.150E+02    0.361E+01
DAV:   2    -0.133535055300E+04   -0.77952E+02   -0.89266E+02  2552   0.655E+01    0.179E+01
DAV:   3    -0.133230396154E+04    0.30466E+01   -0.53416E+01  2616   0.186E+01    0.115E+01
DAV:   4    -0.132944433144E+04    0.28596E+01   -0.20870E+01  2400   0.920E+00    0.541E+00
DAV:   5    -0.132924565766E+04    0.19867E+00   -0.55069E+00  2528   0.523E+00    0.377E+00
DAV:   6    -0.132912990395E+04    0.11575E+00   -0.36282E+00  2592   0.333E+00    0.213E+00
DAV:   7    -0.132908911868E+04    0.40785E-01   -0.58771E-01  2528   0.200E+00    0.132E+00
DAV:   8    -0.132909148086E+04   -0.23622E-02   -0.58488E-01  2552   0.128E+00    0.875E-01
DAV:   9    -0.132908821961E+04    0.32613E-02   -0.82643E-02  2528   0.675E-01    0.637E-01
DAV:  10    -0.132908420343E+04    0.40162E-02   -0.55542E-02  2616   0.415E-01    0.217E-01
DAV:  11    -0.132908528835E+04   -0.10849E-02   -0.14128E-02  2568   0.238E-01    0.141E-01
DAV:  12    -0.132908542659E+04   -0.13824E-03   -0.21834E-03  2608   0.110E-01    0.102E-01
DAV:  13    -0.132908532277E+04    0.10382E-03   -0.17953E-03  2536   0.807E-02    0.301E-02
DAV:  14    -0.132908536126E+04   -0.38496E-04   -0.42755E-04  2504   0.478E-02    0.151E-02
DAV:  15    -0.132908536997E+04   -0.87068E-05   -0.10730E-04  2608   0.218E-02    0.106E-02
DAV:  16    -0.132908537225E+04   -0.22842E-05   -0.36706E-05  2592   0.130E-02    0.663E-03
DAV:  17    -0.132908537359E+04   -0.13319E-05   -0.11529E-05  1944   0.738E-03    0.473E-03
DAV:  18    -0.132908537342E+04    0.16674E-06   -0.17749E-06  1088   0.495E-03
   2 F= -.13290854E+04 E0= -.13290854E+04  d E =-.172038E+02
 BRION: g(F)=  0.259E+03 g(S)=  0.000E+00 retain N=  1 mean eig= 0.32
 eig:   0.323
 bond charge predicted
       N       E                     dE             d eps       ncg     rms          rms(c)
DAV:   1    -0.131194612751E+04    0.17139E+02   -0.32830E+03  1312   0.676E+01    0.255E+01
DAV:   2    -0.135213319018E+04   -0.40187E+02   -0.52925E+02  2496   0.373E+01    0.223E+01
DAV:   3    -0.134751566330E+04    0.46175E+01   -0.55686E+01  2512   0.155E+01    0.159E+01
DAV:   4    -0.134359711447E+04    0.39185E+01   -0.41952E+01  2152   0.766E+00    0.621E+00
DAV:   5    -0.134490780781E+04   -0.13107E+01   -0.13356E+01  2448   0.503E+00    0.863E+00
DAV:   6    -0.134351583859E+04    0.13920E+01   -0.93451E+00  2472   0.362E+00    0.184E+00
DAV:   7    -0.134364445365E+04   -0.12862E+00   -0.18942E+00  2504   0.242E+00    0.144E+00
DAV:   8    -0.134361000831E+04    0.34445E-01   -0.25002E-01  2552   0.112E+00    0.844E-01
DAV:   9    -0.134360647545E+04    0.35329E-02   -0.13716E-01  2512   0.570E-01    0.291E-01
DAV:  10    -0.134360830426E+04   -0.18288E-02   -0.22036E-02  2600   0.309E-01    0.225E-01
DAV:  11    -0.134360756947E+04    0.73479E-03   -0.54246E-03  2616   0.157E-01    0.162E-01
DAV:  12    -0.134360756771E+04    0.17619E-05   -0.96903E-03  2608   0.140E-01    0.988E-02
DAV:  13    -0.134360751625E+04    0.51459E-04   -0.14319E-03  2480   0.755E-02    0.646E-02
DAV:  14    -0.134360749681E+04    0.19444E-04   -0.68673E-04  2584   0.426E-02    0.289E-02
DAV:  15    -0.134360750036E+04   -0.35532E-05   -0.18260E-04  2600   0.251E-02    0.140E-02
DAV:  16    -0.134360749957E+04    0.79264E-06   -0.39054E-05  2584   0.131E-02    0.694E-03
DAV:  17    -0.134360750245E+04   -0.28744E-05   -0.41620E-05  2280   0.100E-02    0.113E-02
DAV:  18    -0.134360750119E+04    0.12598E-05   -0.33886E-06  1208   0.532E-03    0.905E-03
DAV:  19    -0.134360750031E+04    0.87655E-06   -0.16922E-05  1624   0.662E-03    0.210E-03
DAV:  20    -0.134360750046E+04   -0.15220E-06   -0.19133E-06  1120   0.406E-03
   3 F= -.13436075E+04 E0= -.13436075E+04  d E =-.145221E+02
 BRION: g(F)=  0.204E+02 g(S)=  0.000E+00 retain N=  2 mean eig= 2.71
 eig:   0.199  5.222
 bond charge predicted
       N       E                     dE             d eps       ncg     rms          rms(c)
DAV:   1    -0.134332621987E+04    0.28128E+00   -0.96190E+02  1424   0.428E+01    0.875E+00
DAV:   2    -0.134918783152E+04   -0.58616E+01   -0.68414E+01  2344   0.185E+01    0.501E+00
DAV:   3    -0.134923141998E+04   -0.43588E-01   -0.55128E+00  2600   0.543E+00    0.422E+00
DAV:   4    -0.134899073484E+04    0.24069E+00   -0.15249E+00  2496   0.248E+00    0.230E+00
DAV:   5    -0.134893292396E+04    0.57811E-01   -0.75844E-01  2296   0.189E+00    0.169E+00
DAV:   6    -0.134890594417E+04    0.26980E-01   -0.48753E-01  2504   0.142E+00    0.108E+00
DAV:   7    -0.134890430162E+04    0.16425E-02   -0.24501E-01  2472   0.867E-01    0.689E-01
DAV:   8    -0.134890118540E+04    0.31162E-02   -0.38158E-02  2576   0.401E-01    0.371E-01
DAV:   9    -0.134890023698E+04    0.94841E-03   -0.15328E-02  2584   0.238E-01    0.192E-01
DAV:  10    -0.134890076270E+04   -0.52571E-03   -0.90897E-03  2232   0.171E-01    0.186E-01
DAV:  11    -0.134890031114E+04    0.45155E-03   -0.21600E-03  2568   0.979E-02    0.884E-02
DAV:  12    -0.134890029476E+04    0.16388E-04   -0.14707E-03  2488   0.664E-02    0.450E-02
DAV:  13    -0.134890030658E+04   -0.11819E-04   -0.36968E-04  2544   0.382E-02    0.237E-02
DAV:  14    -0.134890030798E+04   -0.14080E-05   -0.67000E-05  2600   0.184E-02    0.163E-02
DAV:  15    -0.134890030811E+04   -0.13060E-06   -0.44152E-05  2520   0.114E-02    0.100E-02
DAV:  16    -0.134890030781E+04    0.30265E-06   -0.14985E-05  2112   0.758E-03    0.719E-03
DAV:  17    -0.134890030727E+04    0.54574E-06   -0.18608E-06  1056   0.453E-03
   4 F= -.13489003E+04 E0= -.13489003E+04  d E =-.529281E+01
 BRION: g(F)=  0.681E+01 g(S)=  0.000E+00 retain N=  2 mean eig= 0.37
 eig:   0.370  0.370
 bond charge predicted
       N       E                     dE             d eps       ncg     rms          rms(c)
DAV:   1    -0.135022851184E+04   -0.13282E+01   -0.30699E+02  1392   0.245E+01    0.416E+00
DAV:   2    -0.135181888076E+04   -0.15904E+01   -0.17334E+01  2296   0.951E+00    0.214E+00
DAV:   3    -0.135184495681E+04   -0.26076E-01   -0.12480E+00  2600   0.214E+00    0.178E+00
DAV:   4    -0.135178501531E+04    0.59942E-01   -0.32918E-01  2544   0.118E+00    0.887E-01
DAV:   5    -0.135177580817E+04    0.92071E-02   -0.13113E-01  2408   0.765E-01    0.622E-01
DAV:   6    -0.135177425449E+04    0.15537E-02   -0.94596E-02  2552   0.574E-01    0.357E-01
DAV:   7    -0.135177430147E+04   -0.46980E-04   -0.26116E-02  2488   0.304E-01    0.288E-01
DAV:   8    -0.135177379391E+04    0.50757E-03   -0.71318E-03  2544   0.153E-01    0.139E-01
DAV:   9    -0.135177372487E+04    0.69039E-04   -0.32227E-03  2552   0.100E-01    0.961E-02
DAV:  10    -0.135177377316E+04   -0.48291E-04   -0.13319E-03  2240   0.691E-02    0.915E-02
DAV:  11    -0.135177369209E+04    0.81065E-04   -0.74575E-04  2336   0.474E-02    0.421E-02
DAV:  12    -0.135177368511E+04    0.69844E-05   -0.34386E-04  2440   0.335E-02    0.216E-02
DAV:  13    -0.135177368819E+04   -0.30821E-05   -0.91092E-05  2416   0.194E-02    0.125E-02
DAV:  14    -0.135177368867E+04   -0.48110E-06   -0.28291E-05  2272   0.919E-03    0.665E-03
DAV:  15    -0.135177368838E+04    0.28986E-06   -0.42349E-06  1256   0.611E-03
   5 F= -.13517737E+04 E0= -.13517737E+04  d E =-.287338E+01
 BRION: g(F)=  0.395E+01 g(S)=  0.000E+00 retain N=  3 mean eig= 0.20
 eig:   0.221  0.196  0.196
 bond charge predicted
       N       E                     dE             d eps       ncg     rms          rms(c)
DAV:   1    -0.135276165895E+04   -0.98797E+00   -0.23446E+02  1352   0.217E+01    0.294E+00
DAV:   2    -0.135393447746E+04   -0.11728E+01   -0.12588E+01  2264   0.804E+00    0.158E+00
DAV:   3    -0.135398213933E+04   -0.47662E-01   -0.96817E-01  2592   0.186E+00    0.140E+00
DAV:   4    -0.135395657672E+04    0.25563E-01   -0.13415E-01  2584   0.825E-01    0.925E-01
DAV:   5    -0.135393674162E+04    0.19835E-01   -0.10165E-01  2248   0.616E-01    0.407E-01
DAV:   6    -0.135393937355E+04   -0.26319E-02   -0.56116E-02  2504   0.451E-01    0.456E-01
DAV:   7    -0.135393727504E+04    0.20985E-02   -0.28291E-02  2480   0.308E-01    0.255E-01
DAV:   8    -0.135393703174E+04    0.24330E-03   -0.85862E-03  2536   0.172E-01    0.119E-01
DAV:   9    -0.135393699602E+04    0.35715E-04   -0.12869E-03  2576   0.781E-02    0.851E-02
DAV:  10    -0.135393703675E+04   -0.40726E-04   -0.92197E-04  2336   0.495E-02    0.558E-02
DAV:  11    -0.135393698020E+04    0.56552E-04   -0.24526E-04  2536   0.392E-02    0.244E-02
DAV:  12    -0.135393700132E+04   -0.21121E-04   -0.38544E-04  2512   0.312E-02    0.294E-02
DAV:  13    -0.135393698688E+04    0.14442E-04   -0.90190E-05  2360   0.186E-02    0.107E-02
DAV:  14    -0.135393698802E+04   -0.11394E-05   -0.17675E-05  1896   0.902E-03    0.563E-03
DAV:  15    -0.135393698784E+04    0.17151E-06   -0.20435E-06  1048   0.431E-03
   6 F= -.13539370E+04 E0= -.13539370E+04  d E =-.216330E+01
 BRION: g(F)=  0.271E+01 g(S)=  0.000E+00 retain N=  4 mean eig= 0.44
 eig:   0.425  0.425  0.460  0.460
 bond charge predicted
       N       E                     dE             d eps       ncg     rms          rms(c)
DAV:   1    -0.135430048805E+04   -0.36350E+00   -0.40906E+02  1344   0.284E+01    0.380E+00
DAV:   2    -0.135645761838E+04   -0.21571E+01   -0.22513E+01  2336   0.107E+01    0.203E+00
DAV:   3    -0.135652133717E+04   -0.63719E-01   -0.14669E+00  2600   0.223E+00    0.172E+00
DAV:   4    -0.135647862017E+04    0.42717E-01   -0.22777E-01  2576   0.104E+00    0.109E+00
DAV:   5    -0.135644664726E+04    0.31973E-01   -0.11113E-01  2312   0.675E-01    0.456E-01
DAV:   6    -0.135645013082E+04   -0.34836E-02   -0.85345E-02  2416   0.530E-01    0.452E-01
DAV:   7    -0.135644830901E+04    0.18218E-02   -0.25688E-02  2376   0.312E-01    0.326E-01
DAV:   8    -0.135644774109E+04    0.56792E-03   -0.15237E-02  2384   0.202E-01    0.131E-01
DAV:   9    -0.135644766353E+04    0.77562E-04   -0.28851E-03  2280   0.102E-01    0.884E-02
DAV:  10    -0.135644770258E+04   -0.39054E-04   -0.89265E-04  2480   0.542E-02    0.594E-02
DAV:  11    -0.135644766280E+04    0.39778E-04   -0.35646E-04  2520   0.396E-02    0.274E-02
DAV:  12    -0.135644767170E+04   -0.88952E-05   -0.20616E-04  2544   0.273E-02    0.245E-02
DAV:  13    -0.135644766795E+04    0.37544E-05   -0.77549E-05  2456   0.159E-02    0.120E-02
DAV:  14    -0.135644766920E+04   -0.12570E-05   -0.21455E-05  2168   0.876E-03    0.901E-03
DAV:  15    -0.135644766851E+04    0.69254E-06   -0.21678E-06  1040   0.545E-03
   7 F= -.13564477E+04 E0= -.13564477E+04  d E =-.251068E+01
 BRION: g(F)=  0.123E+01 g(S)=  0.000E+00 retain N=  5 mean eig= 0.91
 eig:   1.497  1.497  0.568  0.568  0.418
 bond charge predicted
       N       E                     dE             d eps       ncg     rms          rms(c)
DAV:   1    -0.135687471318E+04   -0.42704E+00   -0.13899E+02  1360   0.166E+01    0.228E+00
DAV:   2    -0.135758045278E+04   -0.70574E+00   -0.74339E+00  2272   0.629E+00    0.120E+00
DAV:   3    -0.135760912200E+04   -0.28669E-01   -0.55752E-01  2624   0.131E+00    0.960E-01
DAV:   4    -0.135759229326E+04    0.16829E-01   -0.82457E-02  2560   0.642E-01    0.548E-01
DAV:   5    -0.135758713813E+04    0.51551E-02   -0.35235E-02  2392   0.378E-01    0.243E-01
DAV:   6    -0.135758784658E+04   -0.70845E-03   -0.15245E-02  2536   0.234E-01    0.164E-01
DAV:   7    -0.135758771468E+04    0.13191E-03   -0.47562E-03  2368   0.139E-01    0.113E-01
DAV:   8    -0.135758774971E+04   -0.35034E-04   -0.24740E-03  2416   0.840E-02    0.657E-02
DAV:   9    -0.135758771702E+04    0.32692E-04   -0.41636E-04  2560   0.461E-02    0.463E-02
DAV:  10    -0.135758771702E+04   -0.49913E-08   -0.47588E-04  2488   0.386E-02    0.289E-02
DAV:  11    -0.135758771159E+04    0.54378E-05   -0.12709E-04  2504   0.249E-02    0.117E-02
DAV:  12    -0.135758771580E+04   -0.42134E-05   -0.55659E-05  2384   0.137E-02    0.109E-02
DAV:  13    -0.135758771443E+04    0.13720E-05   -0.13239E-05  1792   0.844E-03    0.485E-03
DAV:  14    -0.135758771483E+04   -0.40377E-06   -0.84510E-06  1640   0.625E-03
   8 F= -.13575877E+04 E0= -.13575877E+04  d E =-.114005E+01
 BRION: g(F)=  0.639E+00 g(S)=  0.000E+00 retain N=  6 mean eig= 1.11
 eig:   2.364  2.364  0.211  0.211  0.743  0.743
 bond charge predicted
       N       E                     dE             d eps       ncg     rms          rms(c)
DAV:   1    -0.135779486204E+04   -0.20715E+00   -0.13457E+02  1368   0.164E+01    0.218E+00
DAV:   2    -0.135847429413E+04   -0.67943E+00   -0.71448E+00  2288   0.625E+00    0.110E+00
DAV:   3    -0.135850538282E+04   -0.31089E-01   -0.53371E-01  2616   0.127E+00    0.871E-01
DAV:   4    -0.135849138304E+04    0.14000E-01   -0.69850E-02  2544   0.611E-01    0.515E-01
DAV:   5    -0.135848637113E+04    0.50119E-02   -0.30260E-02  2432   0.363E-01    0.214E-01
DAV:   6    -0.135848712276E+04   -0.75163E-03   -0.13686E-02  2504   0.221E-01    0.149E-01
DAV:   7    -0.135848706931E+04    0.53454E-04   -0.41102E-03  2520   0.136E-01    0.106E-01
DAV:   8    -0.135848710712E+04   -0.37804E-04   -0.23347E-03  2544   0.828E-02    0.623E-02
DAV:   9    -0.135848707531E+04    0.31803E-04   -0.37701E-04  2568   0.450E-02    0.440E-02
DAV:  10    -0.135848706848E+04    0.68334E-05   -0.34807E-04  2552   0.354E-02    0.222E-02
DAV:  11    -0.135848706958E+04   -0.11056E-05   -0.95818E-05  2464   0.214E-02    0.968E-03
DAV:  12    -0.135848707281E+04   -0.32240E-05   -0.37257E-05  2432   0.116E-02    0.956E-03
DAV:  13    -0.135848707177E+04    0.10418E-05   -0.10431E-05  1688   0.762E-03    0.453E-03
DAV:  14    -0.135848707203E+04   -0.26013E-06   -0.68426E-06  1504   0.609E-03
   9 F= -.13584871E+04 E0= -.13584871E+04  d E =-.899357E+00
 BRION: g(F)=  0.714E+00 g(S)=  0.000E+00 retain N=  7 mean eig= 1.30
 eig:   2.802  2.802  1.077  1.077  0.417  0.417  0.518
 bond charge predicted
       N       E                     dE             d eps       ncg     rms          rms(c)
DAV:   1    -0.135880649241E+04   -0.31942E+00   -0.60000E+01  1400   0.111E+01    0.143E+00
DAV:   2    -0.135912570850E+04   -0.31922E+00   -0.33944E+00  2296   0.448E+00    0.731E-01
DAV:   3    -0.135914268097E+04   -0.16972E-01   -0.26670E-01  2624   0.880E-01    0.594E-01
DAV:   4    -0.135913721796E+04    0.54630E-02   -0.30589E-02  2600   0.418E-01    0.378E-01
DAV:   5    -0.135913436559E+04    0.28524E-02   -0.14730E-02  2376   0.241E-01    0.151E-01
DAV:   6    -0.135913475837E+04   -0.39278E-03   -0.69412E-03  2496   0.157E-01    0.117E-01
DAV:   7    -0.135913470755E+04    0.50823E-04   -0.28173E-03  2512   0.103E-01    0.766E-02
DAV:   8    -0.135913472205E+04   -0.14509E-04   -0.12163E-03  2624   0.648E-02    0.474E-02
DAV:   9    -0.135913470700E+04    0.15058E-04   -0.21846E-04  2544   0.325E-02    0.343E-02
DAV:  10    -0.135913470824E+04   -0.12414E-05   -0.14805E-04  2592   0.218E-02    0.186E-02
DAV:  11    -0.135913470835E+04   -0.11554E-06   -0.56749E-05  2400   0.157E-02    0.907E-03
DAV:  12    -0.135913470862E+04   -0.26345E-06   -0.15692E-05  2000   0.101E-02    0.778E-03
DAV:  13    -0.135913470836E+04    0.25789E-06   -0.11656E-05  1696   0.615E-03    0.416E-03
DAV:  14    -0.135913470821E+04    0.15397E-06   -0.17163E-06  1016   0.489E-03
  10 F= -.13591347E+04 E0= -.13591347E+04  d E =-.647636E+00
 BRION: g(F)=  0.418E+00 g(S)=  0.000E+00 retain N=  8 mean eig= 1.70
 eig:   3.948  3.948  1.685  1.685  0.691  0.691  0.332  0.618
 bond charge predicted
       N       E                     dE             d eps       ncg     rms          rms(c)
DAV:   1    -0.135936711074E+04   -0.23240E+00   -0.63898E+01  1400   0.115E+01    0.146E+00
DAV:   2    -0.135971215552E+04   -0.34504E+00   -0.36727E+00  2312   0.472E+00    0.746E-01
DAV:   3    -0.135973055020E+04   -0.18395E-01   -0.28533E-01  2616   0.934E-01    0.603E-01
DAV:   4    -0.135972512456E+04    0.54256E-02   -0.32285E-02  2608   0.426E-01    0.396E-01
DAV:   5    -0.135972179296E+04    0.33316E-02   -0.15675E-02  2384   0.254E-01    0.158E-01
DAV:   6    -0.135972222976E+04   -0.43680E-03   -0.83991E-03  2504   0.173E-01    0.122E-01
DAV:   7    -0.135972219069E+04    0.39069E-04   -0.32100E-03  2464   0.110E-01    0.845E-02
DAV:   8    -0.135972220155E+04   -0.10861E-04   -0.14663E-03  2608   0.702E-02    0.485E-02
DAV:   9    -0.135972218860E+04    0.12948E-04   -0.25071E-04  2568   0.355E-02    0.358E-02
DAV:  10    -0.135972218929E+04   -0.68694E-06   -0.15229E-04  2608   0.226E-02    0.193E-02
DAV:  11    -0.135972218957E+04   -0.27506E-06   -0.57557E-05  2464   0.157E-02    0.918E-03
DAV:  12    -0.135972219016E+04   -0.59753E-06   -0.17150E-05  2112   0.101E-02    0.812E-03
DAV:  13    -0.135972218986E+04    0.30256E-06   -0.12274E-05  1792   0.636E-03    0.464E-03
DAV:  14    -0.135972218966E+04    0.20218E-06   -0.16774E-06  1000   0.450E-03
  11 F= -.13597222E+04 E0= -.13597222E+04  d E =-.587481E+00
 BRION: g(F)=  0.308E+00 g(S)=  0.000E+00 retain N=  9 mean eig= 2.51
 eig:   7.142  7.142  2.344  2.344  0.875  0.875  0.346  0.783  0.783
 bond charge predicted
       N       E                     dE             d eps       ncg     rms          rms(c)
DAV:   1    -0.135990262761E+04   -0.18044E+00   -0.59831E+01  1408   0.112E+01    0.138E+00
DAV:   2    -0.136023291956E+04   -0.33029E+00   -0.35040E+00  2304   0.464E+00    0.721E-01
DAV:   3    -0.136025079519E+04   -0.17876E-01   -0.27114E-01  2624   0.876E-01    0.589E-01
DAV:   4    -0.136024561823E+04    0.51770E-02   -0.29054E-02  2616   0.414E-01    0.401E-01
DAV:   5    -0.136024150613E+04    0.41121E-02   -0.13897E-02  2352   0.243E-01    0.157E-01
DAV:   6    -0.136024186884E+04   -0.36271E-03   -0.94718E-03  2424   0.178E-01    0.116E-01
DAV:   7    -0.136024186958E+04   -0.74301E-06   -0.33414E-03  2432   0.107E-01    0.876E-02
DAV:   8    -0.136024185180E+04    0.17784E-04   -0.12655E-03  2624   0.669E-02    0.473E-02
DAV:   9    -0.136024183717E+04    0.14627E-04   -0.29196E-04  2456   0.357E-02    0.321E-02
DAV:  10    -0.136024184214E+04   -0.49714E-05   -0.11662E-04  2504   0.210E-02    0.205E-02
DAV:  11    -0.136024184082E+04    0.13164E-05   -0.55934E-05  2424   0.155E-02    0.113E-02
DAV:  12    -0.136024184122E+04   -0.39754E-06   -0.23992E-05  2304   0.112E-02    0.103E-02
DAV:  13    -0.136024184026E+04    0.96511E-06   -0.13442E-05  1776   0.694E-03    0.481E-03
DAV:  14    -0.136024184020E+04    0.58295E-07   -0.48510E-06  1376   0.547E-03
  12 F= -.13602418E+04 E0= -.13602418E+04  d E =-.519651E+00
 BRION: g(F)=  0.211E+00 g(S)=  0.000E+00 retain N=  9 mean eig= 1.91
 eig:   3.821  3.821  2.527  2.527  1.262  1.262  0.680  0.680  0.651
 bond charge predicted
       N       E                     dE             d eps       ncg     rms          rms(c)
DAV:   1    -0.136042518386E+04   -0.18334E+00   -0.30554E+01  1400   0.793E+00    0.103E+00
DAV:   2    -0.136058856101E+04   -0.16338E+00   -0.17475E+00  2296   0.319E+00    0.508E-01
DAV:   3    -0.136059784759E+04   -0.92866E-02   -0.14255E-01  2616   0.636E-01    0.418E-01
DAV:   4    -0.136059508826E+04    0.27593E-02   -0.15684E-02  2616   0.299E-01    0.273E-01
DAV:   5    -0.136059335254E+04    0.17357E-02   -0.79792E-03  2344   0.178E-01    0.104E-01
DAV:   6    -0.136059360530E+04   -0.25277E-03   -0.40996E-03  2496   0.121E-01    0.890E-02
DAV:   7    -0.136059356918E+04    0.36125E-04   -0.15162E-03  2520   0.749E-02    0.582E-02
DAV:   8    -0.136059356731E+04    0.18677E-05   -0.62048E-04  2592   0.472E-02    0.325E-02
DAV:   9    -0.136059356257E+04    0.47365E-05   -0.10061E-04  2456   0.225E-02    0.245E-02
DAV:  10    -0.136059356359E+04   -0.10211E-05   -0.67260E-05  2528   0.152E-02    0.134E-02
DAV:  11    -0.136059356331E+04    0.28667E-06   -0.22382E-05  2280   0.105E-02    0.616E-03
DAV:  12    -0.136059356364E+04   -0.33622E-06   -0.67665E-06  1648   0.679E-03
  13 F= -.13605936E+04 E0= -.13605936E+04  d E =-.351723E+00
 BRION: g(F)=  0.172E+00 g(S)=  0.000E+00 retain N= 10 mean eig= 2.73
 eig:   7.407  7.407  2.574  2.574  1.939  1.939  0.919  0.919  0.828  0.828
 bond charge predicted
       N       E                     dE             d eps       ncg     rms          rms(c)
DAV:   1    -0.136053257376E+04    0.60990E-01   -0.11658E+02  1392   0.155E+01    0.187E+00
DAV:   2    -0.136115046436E+04   -0.61789E+00   -0.65706E+00  2296   0.616E+00    0.946E-01
DAV:   3    -0.136118602917E+04   -0.35565E-01   -0.52375E-01  2592   0.122E+00    0.777E-01
DAV:   4    -0.136117777519E+04    0.82540E-02   -0.51496E-02  2600   0.542E-01    0.557E-01
DAV:   5    -0.136116881972E+04    0.89555E-02   -0.27503E-02  2344   0.334E-01    0.217E-01
DAV:   6    -0.136116941277E+04   -0.59305E-03   -0.19745E-02  2400   0.255E-01    0.170E-01
DAV:   7    -0.136116936363E+04    0.49147E-04   -0.72311E-03  2416   0.157E-01    0.123E-01
DAV:   8    -0.136116932510E+04    0.38523E-04   -0.26471E-03  2592   0.986E-02    0.659E-02
DAV:   9    -0.136116930479E+04    0.20317E-04   -0.57613E-04  2472   0.496E-02    0.455E-02
DAV:  10    -0.136116931353E+04   -0.87406E-05   -0.19415E-04  2512   0.271E-02    0.287E-02
DAV:  11    -0.136116931203E+04    0.15014E-05   -0.90226E-05  2568   0.194E-02    0.156E-02
DAV:  12    -0.136116931245E+04   -0.42381E-06   -0.44977E-05  2376   0.147E-02    0.130E-02
DAV:  13    -0.136116931162E+04    0.83362E-06   -0.25391E-05  2176   0.917E-03    0.700E-03
DAV:  14    -0.136116931155E+04    0.63301E-07   -0.79593E-06  1696   0.600E-03
  14 F= -.13611693E+04 E0= -.13611693E+04  d E =-.575748E+00
 BRION: g(F)=  0.124E+00 g(S)=  0.000E+00 retain N=  6 mean eig= 4.00
 eig:   7.235  7.235  3.203  3.203  1.733  1.398
 bond charge predicted
       N       E                     dE             d eps       ncg     rms          rms(c)
DAV:   1    -0.136120174284E+04   -0.32431E-01   -0.56093E+01  1392   0.107E+01    0.130E+00
DAV:   2    -0.136149649368E+04   -0.29475E+00   -0.31437E+00  2288   0.424E+00    0.653E-01
DAV:   3    -0.136151367986E+04   -0.17186E-01   -0.25647E-01  2592   0.847E-01    0.535E-01
DAV:   4    -0.136150943934E+04    0.42405E-02   -0.25757E-02  2600   0.381E-01    0.374E-01
DAV:   5    -0.136150558295E+04    0.38564E-02   -0.12743E-02  2336   0.225E-01    0.150E-01
DAV:   6    -0.136150576675E+04   -0.18380E-03   -0.83956E-03  2408   0.166E-01    0.111E-01
DAV:   7    -0.136150576879E+04   -0.20388E-05   -0.33169E-03  2456   0.108E-01    0.818E-02
DAV:   8    -0.136150576365E+04    0.51389E-05   -0.12885E-03  2600   0.676E-02    0.501E-02
DAV:   9    -0.136150574806E+04    0.15592E-04   -0.27715E-04  2520   0.347E-02    0.342E-02
DAV:  10    -0.136150574966E+04   -0.16054E-05   -0.11630E-04  2576   0.204E-02    0.197E-02
DAV:  11    -0.136150575052E+04   -0.85474E-06   -0.38974E-05  2472   0.133E-02    0.113E-02
DAV:  12    -0.136150575008E+04    0.44392E-06   -0.20688E-05  2240   0.100E-02    0.829E-03
DAV:  13    -0.136150574986E+04    0.21172E-06   -0.12702E-05  1784   0.682E-03    0.435E-03
DAV:  14    -0.136150574972E+04    0.14176E-06   -0.21301E-06  1008   0.483E-03
  15 F= -.13615057E+04 E0= -.13615057E+04  d E =-.336438E+00
 BRION: g(F)=  0.936E-01 g(S)=  0.000E+00 retain N=  3 mean eig= 3.84
 eig:   1.606  4.962  4.962
 bond charge predicted
       N       E                     dE             d eps       ncg     rms          rms(c)
DAV:   1    -0.136157969258E+04   -0.73943E-01   -0.13195E+01  1384   0.521E+00    0.635E-01
DAV:   2    -0.136164912082E+04   -0.69428E-01   -0.74093E-01  2320   0.211E+00    0.325E-01
DAV:   3    -0.136165288042E+04   -0.37596E-02   -0.58087E-02  2600   0.406E-01    0.262E-01
DAV:   4    -0.136165178825E+04    0.10922E-02   -0.59964E-03  2600   0.185E-01    0.178E-01
DAV:   5    -0.136165097743E+04    0.81082E-03   -0.33273E-03  2288   0.113E-01    0.667E-02
DAV:   6    -0.136165107663E+04   -0.99202E-04   -0.19013E-03  2488   0.800E-02    0.587E-02
DAV:   7    -0.136165106457E+04    0.12063E-04   -0.72437E-04  2488   0.503E-02    0.392E-02
DAV:   8    -0.136165106099E+04    0.35787E-05   -0.26604E-04  2560   0.311E-02    0.214E-02
DAV:   9    -0.136165105920E+04    0.17894E-05   -0.46386E-05  2456   0.149E-02    0.158E-02
DAV:  10    -0.136165105965E+04   -0.44990E-06   -0.28053E-05  2240   0.100E-02    0.859E-03
DAV:  11    -0.136165105932E+04    0.33341E-06   -0.85126E-06  1632   0.746E-03
  16 F= -.13616511E+04 E0= -.13616511E+04  d E =-.145310E+00
 BRION: g(F)=  0.831E-01 g(S)=  0.000E+00 retain N=  4 mean eig= 3.87
 eig:   6.296  6.296  1.448  1.448
 bond charge predicted
       N       E                     dE             d eps       ncg     rms          rms(c)
DAV:   1    -0.136171672410E+04   -0.65664E-01   -0.12143E+01  1384   0.499E+00    0.595E-01
DAV:   2    -0.136178007117E+04   -0.63347E-01   -0.67517E-01  2320   0.200E+00    0.310E-01
DAV:   3    -0.136178357037E+04   -0.34992E-02   -0.53615E-02  2592   0.384E-01    0.249E-01
DAV:   4    -0.136178257837E+04    0.99200E-03   -0.54745E-03  2592   0.175E-01    0.170E-01
DAV:   5    -0.136178182937E+04    0.74901E-03   -0.28220E-03  2328   0.105E-01    0.662E-02
DAV:   6    -0.136178188710E+04   -0.57736E-04   -0.16499E-03  2432   0.741E-02    0.493E-02
DAV:   7    -0.136178188909E+04   -0.19875E-05   -0.61475E-04  2432   0.470E-02    0.345E-02
DAV:   8    -0.136178188968E+04   -0.58580E-06   -0.25048E-04  2568   0.295E-02    0.212E-02
DAV:   9    -0.136178188735E+04    0.23216E-05   -0.47328E-05  2480   0.152E-02    0.155E-02
DAV:  10    -0.136178188702E+04    0.33650E-06   -0.27865E-05  2352   0.988E-03    0.800E-03
DAV:  11    -0.136178188685E+04    0.16975E-06   -0.59717E-06  1416   0.692E-03
  17 F= -.13617819E+04 E0= -.13617819E+04  d E =-.130828E+00
 BRION: g(F)=  0.718E-01 g(S)=  0.000E+00 retain N=  3 mean eig= 3.59
 eig:   4.725  4.725  1.317
 bond charge predicted
       N       E                     dE             d eps       ncg     rms          rms(c)
DAV:   1    -0.136174228874E+04    0.39598E-01   -0.48975E+01  1376   0.999E+00    0.117E+00
DAV:   2    -0.136199917778E+04   -0.25689E+00   -0.27333E+00  2280   0.404E+00    0.604E-01
DAV:   3    -0.136201449778E+04   -0.15320E-01   -0.22379E-01  2584   0.799E-01    0.487E-01
DAV:   4    -0.136201120361E+04    0.32942E-02   -0.21547E-02  2568   0.348E-01    0.347E-01
DAV:   5    -0.136200812602E+04    0.30776E-02   -0.10028E-02  2360   0.200E-01    0.151E-01
DAV:   6    -0.136200807952E+04    0.46503E-04   -0.71141E-03  2344   0.157E-01    0.915E-02
DAV:   7    -0.136200817688E+04   -0.97358E-04   -0.32047E-03  2456   0.104E-01    0.779E-02
DAV:   8    -0.136200816111E+04    0.15766E-04   -0.10447E-03  2592   0.634E-02    0.491E-02
DAV:   9    -0.136200814575E+04    0.15358E-04   -0.29263E-04  2544   0.339E-02    0.305E-02
DAV:  10    -0.136200814881E+04   -0.30573E-05   -0.10246E-04  2600   0.198E-02    0.185E-02
DAV:  11    -0.136200814964E+04   -0.83378E-06   -0.31345E-05  2440   0.120E-02    0.109E-02
DAV:  12    -0.136200814898E+04    0.66456E-06   -0.23222E-05  2216   0.990E-03    0.778E-03
DAV:  13    -0.136200814881E+04    0.16841E-06   -0.11507E-05  1864   0.675E-03    0.465E-03
DAV:  14    -0.136200814870E+04    0.10857E-06   -0.23982E-06  1080   0.451E-03
  18 F= -.13620081E+04 E0= -.13620081E+04  d E =-.226262E+00
 BRION: g(F)=  0.563E-01 g(S)=  0.000E+00 retain N=  3 mean eig= 4.32
 eig:   5.819  5.819  1.321
 bond charge predicted
       N       E                     dE             d eps       ncg     rms          rms(c)
DAV:   1    -0.136204848340E+04   -0.40335E-01   -0.70248E+00  1392   0.383E+00    0.443E-01
DAV:   2    -0.136208552407E+04   -0.37041E-01   -0.39286E-01  2312   0.156E+00    0.225E-01
DAV:   3    -0.136208792844E+04   -0.24044E-02   -0.32331E-02  2608   0.299E-01    0.182E-01
DAV:   4    -0.136208755993E+04    0.36851E-03   -0.28373E-03  2600   0.132E-01    0.134E-01
DAV:   5    -0.136208717414E+04    0.38579E-03   -0.15843E-03  2320   0.768E-02    0.530E-02
DAV:   6    -0.136208721440E+04   -0.40269E-04   -0.97705E-04  2416   0.574E-02    0.414E-02
DAV:   7    -0.136208721283E+04    0.15752E-05   -0.45145E-04  2464   0.393E-02    0.278E-02
DAV:   8    -0.136208721210E+04    0.73209E-06   -0.15022E-04  2544   0.246E-02    0.177E-02
DAV:   9    -0.136208721008E+04    0.20184E-05   -0.30186E-05  2456   0.117E-02    0.121E-02
DAV:  10    -0.136208721015E+04   -0.71072E-07   -0.11978E-05  1896   0.703E-03    0.566E-03
DAV:  11    -0.136208721025E+04   -0.10458E-06   -0.17643E-06  1024   0.496E-03
  19 F= -.13620872E+04 E0= -.13620872E+04  d E =-.790616E-01
 BRION: g(F)=  0.494E-01 g(S)=  0.000E+00 retain N=  3 mean eig= 3.37
 eig:   1.249  4.430  4.430
 bond charge predicted
       N       E                     dE             d eps       ncg     rms          rms(c)
DAV:   1    -0.136212748827E+04   -0.40278E-01   -0.81378E+00  1384   0.410E+00    0.460E-01
DAV:   2    -0.136216943104E+04   -0.41943E-01   -0.44241E-01  2312   0.164E+00    0.236E-01
DAV:   3    -0.136217213791E+04   -0.27069E-02   -0.35745E-02  2592   0.308E-01    0.188E-01
DAV:   4    -0.136217175134E+04    0.38657E-03   -0.30806E-03  2592   0.136E-01    0.140E-01
DAV:   5    -0.136217128978E+04    0.46156E-03   -0.15759E-03  2328   0.812E-02    0.571E-02
DAV:   6    -0.136217132181E+04   -0.32039E-04   -0.11867E-03  2376   0.645E-02    0.397E-02
DAV:   7    -0.136217133068E+04   -0.88667E-05   -0.49974E-04  2440   0.414E-02    0.296E-02
DAV:   8    -0.136217132911E+04    0.15741E-05   -0.14997E-04  2560   0.242E-02    0.169E-02
DAV:   9    -0.136217132692E+04    0.21879E-05   -0.37429E-05  2360   0.127E-02    0.112E-02
DAV:  10    -0.136217132727E+04   -0.34650E-06   -0.14145E-05  2032   0.761E-03    0.612E-03
DAV:  11    -0.136217132711E+04    0.15991E-06   -0.15961E-06   968   0.524E-03
  20 F= -.13621713E+04 E0= -.13621713E+04  d E =-.841169E-01
 BRION: g(F)=  0.467E-01 g(S)=  0.000E+00 retain N=  4 mean eig= 4.45
 eig:   7.377  7.377  1.522  1.522
