 running on  160 total cores
 distrk:  each k-point on  160 cores,    1 groups
 distr:  one band on   20 cores,    8 groups
 using from now: INCAR     
 vasp.5.4.4.18Apr17-6-g9f103f2a35 (build May 01 2020 14:22:42) gamma-only       
  
 POSCAR found type information on POSCAR  O  La Zr Li Al
 POSCAR found :  5 types and     186 ions
 scaLAPACK will be used
 LDA part: xc-table for Pade appr. of Perdew
 POSCAR, INCAR and KPOINTS ok, starting setup
 FFT: planning ...
 WAVECAR not read
 WARNING: random wavefunctions but no delay for mixing, default for NELMDL
 entering main loop
       N       E                     dE             d eps       ncg     rms          rms(c)
DAV:   1     0.252604275650E+05    0.25260E+05   -0.42234E+05  1624   0.253E+03
DAV:   2     0.944108892967E+04   -0.15819E+05   -0.14585E+05  1424   0.706E+02
DAV:   3     0.269408780214E+04   -0.67470E+04   -0.61538E+04  1520   0.356E+02
DAV:   4    -0.318084837466E+03   -0.30122E+04   -0.28086E+04  2032   0.222E+02
DAV:   5    -0.138052261851E+04   -0.10624E+04   -0.10187E+04  2536   0.141E+02    0.116E+02
DAV:   6    -0.128353260568E+04    0.96990E+02   -0.15029E+03  2464   0.668E+01    0.502E+01
DAV:   7    -0.130692776330E+04   -0.23395E+02   -0.43439E+02  2552   0.352E+01    0.291E+01
DAV:   8    -0.130698689862E+04   -0.59135E-01   -0.18414E+02  2544   0.257E+01    0.197E+01
DAV:   9    -0.130918222600E+04   -0.21953E+01   -0.35857E+01  2560   0.129E+01    0.126E+01
DAV:  10    -0.130729656651E+04    0.18857E+01   -0.15501E+01  2600   0.711E+00    0.694E+00
DAV:  11    -0.130719623922E+04    0.10033E+00   -0.60306E+00  2624   0.457E+00    0.455E+00
DAV:  12    -0.130755978489E+04   -0.36355E+00   -0.27186E+00  2608   0.292E+00    0.827E+00
DAV:  13    -0.130741808630E+04    0.14170E+00   -0.12889E+00  2512   0.172E+00    0.398E+00
DAV:  14    -0.130730469595E+04    0.11339E+00   -0.98915E-01  2496   0.141E+00    0.228E+00
DAV:  15    -0.130722069801E+04    0.83998E-01   -0.81033E-01  2400   0.132E+00    0.123E+00
DAV:  16    -0.130722508110E+04   -0.43831E-02   -0.11261E-01  2496   0.744E-01    0.890E-01
DAV:  17    -0.130722230318E+04    0.27779E-02   -0.18017E-02  2608   0.265E-01    0.514E-01
DAV:  18    -0.130722024425E+04    0.20589E-02   -0.19701E-02  2504   0.225E-01    0.274E-01
DAV:  19    -0.130722019529E+04    0.48957E-04   -0.32548E-03  2536   0.125E-01    0.169E-01
DAV:  20    -0.130722005741E+04    0.13789E-03   -0.15470E-03  2488   0.632E-02    0.111E-01
DAV:  21    -0.130721996945E+04    0.87959E-04   -0.11711E-03  2424   0.603E-02    0.523E-02
DAV:  22    -0.130721997343E+04   -0.39840E-05   -0.24083E-04  2480   0.304E-02    0.351E-02
DAV:  23    -0.130721997156E+04    0.18687E-05   -0.90814E-05  2528   0.175E-02    0.208E-02
DAV:  24    -0.130721997237E+04   -0.80571E-06   -0.16930E-05  1992   0.946E-03    0.127E-02
DAV:  25    -0.130721997122E+04    0.11458E-05   -0.18359E-05  1760   0.737E-03    0.609E-03
DAV:  26    -0.130721997239E+04   -0.11642E-05   -0.26200E-06  1056   0.514E-03    0.418E-03
DAV:  27    -0.130721997255E+04   -0.16559E-06   -0.49047E-06  1224   0.491E-03
   1 F= -.13072200E+04 E0= -.13071532E+04  d E =-.130722E+04
 BRION: g(F)=  0.946E+02 g(S)=  0.000E+00
 bond charge predicted
       N       E                     dE             d eps       ncg     rms          rms(c)
DAV:   1    -0.122593398011E+04    0.81286E+02   -0.12284E+04  1776   0.170E+02    0.406E+01
DAV:   2    -0.133518680049E+04   -0.10925E+03   -0.12410E+03  2584   0.786E+01    0.201E+01
DAV:   3    -0.133194107492E+04    0.32457E+01   -0.74140E+01  2616   0.216E+01    0.128E+01
DAV:   4    -0.132852342040E+04    0.34177E+01   -0.28483E+01  2432   0.108E+01    0.622E+00
DAV:   5    -0.132847252942E+04    0.50891E-01   -0.84947E+00  2560   0.610E+00    0.451E+00
DAV:   6    -0.132834751168E+04    0.12502E+00   -0.46957E+00  2600   0.377E+00    0.242E+00
DAV:   7    -0.132830439830E+04    0.43113E-01   -0.68239E-01  2544   0.218E+00    0.150E+00
DAV:   8    -0.132831783570E+04   -0.13437E-01   -0.85462E-01  2504   0.155E+00    0.107E+00
DAV:   9    -0.132831444003E+04    0.33957E-02   -0.13549E-01  2528   0.774E-01    0.800E-01
DAV:  10    -0.132831037015E+04    0.40699E-02   -0.79954E-02  2608   0.469E-01    0.322E-01
DAV:  11    -0.132831138214E+04   -0.10120E-02   -0.27503E-02  2616   0.295E-01    0.197E-01
DAV:  12    -0.132831158251E+04   -0.20037E-03   -0.46505E-03  2408   0.146E-01    0.136E-01
DAV:  13    -0.132831144601E+04    0.13650E-03   -0.30753E-03  2448   0.942E-02    0.357E-02
DAV:  14    -0.132831150821E+04   -0.62207E-04   -0.68748E-04  2584   0.517E-02    0.251E-02
DAV:  15    -0.132831152368E+04   -0.15462E-04   -0.14625E-04  2624   0.237E-02    0.170E-02
DAV:  16    -0.132831152253E+04    0.11470E-05   -0.79528E-05  2616   0.171E-02    0.106E-02
DAV:  17    -0.132831152630E+04   -0.37689E-05   -0.27951E-05  2240   0.108E-02    0.824E-03
DAV:  18    -0.132831152622E+04    0.80254E-07   -0.59641E-06  1112   0.509E-03
   2 F= -.13283115E+04 E0= -.13283115E+04  d E =-.210916E+02
 BRION: g(F)=  0.194E+03 g(S)=  0.000E+00 retain N=  1 mean eig= 0.38
 eig:   0.381
 bond charge predicted
       N       E                     dE             d eps       ncg     rms          rms(c)
DAV:   1    -0.130421849820E+04    0.24093E+02   -0.39247E+03  1368   0.815E+01    0.280E+01
DAV:   2    -0.134947607951E+04   -0.45258E+02   -0.58151E+02  2520   0.412E+01    0.242E+01
DAV:   3    -0.134477415028E+04    0.47019E+01   -0.54954E+01  2576   0.162E+01    0.176E+01
DAV:   4    -0.134138791400E+04    0.33862E+01   -0.50642E+01  2144   0.871E+00    0.830E+00
DAV:   5    -0.134254135882E+04   -0.11534E+01   -0.12689E+01  2424   0.540E+00    0.101E+01
DAV:   6    -0.134070523934E+04    0.18361E+01   -0.13695E+01  2432   0.450E+00    0.186E+00
DAV:   7    -0.134084566286E+04   -0.14042E+00   -0.20172E+00  2360   0.308E+00    0.131E+00
DAV:   8    -0.134084198946E+04    0.36734E-02   -0.31829E-01  2616   0.102E+00    0.853E-01
DAV:   9    -0.134083472180E+04    0.72677E-02   -0.10061E-01  2608   0.583E-01    0.374E-01
DAV:  10    -0.134083574184E+04   -0.10200E-02   -0.26045E-02  2544   0.326E-01    0.170E-01
DAV:  11    -0.134083577210E+04   -0.30262E-04   -0.54735E-03  2624   0.160E-01    0.115E-01
DAV:  12    -0.134083578161E+04   -0.95147E-05   -0.28898E-03  2608   0.954E-02    0.571E-02
DAV:  13    -0.134083580589E+04   -0.24274E-04   -0.73159E-04  2592   0.597E-02    0.457E-02
DAV:  14    -0.134083580239E+04    0.34972E-05   -0.37436E-04  2624   0.358E-02    0.278E-02
DAV:  15    -0.134083580213E+04    0.26362E-06   -0.13777E-04  2600   0.236E-02    0.155E-02
DAV:  16    -0.134083580287E+04   -0.74468E-06   -0.41801E-05  2560   0.126E-02    0.776E-03
DAV:  17    -0.134083580300E+04   -0.12509E-06   -0.12540E-05  2120   0.784E-03    0.413E-03
DAV:  18    -0.134083580303E+04   -0.33411E-07   -0.17798E-06  1048   0.458E-03
   3 F= -.13408358E+04 E0= -.13408358E+04  d E =-.125243E+02
 BRION: g(F)=  0.351E+02 g(S)=  0.000E+00 retain N=  2 mean eig= 1.59
 eig:   0.236  2.939
 bond charge predicted
       N       E                     dE             d eps       ncg     rms          rms(c)
DAV:   1    -0.133814975583E+04    0.26860E+01   -0.11136E+03  1384   0.389E+01    0.114E+01
DAV:   2    -0.134765755068E+04   -0.95078E+01   -0.11541E+02  2488   0.206E+01    0.758E+00
DAV:   3    -0.134696278675E+04    0.69476E+00   -0.78740E+00  2448   0.680E+00    0.581E+00
DAV:   4    -0.134651838950E+04    0.44440E+00   -0.62235E+00  2184   0.338E+00    0.251E+00
DAV:   5    -0.134654161320E+04   -0.23224E-01   -0.10770E+00  2408   0.199E+00    0.266E+00
DAV:   6    -0.134642425782E+04    0.11736E+00   -0.72532E-01  2392   0.166E+00    0.983E-01
DAV:   7    -0.134643825598E+04   -0.13998E-01   -0.48204E-01  2400   0.107E+00    0.896E-01
DAV:   8    -0.134643757489E+04    0.68110E-03   -0.87512E-02  2576   0.526E-01    0.767E-01
DAV:   9    -0.134642856239E+04    0.90125E-02   -0.35908E-02  2456   0.324E-01    0.312E-01
DAV:  10    -0.134642889774E+04   -0.33535E-03   -0.26717E-02  2432   0.236E-01    0.155E-01
DAV:  11    -0.134642860355E+04    0.29419E-03   -0.32962E-03  2536   0.125E-01    0.792E-02
DAV:  12    -0.134642864500E+04   -0.41450E-04   -0.12709E-03  2560   0.600E-02    0.279E-02
DAV:  13    -0.134642866352E+04   -0.18515E-04   -0.21931E-04  2608   0.292E-02    0.226E-02
DAV:  14    -0.134642866088E+04    0.26331E-05   -0.72039E-05  2592   0.175E-02    0.150E-02
DAV:  15    -0.134642866110E+04   -0.22228E-06   -0.38063E-05  2504   0.111E-02    0.652E-03
DAV:  16    -0.134642866076E+04    0.34714E-06   -0.46081E-06  1264   0.578E-03
   4 F= -.13464287E+04 E0= -.13464287E+04  d E =-.559286E+01
 BRION: g(F)=  0.815E+01 g(S)=  0.000E+00 retain N=  2 mean eig= 0.32
 eig:   0.322  0.322
 bond charge predicted
       N       E                     dE             d eps       ncg     rms          rms(c)
DAV:   1    -0.134837900422E+04   -0.19503E+01   -0.34118E+02  1360   0.253E+01    0.406E+00
DAV:   2    -0.135014422676E+04   -0.17652E+01   -0.18844E+01  2272   0.924E+00    0.220E+00
DAV:   3    -0.135017501011E+04   -0.30783E-01   -0.12733E+00  2608   0.204E+00    0.190E+00
DAV:   4    -0.135011324811E+04    0.61762E-01   -0.29882E-01  2552   0.108E+00    0.101E+00
DAV:   5    -0.135009729226E+04    0.15956E-01   -0.16056E-01  2392   0.738E-01    0.625E-01
DAV:   6    -0.135009745864E+04   -0.16638E-03   -0.71040E-02  2512   0.528E-01    0.513E-01
DAV:   7    -0.135009476503E+04    0.26936E-02   -0.41531E-02  2416   0.343E-01    0.262E-01
DAV:   8    -0.135009471792E+04    0.47113E-04   -0.93697E-03  2536   0.182E-01    0.134E-01
DAV:   9    -0.135009456872E+04    0.14920E-03   -0.22084E-03  2600   0.889E-02    0.812E-02
DAV:  10    -0.135009467660E+04   -0.10789E-03   -0.15511E-03  2336   0.634E-02    0.734E-02
DAV:  11    -0.135009458774E+04    0.88860E-04   -0.42251E-04  2600   0.426E-02    0.308E-02
DAV:  12    -0.135009460928E+04   -0.21535E-04   -0.42615E-04  2504   0.319E-02    0.280E-02
DAV:  13    -0.135009459907E+04    0.10205E-04   -0.79426E-05  2424   0.184E-02    0.116E-02
DAV:  14    -0.135009460077E+04   -0.17014E-05   -0.39632E-05  2280   0.101E-02    0.518E-03
DAV:  15    -0.135009460090E+04   -0.12282E-06   -0.32586E-06  1104   0.521E-03
   5 F= -.13500946E+04 E0= -.13500946E+04  d E =-.366594E+01
 BRION: g(F)=  0.438E+01 g(S)=  0.000E+00 retain N=  3 mean eig= 0.41
 eig:   0.268  0.268  0.682
 bond charge predicted
       N       E                     dE             d eps       ncg     rms          rms(c)
DAV:   1    -0.135094607839E+04   -0.85148E+00   -0.22456E+02  1384   0.198E+01    0.314E+00
DAV:   2    -0.135203617108E+04   -0.10901E+01   -0.11562E+01  2288   0.730E+00    0.164E+00
DAV:   3    -0.135205490108E+04   -0.18730E-01   -0.73712E-01  2624   0.150E+00    0.134E+00
DAV:   4    -0.135201859399E+04    0.36307E-01   -0.16382E-01  2512   0.833E-01    0.685E-01
DAV:   5    -0.135201232642E+04    0.62676E-02   -0.69871E-02  2488   0.504E-01    0.389E-01
DAV:   6    -0.135201221711E+04    0.10931E-03   -0.29924E-02  2592   0.317E-01    0.202E-01
DAV:   7    -0.135201208867E+04    0.12844E-03   -0.74448E-03  2520   0.171E-01    0.135E-01
DAV:   8    -0.135201209411E+04   -0.54321E-05   -0.24890E-03  2608   0.899E-02    0.728E-02
DAV:   9    -0.135201205309E+04    0.41017E-04   -0.76897E-04  2624   0.562E-02    0.433E-02
DAV:  10    -0.135201207808E+04   -0.24994E-04   -0.37963E-04  2360   0.358E-02    0.379E-02
DAV:  11    -0.135201205891E+04    0.19173E-04   -0.15715E-04  2480   0.257E-02    0.141E-02
DAV:  12    -0.135201206350E+04   -0.45909E-05   -0.84305E-05  2432   0.164E-02    0.119E-02
DAV:  13    -0.135201206270E+04    0.80050E-06   -0.15598E-05  1960   0.873E-03    0.724E-03
DAV:  14    -0.135201206250E+04    0.20205E-06   -0.76308E-06  1632   0.575E-03
   6 F= -.13520121E+04 E0= -.13520121E+04  d E =-.191746E+01
 BRION: g(F)=  0.310E+01 g(S)=  0.000E+00 retain N=  4 mean eig= 0.42
 eig:   0.095  0.095  0.752  0.752
 bond charge predicted
       N       E                     dE             d eps       ncg     rms          rms(c)
DAV:   1    -0.135229694306E+04   -0.28488E+00   -0.38579E+02  1368   0.267E+01    0.404E+00
DAV:   2    -0.135424928019E+04   -0.19523E+01   -0.20455E+01  2288   0.991E+00    0.206E+00
DAV:   3    -0.135428498775E+04   -0.35708E-01   -0.13037E+00  2608   0.201E+00    0.168E+00
DAV:   4    -0.135422207773E+04    0.62910E-01   -0.29933E-01  2504   0.110E+00    0.837E-01
DAV:   5    -0.135421180301E+04    0.10275E-01   -0.10093E-01  2488   0.611E-01    0.467E-01
DAV:   6    -0.135421066328E+04    0.11397E-02   -0.43354E-02  2528   0.369E-01    0.188E-01
DAV:   7    -0.135421103055E+04   -0.36727E-03   -0.12203E-02  2368   0.221E-01    0.150E-01
DAV:   8    -0.135421108918E+04   -0.58628E-04   -0.34850E-03  2480   0.997E-02    0.973E-02
DAV:   9    -0.135421103084E+04    0.58339E-04   -0.17038E-03  2616   0.757E-02    0.513E-02
DAV:  10    -0.135421105318E+04   -0.22343E-04   -0.50966E-04  2496   0.457E-02    0.384E-02
DAV:  11    -0.135421104500E+04    0.81797E-05   -0.28783E-04  2544   0.310E-02    0.166E-02
DAV:  12    -0.135421104847E+04   -0.34681E-05   -0.74508E-05  2384   0.176E-02    0.101E-02
DAV:  13    -0.135421104944E+04   -0.97117E-06   -0.29468E-05  2280   0.986E-03    0.739E-03
DAV:  14    -0.135421104947E+04   -0.23399E-07   -0.89221E-06  1728   0.672E-03
   7 F= -.13542110E+04 E0= -.13542110E+04  d E =-.219899E+01
 BRION: g(F)=  0.146E+01 g(S)=  0.000E+00 retain N=  5 mean eig= 0.83
 eig:   1.597  1.597  0.063  0.063  0.844
 bond charge predicted
       N       E                     dE             d eps       ncg     rms          rms(c)
DAV:   1    -0.135465464084E+04   -0.44359E+00   -0.11512E+02  1384   0.153E+01    0.229E+00
DAV:   2    -0.135522084381E+04   -0.56620E+00   -0.59914E+00  2288   0.570E+00    0.114E+00
DAV:   3    -0.135524325442E+04   -0.22411E-01   -0.45388E-01  2616   0.117E+00    0.899E-01
DAV:   4    -0.135522942735E+04    0.13827E-01   -0.75533E-02  2504   0.594E-01    0.483E-01
DAV:   5    -0.135522691060E+04    0.25167E-02   -0.29437E-02  2456   0.344E-01    0.241E-01
DAV:   6    -0.135522739329E+04   -0.48269E-03   -0.12041E-02  2600   0.208E-01    0.141E-01
DAV:   7    -0.135522726197E+04    0.13132E-03   -0.33992E-03  2304   0.119E-01    0.959E-02
DAV:   8    -0.135522732517E+04   -0.63202E-04   -0.19387E-03  2368   0.756E-02    0.632E-02
DAV:   9    -0.135522728101E+04    0.44160E-04   -0.35143E-04  2544   0.436E-02    0.425E-02
DAV:  10    -0.135522728533E+04   -0.43148E-05   -0.55888E-04  2472   0.389E-02    0.309E-02
DAV:  11    -0.135522727501E+04    0.10319E-04   -0.12332E-04  2456   0.232E-02    0.138E-02
DAV:  12    -0.135522727757E+04   -0.25679E-05   -0.52249E-05  2384   0.131E-02    0.814E-03
DAV:  13    -0.135522727699E+04    0.58288E-06   -0.52102E-06  1360   0.671E-03
   8 F= -.13552273E+04 E0= -.13552273E+04  d E =-.101623E+01
 BRION: g(F)=  0.750E+00 g(S)=  0.000E+00 retain N=  6 mean eig= 0.91
 eig:   1.828  1.828  0.894  0.077  0.293  0.537
 bond charge predicted
       N       E                     dE             d eps       ncg     rms          rms(c)
DAV:   1    -0.135553360236E+04   -0.30632E+00   -0.79237E+01  1392   0.128E+01    0.174E+00
DAV:   2    -0.135592523018E+04   -0.39163E+00   -0.41648E+00  2288   0.485E+00    0.863E-01
DAV:   3    -0.135594454206E+04   -0.19312E-01   -0.32334E-01  2616   0.983E-01    0.692E-01
DAV:   4    -0.135593669468E+04    0.78474E-02   -0.42094E-02  2584   0.471E-01    0.410E-01
DAV:   5    -0.135593392707E+04    0.27676E-02   -0.20242E-02  2360   0.289E-01    0.174E-01
DAV:   6    -0.135593449792E+04   -0.57084E-03   -0.93959E-03  2568   0.186E-01    0.140E-01
DAV:   7    -0.135593439647E+04    0.10145E-03   -0.29292E-03  2536   0.106E-01    0.939E-02
DAV:   8    -0.135593436934E+04    0.27127E-04   -0.12450E-03  2608   0.656E-02    0.482E-02
DAV:   9    -0.135593435852E+04    0.10825E-04   -0.20082E-04  2576   0.332E-02    0.323E-02
DAV:  10    -0.135593436712E+04   -0.86058E-05   -0.18395E-04  2392   0.236E-02    0.232E-02
DAV:  11    -0.135593436288E+04    0.42391E-05   -0.52560E-05  2464   0.164E-02    0.982E-03
DAV:  12    -0.135593436481E+04   -0.19294E-05   -0.29775E-05  2264   0.974E-03    0.953E-03
DAV:  13    -0.135593436348E+04    0.13373E-05   -0.60418E-06  1424   0.636E-03    0.460E-03
DAV:  14    -0.135593436377E+04   -0.28923E-06   -0.77250E-06  1520   0.603E-03
   9 F= -.13559344E+04 E0= -.13559344E+04  d E =-.707087E+00
 BRION: g(F)=  0.666E+00 g(S)=  0.000E+00 retain N=  7 mean eig= 0.97
 eig:   2.444  2.444  0.529  0.190  0.221  0.221  0.742
 bond charge predicted
       N       E                     dE             d eps       ncg     rms          rms(c)
DAV:   1    -0.135621154838E+04   -0.27718E+00   -0.92105E+01  1392   0.137E+01    0.173E+00
DAV:   2    -0.135668467169E+04   -0.47312E+00   -0.50170E+00  2304   0.537E+00    0.871E-01
DAV:   3    -0.135670923489E+04   -0.24563E-01   -0.38871E-01  2608   0.105E+00    0.702E-01
DAV:   4    -0.135670135284E+04    0.78820E-02   -0.44257E-02  2608   0.493E-01    0.449E-01
DAV:   5    -0.135669709507E+04    0.42578E-02   -0.20944E-02  2368   0.285E-01    0.179E-01
DAV:   6    -0.135669761994E+04   -0.52487E-03   -0.10106E-02  2496   0.193E-01    0.135E-01
DAV:   7    -0.135669758661E+04    0.33326E-04   -0.40846E-03  2488   0.124E-01    0.941E-02
DAV:   8    -0.135669759923E+04   -0.12617E-04   -0.17374E-03  2616   0.777E-02    0.579E-02
DAV:   9    -0.135669757854E+04    0.20684E-04   -0.31703E-04  2536   0.387E-02    0.420E-02
DAV:  10    -0.135669757939E+04   -0.85027E-06   -0.21400E-04  2536   0.259E-02    0.243E-02
DAV:  11    -0.135669757825E+04    0.11470E-05   -0.83752E-05  2464   0.190E-02    0.111E-02
DAV:  12    -0.135669757903E+04   -0.78442E-06   -0.25382E-05  2280   0.118E-02    0.918E-03
DAV:  13    -0.135669757864E+04    0.39104E-06   -0.14864E-05  1864   0.726E-03    0.453E-03
DAV:  14    -0.135669757853E+04    0.10450E-06   -0.18082E-06  1008   0.495E-03
  10 F= -.13566976E+04 E0= -.13566976E+04  d E =-.763215E+00
 BRION: g(F)=  0.457E+00 g(S)=  0.000E+00 retain N=  8 mean eig= 1.64
 eig:   3.982  3.982  1.828  1.828  0.065  0.232  0.589  0.589
 bond charge predicted
       N       E                     dE             d eps       ncg     rms          rms(c)
DAV:   1    -0.135689136913E+04   -0.19379E+00   -0.83042E+01  1392   0.132E+01    0.163E+00
DAV:   2    -0.135732383997E+04   -0.43247E+00   -0.46229E+00  2296   0.522E+00    0.842E-01
DAV:   3    -0.135734842774E+04   -0.24588E-01   -0.36790E-01  2608   0.103E+00    0.682E-01
DAV:   4    -0.135734171774E+04    0.67100E-02   -0.39593E-02  2600   0.477E-01    0.449E-01
DAV:   5    -0.135733756889E+04    0.41489E-02   -0.21620E-02  2328   0.286E-01    0.169E-01
DAV:   6    -0.135733830588E+04   -0.73700E-03   -0.10459E-02  2552   0.193E-01    0.150E-01
DAV:   7    -0.135733819380E+04    0.11208E-03   -0.40751E-03  2544   0.123E-01    0.949E-02
DAV:   8    -0.135733817105E+04    0.22753E-04   -0.14436E-03  2616   0.749E-02    0.517E-02
DAV:   9    -0.135733816199E+04    0.90654E-05   -0.23831E-04  2544   0.346E-02    0.377E-02
DAV:  10    -0.135733816813E+04   -0.61460E-05   -0.16317E-04  2480   0.229E-02    0.201E-02
DAV:  11    -0.135733816706E+04    0.10732E-05   -0.49938E-05  2512   0.159E-02    0.879E-03
DAV:  12    -0.135733816880E+04   -0.17402E-05   -0.22670E-05  2312   0.961E-03    0.890E-03
DAV:  13    -0.135733816760E+04    0.12034E-05   -0.49416E-06  1328   0.599E-03    0.433E-03
DAV:  14    -0.135733816809E+04   -0.49814E-06   -0.96188E-06  1584   0.637E-03
  11 F= -.13573382E+04 E0= -.13573382E+04  d E =-.640590E+00
 BRION: g(F)=  0.281E+00 g(S)=  0.000E+00 retain N=  9 mean eig= 2.24
 eig:   5.732  5.732  3.026  3.026  0.900  0.900  0.085  0.240  0.535
 bond charge predicted
       N       E                     dE             d eps       ncg     rms          rms(c)
DAV:   1    -0.135739808543E+04   -0.59918E-01   -0.10114E+02  1400   0.146E+01    0.172E+00
DAV:   2    -0.135794382342E+04   -0.54574E+00   -0.58170E+00  2304   0.598E+00    0.882E-01
DAV:   3    -0.135797591642E+04   -0.32093E-01   -0.46180E-01  2616   0.114E+00    0.720E-01
DAV:   4    -0.135796920718E+04    0.67092E-02   -0.44234E-02  2616   0.518E-01    0.514E-01
DAV:   5    -0.135796268039E+04    0.65268E-02   -0.21577E-02  2376   0.293E-01    0.211E-01
DAV:   6    -0.135796299636E+04   -0.31598E-03   -0.15430E-02  2384   0.232E-01    0.144E-01
DAV:   7    -0.135796311125E+04   -0.11489E-03   -0.70454E-03  2408   0.154E-01    0.115E-01
DAV:   8    -0.135796307564E+04    0.35610E-04   -0.20973E-03  2616   0.920E-02    0.660E-02
DAV:   9    -0.135796304826E+04    0.27376E-04   -0.59928E-04  2512   0.489E-02    0.430E-02
DAV:  10    -0.135796306076E+04   -0.12495E-04   -0.20764E-04  2552   0.282E-02    0.289E-02
DAV:  11    -0.135796306142E+04   -0.65879E-06   -0.10551E-04  2472   0.207E-02    0.173E-02
DAV:  12    -0.135796306019E+04    0.12248E-05   -0.52091E-05  2312   0.161E-02    0.143E-02
DAV:  13    -0.135796305900E+04    0.11902E-05   -0.33989E-05  2248   0.105E-02    0.751E-03
DAV:  14    -0.135796305897E+04    0.31097E-07   -0.10256E-05  1768   0.628E-03    0.333E-03
DAV:  15    -0.135796305897E+04   -0.55297E-09   -0.12757E-06   944   0.405E-03
  12 F= -.13579631E+04 E0= -.13579631E+04  d E =-.624891E+00
 BRION: g(F)=  0.208E+00 g(S)=  0.000E+00 retain N= 10 mean eig= 2.60
 eig:   6.091  6.091  4.548  4.548  1.381  1.381  0.125  0.240  0.781  0.781
 bond charge predicted
       N       E                     dE             d eps       ncg     rms          rms(c)
DAV:   1    -0.135798714240E+04   -0.24083E-01   -0.83029E+01  1392   0.133E+01    0.154E+00
DAV:   2    -0.135843445857E+04   -0.44732E+00   -0.47774E+00  2304   0.543E+00    0.789E-01
DAV:   3    -0.135846193876E+04   -0.27480E-01   -0.38527E-01  2608   0.104E+00    0.643E-01
DAV:   4    -0.135845699045E+04    0.49483E-02   -0.35846E-02  2616   0.468E-01    0.468E-01
DAV:   5    -0.135845186480E+04    0.51257E-02   -0.17534E-02  2368   0.262E-01    0.197E-01
DAV:   6    -0.135845199104E+04   -0.12624E-03   -0.12110E-02  2352   0.207E-01    0.129E-01
DAV:   7    -0.135845213246E+04   -0.14142E-03   -0.61473E-03  2456   0.141E-01    0.103E-01
DAV:   8    -0.135845209661E+04    0.35855E-04   -0.17078E-03  2616   0.857E-02    0.630E-02
DAV:   9    -0.135845207476E+04    0.21852E-04   -0.52704E-04  2560   0.449E-02    0.395E-02
DAV:  10    -0.135845208503E+04   -0.10277E-04   -0.15533E-04  2576   0.253E-02    0.263E-02
DAV:  11    -0.135845208673E+04   -0.16973E-05   -0.72866E-05  2536   0.173E-02    0.166E-02
DAV:  12    -0.135845208543E+04    0.12974E-05   -0.46114E-05  2392   0.145E-02    0.130E-02
DAV:  13    -0.135845208445E+04    0.98273E-06   -0.24383E-05  2224   0.929E-03    0.726E-03
DAV:  14    -0.135845208432E+04    0.12630E-06   -0.77835E-06  1680   0.564E-03
  13 F= -.13584521E+04 E0= -.13584521E+04  d E =-.489025E+00
 BRION: g(F)=  0.155E+00 g(S)=  0.000E+00 retain N= 11 mean eig= 3.08
 eig:   6.686  6.686  6.481  6.481  2.434  2.434  0.172  1.007  0.225  0.662
 bond charge predicted
       N       E                     dE             d eps       ncg     rms          rms(c)
DAV:   1    -0.135843344967E+04    0.18635E-01   -0.72540E+01  1392   0.123E+01    0.143E+00
DAV:   2    -0.135882111125E+04   -0.38766E+00   -0.41211E+00  2288   0.504E+00    0.727E-01
DAV:   3    -0.135884524674E+04   -0.24135E-01   -0.33215E-01  2616   0.953E-01    0.592E-01
DAV:   4    -0.135884118990E+04    0.40568E-02   -0.29302E-02  2624   0.426E-01    0.439E-01
DAV:   5    -0.135883646036E+04    0.47295E-02   -0.15168E-02  2352   0.246E-01    0.188E-01
DAV:   6    -0.135883655829E+04   -0.97932E-04   -0.11358E-02  2336   0.202E-01    0.127E-01
DAV:   7    -0.135883665645E+04   -0.98160E-04   -0.59582E-03  2424   0.137E-01    0.101E-01
DAV:   8    -0.135883661870E+04    0.37746E-04   -0.15944E-03  2616   0.827E-02    0.616E-02
DAV:   9    -0.135883659323E+04    0.25469E-04   -0.50250E-04  2560   0.435E-02    0.368E-02
DAV:  10    -0.135883660293E+04   -0.96952E-05   -0.14245E-04  2584   0.242E-02    0.244E-02
DAV:  11    -0.135883660522E+04   -0.22958E-05   -0.60685E-05  2512   0.160E-02    0.165E-02
DAV:  12    -0.135883660364E+04    0.15826E-05   -0.43818E-05  2320   0.141E-02    0.128E-02
DAV:  13    -0.135883660277E+04    0.86971E-06   -0.24503E-05  2224   0.937E-03    0.743E-03
DAV:  14    -0.135883660262E+04    0.15345E-06   -0.76255E-06  1712   0.548E-03
  14 F= -.13588366E+04 E0= -.13588366E+04  d E =-.384518E+00
 BRION: g(F)=  0.118E+00 g(S)=  0.000E+00 retain N=  7 mean eig= 3.69
 eig:   7.654  7.654  3.456  3.456  1.164  1.164  1.263
 bond charge predicted
       N       E                     dE             d eps       ncg     rms          rms(c)
DAV:   1    -0.135887370479E+04   -0.37102E-01   -0.38871E+01  1392   0.903E+00    0.104E+00
DAV:   2    -0.135907900891E+04   -0.20530E+00   -0.21834E+00  2320   0.365E+00    0.535E-01
DAV:   3    -0.135909161091E+04   -0.12602E-01   -0.17560E-01  2600   0.690E-01    0.431E-01
DAV:   4    -0.135908927527E+04    0.23356E-02   -0.15876E-02  2600   0.311E-01    0.313E-01
DAV:   5    -0.135908684899E+04    0.24263E-02   -0.86460E-03  2288   0.183E-01    0.127E-01
DAV:   6    -0.135908700277E+04   -0.15378E-03   -0.56771E-03  2368   0.141E-01    0.951E-02
DAV:   7    -0.135908702378E+04   -0.21009E-04   -0.27709E-03  2424   0.932E-02    0.688E-02
DAV:   8    -0.135908700899E+04    0.14793E-04   -0.82514E-04  2608   0.590E-02    0.414E-02
DAV:   9    -0.135908699930E+04    0.96833E-05   -0.20372E-04  2528   0.290E-02    0.271E-02
DAV:  10    -0.135908700237E+04   -0.30631E-05   -0.75481E-05  2576   0.167E-02    0.156E-02
DAV:  11    -0.135908700358E+04   -0.12098E-05   -0.30928E-05  2368   0.119E-02    0.967E-03
DAV:  12    -0.135908700333E+04    0.25003E-06   -0.16092E-05  2176   0.922E-03    0.842E-03
DAV:  13    -0.135908700283E+04    0.49877E-06   -0.95558E-06  1744   0.611E-03
  15 F= -.13590870E+04 E0= -.13590870E+04  d E =-.250400E+00
 BRION: g(F)=  0.103E+00 g(S)=  0.000E+00 retain N=  4 mean eig= 4.83
 eig:   7.669  7.669  1.981  1.981
 bond charge predicted
       N       E                     dE             d eps       ncg     rms          rms(c)
DAV:   1    -0.135914815293E+04   -0.61150E-01   -0.18087E+01  1376   0.606E+00    0.691E-01
DAV:   2    -0.135923953463E+04   -0.91382E-01   -0.96143E-01  2312   0.238E+00    0.359E-01
DAV:   3    -0.135924469979E+04   -0.51652E-02   -0.73517E-02  2592   0.445E-01    0.291E-01
DAV:   4    -0.135924353523E+04    0.11646E-02   -0.65753E-03  2608   0.195E-01    0.209E-01
DAV:   5    -0.135924231708E+04    0.12182E-02   -0.42600E-03  2176   0.131E-01    0.739E-02
DAV:   6    -0.135924250332E+04   -0.18625E-03   -0.28212E-03  2496   0.933E-02    0.741E-02
DAV:   7    -0.135924247800E+04    0.25330E-04   -0.88015E-04  2536   0.547E-02    0.497E-02
DAV:   8    -0.135924245715E+04    0.20843E-04   -0.30275E-04  2544   0.339E-02    0.242E-02
DAV:   9    -0.135924245408E+04    0.30751E-05   -0.55012E-05  2304   0.162E-02    0.162E-02
DAV:  10    -0.135924245515E+04   -0.10755E-05   -0.21523E-05  2280   0.949E-03    0.649E-03
DAV:  11    -0.135924245525E+04   -0.99448E-07   -0.19006E-06  1008   0.554E-03
  16 F= -.13592425E+04 E0= -.13592425E+04  d E =-.155452E+00
 BRION: g(F)=  0.907E-01 g(S)=  0.000E+00 retain N=  4 mean eig= 3.94
 eig:   6.286  6.286  1.596  1.596
 bond charge predicted
       N       E                     dE             d eps       ncg     rms          rms(c)
DAV:   1    -0.135929130069E+04   -0.48846E-01   -0.27840E+01  1384   0.757E+00    0.844E-01
DAV:   2    -0.135943472946E+04   -0.14343E+00   -0.15147E+00  2296   0.300E+00    0.435E-01
DAV:   3    -0.135944371632E+04   -0.89869E-02   -0.12194E-01  2600   0.570E-01    0.352E-01
DAV:   4    -0.135944225075E+04    0.14656E-02   -0.10080E-02  2608   0.246E-01    0.264E-01
DAV:   5    -0.135944030346E+04    0.19473E-02   -0.57303E-03  2248   0.152E-01    0.106E-01
DAV:   6    -0.135944040807E+04   -0.10461E-03   -0.43370E-03  2328   0.117E-01    0.788E-02
DAV:   7    -0.135944041839E+04   -0.10325E-04   -0.17239E-03  2432   0.740E-02    0.567E-02
DAV:   8    -0.135944040595E+04    0.12442E-04   -0.53288E-04  2544   0.468E-02    0.322E-02
DAV:   9    -0.135944039878E+04    0.71671E-05   -0.12717E-04  2384   0.235E-02    0.211E-02
DAV:  10    -0.135944040106E+04   -0.22800E-05   -0.46412E-05  2440   0.131E-02    0.108E-02
DAV:  11    -0.135944040165E+04   -0.58534E-06   -0.12537E-05  2032   0.825E-03    0.577E-03
DAV:  12    -0.135944040198E+04   -0.33370E-06   -0.88514E-06  1648   0.613E-03
  17 F= -.13594404E+04 E0= -.13594404E+04  d E =-.197947E+00
 BRION: g(F)=  0.878E-01 g(S)=  0.000E+00 retain N=  4 mean eig= 4.07
 eig:   6.633  6.633  1.514  1.514
 bond charge predicted
       N       E                     dE             d eps       ncg     rms          rms(c)
DAV:   1    -0.135951067738E+04   -0.70276E-01   -0.10105E+01  1392   0.453E+00    0.519E-01
DAV:   2    -0.135956186585E+04   -0.51188E-01   -0.53890E-01  2288   0.176E+00    0.266E-01
DAV:   3    -0.135956498401E+04   -0.31182E-02   -0.43498E-02  2584   0.340E-01    0.215E-01
DAV:   4    -0.135956435185E+04    0.63216E-03   -0.38130E-03  2600   0.147E-01    0.155E-01
DAV:   5    -0.135956363080E+04    0.72105E-03   -0.22741E-03  2216   0.961E-02    0.563E-02
DAV:   6    -0.135956371399E+04   -0.83185E-04   -0.15948E-03  2440   0.699E-02    0.503E-02
DAV:   7    -0.135956370664E+04    0.73543E-05   -0.48282E-04  2440   0.407E-02    0.348E-02
DAV:   8    -0.135956369954E+04    0.70989E-05   -0.17006E-04  2544   0.253E-02    0.179E-02
DAV:   9    -0.135956369764E+04    0.18920E-05   -0.34752E-05  2200   0.127E-02    0.120E-02
DAV:  10    -0.135956369809E+04   -0.44244E-06   -0.12741E-05  1976   0.761E-03    0.502E-03
DAV:  11    -0.135956369813E+04   -0.43598E-07   -0.14030E-06   992   0.484E-03
  18 F= -.13595637E+04 E0= -.13595637E+04  d E =-.123296E+00
 BRION: g(F)=  0.800E-01 g(S)=  0.000E+00 retain N=  4 mean eig= 3.69
 eig:   6.166  6.166  1.205  1.205
 bond charge predicted
       N       E                     dE             d eps       ncg     rms          rms(c)
DAV:   1    -0.135963517400E+04   -0.71476E-01   -0.64517E+00  1384   0.361E+00    0.408E-01
DAV:   2    -0.135966819310E+04   -0.33019E-01   -0.34819E-01  2288   0.140E+00    0.209E-01
DAV:   3    -0.135967032089E+04   -0.21278E-02   -0.28759E-02  2584   0.274E-01    0.170E-01
DAV:   4    -0.135966996543E+04    0.35546E-03   -0.24218E-03  2600   0.119E-01    0.126E-01
DAV:   5    -0.135966949456E+04    0.47087E-03   -0.14364E-03  2224   0.753E-02    0.461E-02
DAV:   6    -0.135966954113E+04   -0.46570E-04   -0.10216E-03  2408   0.556E-02    0.401E-02
DAV:   7    -0.135966953605E+04    0.50859E-05   -0.32500E-04  2424   0.327E-02    0.272E-02
DAV:   8    -0.135966953222E+04    0.38247E-05   -0.11258E-04  2536   0.210E-02    0.143E-02
DAV:   9    -0.135966953119E+04    0.10319E-05   -0.21756E-05  2120   0.101E-02    0.989E-03
DAV:  10    -0.135966953113E+04    0.60871E-07   -0.51656E-06  1408   0.589E-03
  19 F= -.13596695E+04 E0= -.13596695E+04  d E =-.105833E+00
 BRION: g(F)=  0.789E-01 g(S)=  0.000E+00 retain N=  4 mean eig= 2.72
 eig:   4.411  4.411  1.020  1.020
 bond charge predicted
       N       E                     dE             d eps       ncg     rms          rms(c)
DAV:   1    -0.135974075858E+04   -0.71227E-01   -0.52658E+00  1392   0.325E+00    0.368E-01
DAV:   2    -0.135976788111E+04   -0.27123E-01   -0.28581E-01  2296   0.127E+00    0.187E-01
DAV:   3    -0.135976961423E+04   -0.17331E-02   -0.23546E-02  2576   0.244E-01    0.151E-01
DAV:   4    -0.135976930825E+04    0.30598E-03   -0.19603E-03  2584   0.107E-01    0.111E-01
DAV:   5    -0.135976892174E+04    0.38652E-03   -0.11578E-03  2208   0.679E-02    0.405E-02
DAV:   6    -0.135976895771E+04   -0.35977E-04   -0.83041E-04  2400   0.508E-02    0.340E-02
DAV:   7    -0.135976895672E+04    0.99292E-06   -0.25664E-04  2408   0.287E-02    0.237E-02
DAV:   8    -0.135976895429E+04    0.24334E-05   -0.83680E-05  2552   0.180E-02    0.127E-02
DAV:   9    -0.135976895300E+04    0.12820E-05   -0.18749E-05  2096   0.929E-03    0.854E-03
DAV:  10    -0.135976895292E+04    0.80414E-07   -0.31764E-06  1136   0.542E-03
  20 F= -.13597690E+04 E0= -.13597690E+04  d E =-.994218E-01
 BRION: g(F)=  0.780E-01 g(S)=  0.000E+00 retain N=  5 mean eig= 3.68
 eig:   7.381  7.381  1.335  1.335  0.964
