 running on  160 total cores
 distrk:  each k-point on  160 cores,    1 groups
 distr:  one band on   20 cores,    8 groups
 using from now: INCAR     
 vasp.5.4.4.18Apr17-6-g9f103f2a35 (build May 01 2020 14:22:42) gamma-only       
  
 POSCAR found type information on POSCAR  O  La Zr Li Al
 POSCAR found :  5 types and     186 ions
 scaLAPACK will be used
 LDA part: xc-table for Pade appr. of Perdew
 POSCAR, INCAR and KPOINTS ok, starting setup
 FFT: planning ...
 WAVECAR not read
 WARNING: random wavefunctions but no delay for mixing, default for NELMDL
 entering main loop
       N       E                     dE             d eps       ncg     rms          rms(c)
DAV:   1     0.252789642068E+05    0.25279E+05   -0.42092E+05  1608   0.253E+03
DAV:   2     0.943767611582E+04   -0.15841E+05   -0.14637E+05  1424   0.706E+02
DAV:   3     0.269472235572E+04   -0.67430E+04   -0.61457E+04  1488   0.357E+02
DAV:   4    -0.356673828517E+03   -0.30514E+04   -0.28426E+04  2056   0.223E+02
DAV:   5    -0.140207978469E+04   -0.10454E+04   -0.10081E+04  2520   0.142E+02    0.117E+02
DAV:   6    -0.128767550881E+04    0.11440E+03   -0.14393E+03  2440   0.658E+01    0.501E+01
DAV:   7    -0.130956137405E+04   -0.21886E+02   -0.39143E+02  2568   0.344E+01    0.269E+01
DAV:   8    -0.131395880190E+04   -0.43974E+01   -0.19979E+02  2552   0.254E+01    0.218E+01
DAV:   9    -0.131302570729E+04    0.93309E+00   -0.30395E+01  2568   0.130E+01    0.123E+01
DAV:  10    -0.131128470281E+04    0.17410E+01   -0.19609E+01  2456   0.754E+00    0.692E+00
DAV:  11    -0.131155712474E+04   -0.27242E+00   -0.57138E+00  2576   0.445E+00    0.553E+00
DAV:  12    -0.131160368978E+04   -0.46565E-01   -0.20047E+00  2576   0.246E+00    0.499E+00
DAV:  13    -0.131163632220E+04   -0.32632E-01   -0.25066E+00  2368   0.293E+00    0.364E+00
DAV:  14    -0.131155618893E+04    0.80133E-01   -0.64239E-01  2448   0.169E+00    0.213E+00
DAV:  15    -0.131151743933E+04    0.38750E-01   -0.41098E-01  2472   0.105E+00    0.106E+00
DAV:  16    -0.131151135184E+04    0.60875E-02   -0.11771E-01  2472   0.551E-01    0.669E-01
DAV:  17    -0.131151078767E+04    0.56417E-03   -0.27299E-02  2544   0.322E-01    0.334E-01
DAV:  18    -0.131151017057E+04    0.61710E-03   -0.15252E-02  2576   0.219E-01    0.358E-01
DAV:  19    -0.131151034630E+04   -0.17573E-03   -0.51275E-03  2480   0.157E-01    0.217E-01
DAV:  20    -0.131150999934E+04    0.34696E-03   -0.14470E-03  2600   0.795E-02    0.123E-01
DAV:  21    -0.131150988686E+04    0.11248E-03   -0.10674E-03  2536   0.545E-02    0.684E-02
DAV:  22    -0.131150987909E+04    0.77684E-05   -0.29141E-04  2560   0.310E-02    0.274E-02
DAV:  23    -0.131150987449E+04    0.45978E-05   -0.87310E-05  2456   0.189E-02    0.163E-02
DAV:  24    -0.131150987569E+04   -0.11999E-05   -0.35572E-05  2280   0.103E-02    0.869E-03
DAV:  25    -0.131150987737E+04   -0.16762E-05   -0.10512E-05  1616   0.751E-03    0.784E-03
DAV:  26    -0.131150987977E+04   -0.24003E-05   -0.46986E-06  1168   0.527E-03    0.425E-03
DAV:  27    -0.131150988025E+04   -0.47604E-06   -0.12442E-06   960   0.434E-03
   1 F= -.13115099E+04 E0= -.13114413E+04  d E =-.131151E+04
 BRION: g(F)=  0.883E+02 g(S)=  0.000E+00
 bond charge predicted
       N       E                     dE             d eps       ncg     rms          rms(c)
DAV:   1    -0.124450550526E+04    0.67004E+02   -0.10892E+04  1736   0.162E+02    0.379E+01
DAV:   2    -0.133893285747E+04   -0.94427E+02   -0.10760E+03  2576   0.753E+01    0.189E+01
DAV:   3    -0.133510784784E+04    0.38250E+01   -0.59827E+01  2624   0.197E+01    0.121E+01
DAV:   4    -0.133136830116E+04    0.37395E+01   -0.25085E+01  2344   0.106E+01    0.562E+00
DAV:   5    -0.133127171365E+04    0.96588E-01   -0.79122E+00  2560   0.595E+00    0.421E+00
DAV:   6    -0.133111012619E+04    0.16159E+00   -0.42402E+00  2616   0.356E+00    0.222E+00
DAV:   7    -0.133103463703E+04    0.75489E-01   -0.52617E-01  2520   0.215E+00    0.138E+00
DAV:   8    -0.133104381574E+04   -0.91787E-02   -0.88954E-01  2496   0.162E+00    0.109E+00
DAV:   9    -0.133103986071E+04    0.39550E-02   -0.14547E-01  2520   0.803E-01    0.852E-01
DAV:  10    -0.133103527249E+04    0.45882E-02   -0.74709E-02  2488   0.440E-01    0.401E-01
DAV:  11    -0.133103528342E+04   -0.10934E-04   -0.34863E-02  2568   0.322E-01    0.195E-01
DAV:  12    -0.133103546282E+04   -0.17939E-03   -0.61471E-03  2232   0.187E-01    0.143E-01
DAV:  13    -0.133103543366E+04    0.29159E-04   -0.30114E-03  2496   0.909E-02    0.613E-02
DAV:  14    -0.133103546113E+04   -0.27470E-04   -0.84051E-04  2624   0.546E-02    0.316E-02
DAV:  15    -0.133103547306E+04   -0.11935E-04   -0.13522E-04  2608   0.284E-02    0.228E-02
DAV:  16    -0.133103547189E+04    0.11705E-05   -0.66461E-05  2592   0.166E-02    0.192E-02
DAV:  17    -0.133103547004E+04    0.18560E-05   -0.30251E-05  2312   0.101E-02    0.901E-03
DAV:  18    -0.133103547022E+04   -0.18727E-06   -0.11852E-05  1792   0.644E-03    0.500E-03
DAV:  19    -0.133103547014E+04    0.84212E-07   -0.14413E-06  1016   0.472E-03
   2 F= -.13310355E+04 E0= -.13310355E+04  d E =-.195256E+02
 BRION: g(F)=  0.193E+03 g(S)=  0.000E+00 retain N=  1 mean eig= 0.37
 eig:   0.372
 bond charge predicted
       N       E                     dE             d eps       ncg     rms          rms(c)
DAV:   1    -0.130937137474E+04    0.21664E+02   -0.32757E+03  1320   0.749E+01    0.249E+01
DAV:   2    -0.135099822499E+04   -0.41627E+02   -0.53680E+02  2552   0.383E+01    0.213E+01
DAV:   3    -0.134736328896E+04    0.36349E+01   -0.56332E+01  2584   0.163E+01    0.167E+01
DAV:   4    -0.134330994032E+04    0.40533E+01   -0.41520E+01  2184   0.711E+00    0.719E+00
DAV:   5    -0.134469504584E+04   -0.13851E+01   -0.13468E+01  2448   0.488E+00    0.932E+00
DAV:   6    -0.134304964258E+04    0.16454E+01   -0.10980E+01  2464   0.390E+00    0.183E+00
DAV:   7    -0.134323642914E+04   -0.18679E+00   -0.24265E+00  2528   0.298E+00    0.198E+00
DAV:   8    -0.134315955973E+04    0.76869E-01   -0.35013E-01  2504   0.130E+00    0.115E+00
DAV:   9    -0.134314846224E+04    0.11097E-01   -0.27570E-01  2416   0.808E-01    0.376E-01
DAV:  10    -0.134315085091E+04   -0.23887E-02   -0.36174E-02  2480   0.392E-01    0.233E-01
DAV:  11    -0.134314983842E+04    0.10125E-02   -0.51515E-03  2512   0.171E-01    0.150E-01
DAV:  12    -0.134315007080E+04   -0.23238E-03   -0.11920E-02  2512   0.161E-01    0.132E-01
DAV:  13    -0.134314988354E+04    0.18726E-03   -0.22842E-03  2440   0.938E-02    0.615E-02
DAV:  14    -0.134314991288E+04   -0.29342E-04   -0.95186E-04  2512   0.514E-02    0.356E-02
DAV:  15    -0.134314992580E+04   -0.12924E-04   -0.21616E-04  2592   0.284E-02    0.321E-02
DAV:  16    -0.134314990527E+04    0.20532E-04   -0.95235E-05  2544   0.191E-02    0.129E-02
DAV:  17    -0.134314990839E+04   -0.31135E-05   -0.72118E-05  2384   0.144E-02    0.755E-03
DAV:  18    -0.134314990876E+04   -0.37502E-06   -0.56814E-06  1536   0.614E-03
   3 F= -.13431499E+04 E0= -.13431499E+04  d E =-.121144E+02
 BRION: g(F)=  0.256E+02 g(S)=  0.000E+00 retain N=  2 mean eig= 1.87
 eig:   0.231  3.512
 bond charge predicted
       N       E                     dE             d eps       ncg     rms          rms(c)
DAV:   1    -0.134264366020E+04    0.50625E+00   -0.85808E+02  1376   0.369E+01    0.872E+00
DAV:   2    -0.134860242672E+04   -0.59588E+01   -0.71165E+01  2424   0.171E+01    0.515E+00
DAV:   3    -0.134844870581E+04    0.15372E+00   -0.50955E+00  2528   0.531E+00    0.432E+00
DAV:   4    -0.134816211597E+04    0.28659E+00   -0.22660E+00  2304   0.247E+00    0.197E+00
DAV:   5    -0.134814911798E+04    0.12998E-01   -0.73906E-01  2416   0.164E+00    0.201E+00
DAV:   6    -0.134808769972E+04    0.61418E-01   -0.56779E-01  2480   0.149E+00    0.813E-01
DAV:   7    -0.134809637858E+04   -0.86789E-02   -0.26314E-01  2416   0.868E-01    0.777E-01
DAV:   8    -0.134809358019E+04    0.27984E-02   -0.48297E-02  2600   0.393E-01    0.524E-01
DAV:   9    -0.134808911462E+04    0.44656E-02   -0.22565E-02  2528   0.268E-01    0.217E-01
DAV:  10    -0.134808992343E+04   -0.80881E-03   -0.15557E-02  2520   0.194E-01    0.173E-01
DAV:  11    -0.134808951353E+04    0.40990E-03   -0.19988E-03  2576   0.101E-01    0.824E-02
DAV:  12    -0.134808953773E+04   -0.24204E-04   -0.14331E-03  2512   0.583E-02    0.393E-02
DAV:  13    -0.134808954688E+04   -0.91415E-05   -0.18097E-04  2520   0.293E-02    0.255E-02
DAV:  14    -0.134808954337E+04    0.35074E-05   -0.55535E-05  2592   0.143E-02    0.159E-02
DAV:  15    -0.134808954309E+04    0.28058E-06   -0.26706E-05  2344   0.100E-02    0.734E-03
DAV:  16    -0.134808954304E+04    0.50364E-07   -0.42299E-06  1336   0.510E-03
   4 F= -.13480895E+04 E0= -.13480895E+04  d E =-.493963E+01
 BRION: g(F)=  0.850E+01 g(S)=  0.000E+00 retain N=  2 mean eig= 0.35
 eig:   0.346  0.346
 bond charge predicted
       N       E                     dE             d eps       ncg     rms          rms(c)
DAV:   1    -0.134998492843E+04   -0.18954E+01   -0.29377E+02  1384   0.231E+01    0.418E+00
DAV:   2    -0.135151329615E+04   -0.15284E+01   -0.16667E+01  2288   0.888E+00    0.220E+00
DAV:   3    -0.135153207415E+04   -0.18778E-01   -0.11481E+00  2624   0.191E+00    0.184E+00
DAV:   4    -0.135147658721E+04    0.55487E-01   -0.34675E-01  2528   0.114E+00    0.864E-01
DAV:   5    -0.135147064115E+04    0.59461E-02   -0.10521E-01  2464   0.675E-01    0.620E-01
DAV:   6    -0.135146885976E+04    0.17814E-02   -0.77035E-02  2512   0.496E-01    0.341E-01
DAV:   7    -0.135146848844E+04    0.37132E-03   -0.22835E-02  2408   0.270E-01    0.256E-01
DAV:   8    -0.135146829637E+04    0.19207E-03   -0.67786E-03  2392   0.136E-01    0.137E-01
DAV:   9    -0.135146810650E+04    0.18987E-03   -0.23959E-03  2584   0.872E-02    0.714E-02
DAV:  10    -0.135146822602E+04   -0.11952E-03   -0.16074E-03  2496   0.674E-02    0.840E-02
DAV:  11    -0.135146813546E+04    0.90560E-04   -0.51809E-04  2528   0.454E-02    0.349E-02
DAV:  12    -0.135146814287E+04   -0.74126E-05   -0.26754E-04  2456   0.279E-02    0.207E-02
DAV:  13    -0.135146814298E+04   -0.10486E-06   -0.47748E-05  2456   0.141E-02    0.115E-02
DAV:  14    -0.135146814278E+04    0.19863E-06   -0.13663E-05  1880   0.704E-03    0.562E-03
DAV:  15    -0.135146814303E+04   -0.25571E-06   -0.30421E-06  1136   0.489E-03
   5 F= -.13514681E+04 E0= -.13514681E+04  d E =-.337860E+01
 BRION: g(F)=  0.422E+01 g(S)=  0.000E+00 retain N=  3 mean eig= 0.21
 eig:   0.150  0.150  0.329
 bond charge predicted
       N       E                     dE             d eps       ncg     rms          rms(c)
DAV:   1    -0.135251113709E+04   -0.10430E+01   -0.19941E+02  1360   0.186E+01    0.306E+00
DAV:   2    -0.135344485695E+04   -0.93372E+00   -0.99898E+00  2280   0.679E+00    0.159E+00
DAV:   3    -0.135345333736E+04   -0.84804E-02   -0.61554E-01  2616   0.145E+00    0.129E+00
DAV:   4    -0.135342002172E+04    0.33316E-01   -0.17364E-01  2496   0.829E-01    0.605E-01
DAV:   5    -0.135341773531E+04    0.22864E-02   -0.61318E-02  2496   0.483E-01    0.426E-01
DAV:   6    -0.135341676644E+04    0.96887E-03   -0.39187E-02  2568   0.342E-01    0.185E-01
DAV:   7    -0.135341675075E+04    0.15690E-04   -0.76254E-03  2424   0.178E-01    0.151E-01
DAV:   8    -0.135341668490E+04    0.65851E-04   -0.31703E-03  2360   0.927E-02    0.728E-02
DAV:   9    -0.135341667582E+04    0.90826E-05   -0.13157E-03  2576   0.631E-02    0.469E-02
DAV:  10    -0.135341668237E+04   -0.65481E-05   -0.35669E-04  2512   0.369E-02    0.392E-02
DAV:  11    -0.135341666645E+04    0.15917E-04   -0.17646E-04  2544   0.257E-02    0.153E-02
DAV:  12    -0.135341667008E+04   -0.36342E-05   -0.74155E-05  2416   0.151E-02    0.951E-03
DAV:  13    -0.135341667023E+04   -0.14537E-06   -0.86205E-06  1688   0.765E-03
   6 F= -.13534167E+04 E0= -.13534167E+04  d E =-.194853E+01
 BRION: g(F)=  0.296E+01 g(S)=  0.000E+00 retain N=  4 mean eig= 0.50
 eig:   0.668  0.231  0.546  0.546
 bond charge predicted
       N       E                     dE             d eps       ncg     rms          rms(c)
DAV:   1    -0.135380204232E+04   -0.38537E+00   -0.40630E+02  1368   0.276E+01    0.401E+00
DAV:   2    -0.135593547677E+04   -0.21334E+01   -0.22414E+01  2304   0.104E+01    0.221E+00
DAV:   3    -0.135597327326E+04   -0.37796E-01   -0.14201E+00  2616   0.217E+00    0.185E+00
DAV:   4    -0.135591200848E+04    0.61265E-01   -0.32672E-01  2528   0.111E+00    0.955E-01
DAV:   5    -0.135589676555E+04    0.15243E-01   -0.12354E-01  2480   0.668E-01    0.542E-01
DAV:   6    -0.135589600743E+04    0.75811E-03   -0.50297E-02  2568   0.429E-01    0.347E-01
DAV:   7    -0.135589523202E+04    0.77541E-03   -0.23225E-02  2512   0.278E-01    0.189E-01
DAV:   8    -0.135589551722E+04   -0.28520E-03   -0.75874E-03  2552   0.150E-01    0.114E-01
DAV:   9    -0.135589537644E+04    0.14078E-03   -0.14902E-03  2576   0.764E-02    0.690E-02
DAV:  10    -0.135589541363E+04   -0.37196E-04   -0.12090E-03  2408   0.584E-02    0.464E-02
DAV:  11    -0.135589539522E+04    0.18410E-04   -0.33725E-04  2552   0.388E-02    0.196E-02
DAV:  12    -0.135589540501E+04   -0.97849E-05   -0.15291E-04  2560   0.224E-02    0.140E-02
DAV:  13    -0.135589540493E+04    0.82655E-07   -0.31888E-05  2400   0.116E-02    0.735E-03
DAV:  14    -0.135589540530E+04   -0.37723E-06   -0.11560E-05  1768   0.673E-03    0.441E-03
DAV:  15    -0.135589540558E+04   -0.27435E-06   -0.27836E-06  1104   0.480E-03
   7 F= -.13558954E+04 E0= -.13558954E+04  d E =-.247874E+01
 BRION: g(F)=  0.131E+01 g(S)=  0.000E+00 retain N=  5 mean eig= 0.65
 eig:   0.490  0.964  0.964  0.205  0.628
 bond charge predicted
       N       E                     dE             d eps       ncg     rms          rms(c)
DAV:   1    -0.135631437182E+04   -0.41897E+00   -0.90233E+01  1376   0.131E+01    0.195E+00
DAV:   2    -0.135676519268E+04   -0.45082E+00   -0.47714E+00  2288   0.506E+00    0.958E-01
DAV:   3    -0.135678284343E+04   -0.17651E-01   -0.35321E-01  2624   0.102E+00    0.745E-01
DAV:   4    -0.135677190797E+04    0.10935E-01   -0.48415E-02  2520   0.498E-01    0.412E-01
DAV:   5    -0.135676928651E+04    0.26215E-02   -0.24829E-02  2416   0.300E-01    0.183E-01
DAV:   6    -0.135676973722E+04   -0.45071E-03   -0.89240E-03  2528   0.176E-01    0.134E-01
DAV:   7    -0.135676968610E+04    0.51117E-04   -0.26408E-03  2600   0.997E-02    0.920E-02
DAV:   8    -0.135676964699E+04    0.39107E-04   -0.97234E-04  2592   0.584E-02    0.504E-02
DAV:   9    -0.135676963619E+04    0.10807E-04   -0.27631E-04  2520   0.361E-02    0.275E-02
DAV:  10    -0.135676964910E+04   -0.12910E-04   -0.17863E-04  2520   0.240E-02    0.229E-02
DAV:  11    -0.135676964210E+04    0.70010E-05   -0.48571E-05  2392   0.148E-02    0.101E-02
DAV:  12    -0.135676964361E+04   -0.15145E-05   -0.25110E-05  2120   0.888E-03    0.691E-03
DAV:  13    -0.135676964282E+04    0.78884E-06   -0.21962E-06  1056   0.570E-03
   8 F= -.13567696E+04 E0= -.13567696E+04  d E =-.874237E+00
 BRION: g(F)=  0.770E+00 g(S)=  0.000E+00 retain N=  6 mean eig= 0.66
 eig:   1.165  1.165  0.542  0.542  0.219  0.336
 bond charge predicted
       N       E                     dE             d eps       ncg     rms          rms(c)
DAV:   1    -0.135715995023E+04   -0.39031E+00   -0.71682E+01  1384   0.120E+01    0.173E+00
DAV:   2    -0.135752503979E+04   -0.36509E+00   -0.38843E+00  2272   0.472E+00    0.848E-01
DAV:   3    -0.135754313299E+04   -0.18093E-01   -0.30200E-01  2616   0.952E-01    0.691E-01
DAV:   4    -0.135753577910E+04    0.73539E-02   -0.43974E-02  2552   0.473E-01    0.385E-01
DAV:   5    -0.135753393482E+04    0.18443E-02   -0.18747E-02  2456   0.277E-01    0.182E-01
DAV:   6    -0.135753429178E+04   -0.35695E-03   -0.76380E-03  2584   0.168E-01    0.127E-01
DAV:   7    -0.135753420003E+04    0.91745E-04   -0.26828E-03  2560   0.103E-01    0.792E-02
DAV:   8    -0.135753422289E+04   -0.22862E-04   -0.11046E-03  2592   0.612E-02    0.477E-02
DAV:   9    -0.135753420406E+04    0.18829E-04   -0.19978E-04  2592   0.315E-02    0.311E-02
DAV:  10    -0.135753420949E+04   -0.54239E-05   -0.18818E-04  2464   0.240E-02    0.197E-02
DAV:  11    -0.135753420699E+04    0.25016E-05   -0.49786E-05  2400   0.159E-02    0.769E-03
DAV:  12    -0.135753420884E+04   -0.18508E-05   -0.24306E-05  2176   0.923E-03    0.804E-03
DAV:  13    -0.135753420776E+04    0.10734E-05   -0.38840E-06  1208   0.629E-03    0.383E-03
DAV:  14    -0.135753420867E+04   -0.91166E-06   -0.13144E-05  1608   0.687E-03    0.470E-03
DAV:  15    -0.135753420819E+04    0.48071E-06   -0.10888E-06   984   0.472E-03
   9 F= -.13575342E+04 E0= -.13575342E+04  d E =-.764565E+00
 BRION: g(F)=  0.685E+00 g(S)=  0.000E+00 retain N=  7 mean eig= 0.93
 eig:   3.175  1.029  0.716  0.716  0.612  0.138  0.138
 bond charge predicted
       N       E                     dE             d eps       ncg     rms          rms(c)
DAV:   1    -0.135783971272E+04   -0.30550E+00   -0.92605E+01  1392   0.138E+01    0.172E+00
DAV:   2    -0.135832292938E+04   -0.48322E+00   -0.51346E+00  2288   0.548E+00    0.856E-01
DAV:   3    -0.135835146622E+04   -0.28537E-01   -0.40907E-01  2608   0.109E+00    0.709E-01
DAV:   4    -0.135834519491E+04    0.62713E-02   -0.41842E-02  2616   0.495E-01    0.488E-01
DAV:   5    -0.135833959403E+04    0.56009E-02   -0.23634E-02  2320   0.317E-01    0.182E-01
DAV:   6    -0.135834047854E+04   -0.88452E-03   -0.14661E-02  2504   0.228E-01    0.180E-01
DAV:   7    -0.135834032336E+04    0.15518E-03   -0.50394E-03  2488   0.135E-01    0.122E-01
DAV:   8    -0.135834025547E+04    0.67891E-04   -0.21584E-03  2608   0.867E-02    0.567E-02
DAV:   9    -0.135834023983E+04    0.15642E-04   -0.35192E-04  2336   0.412E-02    0.414E-02
DAV:  10    -0.135834024390E+04   -0.40731E-05   -0.15659E-04  2392   0.241E-02    0.211E-02
DAV:  11    -0.135834024359E+04    0.30806E-06   -0.50353E-05  2536   0.156E-02    0.105E-02
DAV:  12    -0.135834024578E+04   -0.21818E-05   -0.30923E-05  2440   0.106E-02    0.111E-02
DAV:  13    -0.135834024429E+04    0.14823E-05   -0.10454E-05  1672   0.697E-03    0.528E-03
DAV:  14    -0.135834024419E+04    0.10473E-06   -0.34915E-06  1184   0.552E-03
  10 F= -.13583402E+04 E0= -.13583402E+04  d E =-.806036E+00
 BRION: g(F)=  0.450E+00 g(S)=  0.000E+00 retain N=  8 mean eig= 1.26
 eig:   2.420  2.420  2.186  0.905  0.905  0.545  0.545  0.155
 bond charge predicted
       N       E                     dE             d eps       ncg     rms          rms(c)
DAV:   1    -0.135844075175E+04   -0.10051E+00   -0.13561E+02  1392   0.168E+01    0.208E+00
DAV:   2    -0.135916587183E+04   -0.72512E+00   -0.76996E+00  2296   0.679E+00    0.105E+00
DAV:   3    -0.135920890557E+04   -0.43034E-01   -0.61198E-01  2624   0.131E+00    0.849E-01
DAV:   4    -0.135919938868E+04    0.95169E-02   -0.61175E-02  2616   0.612E-01    0.583E-01
DAV:   5    -0.135919141310E+04    0.79756E-02   -0.30582E-02  2336   0.373E-01    0.223E-01
DAV:   6    -0.135919249328E+04   -0.10802E-02   -0.21069E-02  2464   0.274E-01    0.193E-01
DAV:   7    -0.135919243080E+04    0.62485E-04   -0.71505E-03  2480   0.163E-01    0.143E-01
DAV:   8    -0.135919235880E+04    0.71994E-04   -0.30501E-03  2584   0.103E-01    0.706E-02
DAV:   9    -0.135919231309E+04    0.45709E-04   -0.61438E-04  2344   0.521E-02    0.482E-02
DAV:  10    -0.135919232167E+04   -0.85796E-05   -0.26054E-04  2432   0.315E-02    0.277E-02
DAV:  11    -0.135919231972E+04    0.19505E-05   -0.84673E-05  2520   0.201E-02    0.136E-02
DAV:  12    -0.135919232273E+04   -0.30045E-05   -0.45076E-05  2440   0.135E-02    0.138E-02
DAV:  13    -0.135919232089E+04    0.18347E-05   -0.22767E-05  2112   0.918E-03    0.648E-03
DAV:  14    -0.135919232083E+04    0.56680E-07   -0.53557E-06  1392   0.572E-03
  11 F= -.13591923E+04 E0= -.13591923E+04  d E =-.852077E+00
 BRION: g(F)=  0.279E+00 g(S)=  0.000E+00 retain N=  9 mean eig= 1.86
 eig:   5.020  5.020  2.186  1.188  1.188  0.694  0.694  0.597  0.168
 bond charge predicted
       N       E                     dE             d eps       ncg     rms          rms(c)
DAV:   1    -0.135932961736E+04   -0.13730E+00   -0.69706E+01  1392   0.120E+01    0.145E+00
DAV:   2    -0.135970541950E+04   -0.37580E+00   -0.40040E+00  2296   0.489E+00    0.734E-01
DAV:   3    -0.135972767224E+04   -0.22253E-01   -0.32113E-01  2616   0.949E-01    0.603E-01
DAV:   4    -0.135972299532E+04    0.46769E-02   -0.31255E-02  2608   0.436E-01    0.426E-01
DAV:   5    -0.135971851448E+04    0.44808E-02   -0.15288E-02  2368   0.252E-01    0.175E-01
DAV:   6    -0.135971874236E+04   -0.22788E-03   -0.10992E-02  2392   0.199E-01    0.130E-01
DAV:   7    -0.135971876485E+04   -0.22489E-04   -0.48161E-03  2416   0.129E-01    0.101E-01
DAV:   8    -0.135971875140E+04    0.13455E-04   -0.17184E-03  2600   0.783E-02    0.585E-02
DAV:   9    -0.135971872135E+04    0.30052E-04   -0.41042E-04  2472   0.412E-02    0.381E-02
DAV:  10    -0.135971872761E+04   -0.62686E-05   -0.17288E-04  2480   0.244E-02    0.234E-02
DAV:  11    -0.135971872904E+04   -0.14228E-05   -0.68572E-05  2416   0.175E-02    0.151E-02
DAV:  12    -0.135971872776E+04    0.12734E-05   -0.33488E-05  2312   0.133E-02    0.127E-02
DAV:  13    -0.135971872670E+04    0.10614E-05   -0.26826E-05  2112   0.917E-03    0.615E-03
DAV:  14    -0.135971872658E+04    0.12350E-06   -0.61007E-06  1528   0.566E-03
  12 F= -.13597187E+04 E0= -.13597187E+04  d E =-.526406E+00
 BRION: g(F)=  0.208E+00 g(S)=  0.000E+00 retain N= 10 mean eig= 2.42
 eig:   7.797  7.797  1.723  1.640  1.640  1.073  1.073  0.632  0.632  0.200
 bond charge predicted
       N       E                     dE             d eps       ncg     rms          rms(c)
DAV:   1    -0.135984435129E+04   -0.12562E+00   -0.52706E+01  1392   0.105E+01    0.127E+00
DAV:   2    -0.136012384356E+04   -0.27949E+00   -0.29817E+00  2296   0.420E+00    0.649E-01
DAV:   3    -0.136014085857E+04   -0.17015E-01   -0.24207E-01  2592   0.831E-01    0.533E-01
DAV:   4    -0.136013733798E+04    0.35206E-02   -0.24308E-02  2584   0.381E-01    0.378E-01
DAV:   5    -0.136013396387E+04    0.33741E-02   -0.12672E-02  2328   0.231E-01    0.150E-01
DAV:   6    -0.136013429766E+04   -0.33379E-03   -0.84757E-03  2424   0.176E-01    0.125E-01
DAV:   7    -0.136013425859E+04    0.39075E-04   -0.35142E-03  2400   0.110E-01    0.883E-02
DAV:   8    -0.136013424495E+04    0.13637E-04   -0.14561E-03  2616   0.713E-02    0.492E-02
DAV:   9    -0.136013422912E+04    0.15826E-04   -0.27685E-04  2544   0.361E-02    0.342E-02
DAV:  10    -0.136013423070E+04   -0.15762E-05   -0.11842E-04  2552   0.205E-02    0.195E-02
DAV:  11    -0.136013423189E+04   -0.11932E-05   -0.47482E-05  2424   0.146E-02    0.115E-02
DAV:  12    -0.136013423155E+04    0.34086E-06   -0.20964E-05  2272   0.107E-02    0.100E-02
DAV:  13    -0.136013423087E+04    0.67902E-06   -0.15494E-05  1808   0.720E-03    0.517E-03
DAV:  14    -0.136013423067E+04    0.20678E-06   -0.30453E-06  1152   0.515E-03
  13 F= -.13601342E+04 E0= -.13601342E+04  d E =-.415504E+00
 BRION: g(F)=  0.166E+00 g(S)=  0.000E+00 retain N=  9 mean eig= 2.91
 eig:   7.972  7.972  2.533  2.533  1.080  0.923  0.923  1.147  1.147
 bond charge predicted
       N       E                     dE             d eps       ncg     rms          rms(c)
DAV:   1    -0.136016882595E+04   -0.34595E-01   -0.69717E+01  1384   0.119E+01    0.138E+00
DAV:   2    -0.136053547600E+04   -0.36665E+00   -0.38799E+00  2296   0.474E+00    0.706E-01
DAV:   3    -0.136055723823E+04   -0.21762E-01   -0.30937E-01  2584   0.921E-01    0.583E-01
DAV:   4    -0.136055324386E+04    0.39944E-02   -0.28951E-02  2584   0.412E-01    0.432E-01
DAV:   5    -0.136054829063E+04    0.49532E-02   -0.13516E-02  2360   0.237E-01    0.199E-01
DAV:   6    -0.136054801779E+04    0.27284E-03   -0.12262E-02  2240   0.211E-01    0.120E-01
DAV:   7    -0.136054823478E+04   -0.21699E-03   -0.66109E-03  2416   0.143E-01    0.114E-01
DAV:   8    -0.136054817792E+04    0.56858E-04   -0.15287E-03  2568   0.808E-02    0.750E-02
DAV:   9    -0.136054811657E+04    0.61357E-04   -0.74443E-04  2568   0.493E-02    0.369E-02
DAV:  10    -0.136054813317E+04   -0.16607E-04   -0.21600E-04  2520   0.298E-02    0.276E-02
DAV:  11    -0.136054813493E+04   -0.17550E-05   -0.72267E-05  2312   0.175E-02    0.200E-02
DAV:  12    -0.136054813177E+04    0.31542E-05   -0.82344E-05  2176   0.179E-02    0.166E-02
DAV:  13    -0.136054813047E+04    0.13062E-05   -0.38778E-05  2248   0.122E-02    0.121E-02
DAV:  14    -0.136054812928E+04    0.11890E-05   -0.15972E-05  1944   0.721E-03    0.415E-03
DAV:  15    -0.136054812928E+04   -0.45547E-08   -0.11485E-06   936   0.410E-03
  14 F= -.13605481E+04 E0= -.13605481E+04  d E =-.413899E+00
 BRION: g(F)=  0.132E+00 g(S)=  0.000E+00 retain N=  5 mean eig= 4.25
 eig:   7.900  7.900  2.057  2.057  1.338
 bond charge predicted
       N       E                     dE             d eps       ncg     rms          rms(c)
DAV:   1    -0.136063826285E+04   -0.90134E-01   -0.31189E+01  1384   0.796E+00    0.913E-01
DAV:   2    -0.136079792800E+04   -0.15967E+00   -0.16797E+00  2296   0.311E+00    0.469E-01
DAV:   3    -0.136080730057E+04   -0.93726E-02   -0.13174E-01  2576   0.598E-01    0.387E-01
DAV:   4    -0.136080557620E+04    0.17244E-02   -0.12439E-02  2600   0.265E-01    0.285E-01
DAV:   5    -0.136080330395E+04    0.22722E-02   -0.64008E-03  2312   0.164E-01    0.122E-01
DAV:   6    -0.136080335018E+04   -0.46232E-04   -0.55301E-03  2304   0.137E-01    0.887E-02
DAV:   7    -0.136080336695E+04   -0.16766E-04   -0.24507E-03  2424   0.895E-02    0.718E-02
DAV:   8    -0.136080333953E+04    0.27414E-04   -0.78530E-04  2576   0.550E-02    0.400E-02
DAV:   9    -0.136080332608E+04    0.13456E-04   -0.23606E-04  2496   0.297E-02    0.242E-02
DAV:  10    -0.136080332966E+04   -0.35815E-05   -0.65126E-05  2536   0.160E-02    0.174E-02
DAV:  11    -0.136080332973E+04   -0.72934E-07   -0.35419E-05  2312   0.120E-02    0.118E-02
DAV:  12    -0.136080332873E+04    0.10002E-05   -0.18676E-05  2080   0.966E-03    0.962E-03
DAV:  13    -0.136080332808E+04    0.65714E-06   -0.11691E-05  1744   0.657E-03    0.529E-03
DAV:  14    -0.136080332772E+04    0.35462E-06   -0.21534E-06   976   0.484E-03
  15 F= -.13608033E+04 E0= -.13608033E+04  d E =-.255198E+00
 BRION: g(F)=  0.115E+00 g(S)=  0.000E+00 retain N=  4 mean eig= 4.08
 eig:   6.567  6.567  1.599  1.599
 bond charge predicted
       N       E                     dE             d eps       ncg     rms          rms(c)
DAV:   1    -0.136090558952E+04   -0.10226E+00   -0.21052E+01  1384   0.652E+00    0.755E-01
DAV:   2    -0.136101307467E+04   -0.10749E+00   -0.11383E+00  2280   0.255E+00    0.388E-01
DAV:   3    -0.136101959988E+04   -0.65252E-02   -0.92271E-02  2584   0.508E-01    0.322E-01
DAV:   4    -0.136101836583E+04    0.12340E-02   -0.89255E-03  2584   0.225E-01    0.232E-01
DAV:   5    -0.136101694635E+04    0.14195E-02   -0.44898E-03  2328   0.135E-01    0.998E-02
DAV:   6    -0.136101698208E+04   -0.35726E-04   -0.34826E-03  2296   0.110E-01    0.752E-02
DAV:   7    -0.136101698828E+04   -0.61990E-05   -0.16365E-03  2416   0.742E-02    0.592E-02
DAV:   8    -0.136101697463E+04    0.13651E-04   -0.57622E-04  2584   0.456E-02    0.348E-02
DAV:   9    -0.136101696548E+04    0.91441E-05   -0.16003E-04  2536   0.249E-02    0.215E-02
DAV:  10    -0.136101696747E+04   -0.19878E-05   -0.49039E-05  2536   0.137E-02    0.147E-02
DAV:  11    -0.136101696783E+04   -0.36198E-06   -0.21608E-05  2096   0.984E-03    0.104E-02
DAV:  12    -0.136101696673E+04    0.10988E-05   -0.12858E-05  1800   0.826E-03    0.784E-03
DAV:  13    -0.136101696640E+04    0.33675E-06   -0.95732E-06  1680   0.625E-03
  16 F= -.13610170E+04 E0= -.13610170E+04  d E =-.213639E+00
 BRION: g(F)=  0.104E+00 g(S)=  0.000E+00 retain N=  4 mean eig= 4.60
 eig:   7.542  7.542  1.660  1.660
 bond charge predicted
       N       E                     dE             d eps       ncg     rms          rms(c)
DAV:   1    -0.136110052327E+04   -0.83557E-01   -0.26772E+01  1376   0.730E+00    0.828E-01
DAV:   2    -0.136123463022E+04   -0.13411E+00   -0.14055E+00  2296   0.285E+00    0.426E-01
DAV:   3    -0.136124222695E+04   -0.75967E-02   -0.10874E-01  2576   0.537E-01    0.347E-01
DAV:   4    -0.136124070652E+04    0.15204E-02   -0.10047E-02  2600   0.237E-01    0.255E-01
DAV:   5    -0.136123873836E+04    0.19682E-02   -0.52292E-03  2240   0.147E-01    0.107E-01
DAV:   6    -0.136123879030E+04   -0.51941E-04   -0.45567E-03  2288   0.121E-01    0.774E-02
DAV:   7    -0.136123880414E+04   -0.13839E-04   -0.17473E-03  2408   0.756E-02    0.616E-02
DAV:   8    -0.136123878599E+04    0.18142E-04   -0.56735E-04  2560   0.460E-02    0.343E-02
DAV:   9    -0.136123877371E+04    0.12286E-04   -0.18051E-04  2416   0.260E-02    0.205E-02
DAV:  10    -0.136123877686E+04   -0.31480E-05   -0.53655E-05  2544   0.146E-02    0.148E-02
DAV:  11    -0.136123877606E+04    0.79784E-06   -0.26930E-05  2168   0.105E-02    0.796E-03
DAV:  12    -0.136123877583E+04    0.22778E-06   -0.10159E-05  1816   0.761E-03    0.650E-03
DAV:  13    -0.136123877565E+04    0.17637E-06   -0.77410E-06  1584   0.537E-03
  17 F= -.13612388E+04 E0= -.13612388E+04  d E =-.221809E+00
 BRION: g(F)=  0.946E-01 g(S)=  0.000E+00 retain N=  4 mean eig= 4.48
 eig:   7.354  7.354  1.615  1.615
 bond charge predicted
       N       E                     dE             d eps       ncg     rms          rms(c)
DAV:   1    -0.136129503108E+04   -0.56255E-01   -0.38082E+01  1384   0.871E+00    0.986E-01
DAV:   2    -0.136148699169E+04   -0.19196E+00   -0.20224E+00  2296   0.341E+00    0.516E-01
DAV:   3    -0.136149799543E+04   -0.11004E-01   -0.15982E-01  2568   0.654E-01    0.422E-01
DAV:   4    -0.136149579481E+04    0.22006E-02   -0.15656E-02  2600   0.293E-01    0.304E-01
DAV:   5    -0.136149328434E+04    0.25105E-02   -0.70790E-03  2320   0.167E-01    0.136E-01
DAV:   6    -0.136149319629E+04    0.88052E-04   -0.57082E-03  2224   0.137E-01    0.856E-02
DAV:   7    -0.136149326145E+04   -0.65154E-04   -0.27534E-03  2440   0.943E-02    0.757E-02
DAV:   8    -0.136149323111E+04    0.30335E-04   -0.84550E-04  2560   0.570E-02    0.489E-02
DAV:   9    -0.136149321122E+04    0.19895E-04   -0.29521E-04  2528   0.320E-02    0.276E-02
DAV:  10    -0.136149321489E+04   -0.36743E-05   -0.80006E-05  2552   0.176E-02    0.181E-02
DAV:  11    -0.136149321595E+04   -0.10596E-05   -0.24304E-05  2216   0.106E-02    0.127E-02
DAV:  12    -0.136149321411E+04    0.18436E-05   -0.27867E-05  1976   0.103E-02    0.848E-03
DAV:  13    -0.136149321413E+04   -0.22963E-07   -0.11881E-05  1776   0.688E-03    0.596E-03
DAV:  14    -0.136149321376E+04    0.37278E-06   -0.33544E-06  1168   0.456E-03
  18 F= -.13614932E+04 E0= -.13614932E+04  d E =-.254438E+00
 BRION: g(F)=  0.806E-01 g(S)=  0.000E+00 retain N=  3 mean eig= 3.59
 eig:   4.719  4.719  1.319
 bond charge predicted
       N       E                     dE             d eps       ncg     rms          rms(c)
DAV:   1    -0.136148109474E+04    0.12119E-01   -0.51472E+01  1384   0.101E+01    0.116E+00
DAV:   2    -0.136173986948E+04   -0.25877E+00   -0.27201E+00  2320   0.396E+00    0.608E-01
DAV:   3    -0.136175334641E+04   -0.13477E-01   -0.20523E-01  2568   0.745E-01    0.484E-01
DAV:   4    -0.136174981498E+04    0.35314E-02   -0.21688E-02  2568   0.339E-01    0.332E-01
DAV:   5    -0.136174678251E+04    0.30325E-02   -0.90062E-03  2376   0.195E-01    0.144E-01
DAV:   6    -0.136174674177E+04    0.40733E-04   -0.66639E-03  2264   0.152E-01    0.886E-02
DAV:   7    -0.136174682042E+04   -0.78647E-04   -0.29743E-03  2392   0.100E-01    0.774E-02
DAV:   8    -0.136174680241E+04    0.18009E-04   -0.87470E-04  2584   0.550E-02    0.491E-02
DAV:   9    -0.136174678179E+04    0.20618E-04   -0.35118E-04  2560   0.348E-02    0.280E-02
DAV:  10    -0.136174678807E+04   -0.62780E-05   -0.11863E-04  2568   0.215E-02    0.211E-02
DAV:  11    -0.136174678637E+04    0.17003E-05   -0.42495E-05  2360   0.136E-02    0.119E-02
DAV:  12    -0.136174678544E+04    0.93084E-06   -0.28725E-05  2112   0.107E-02    0.905E-03
DAV:  13    -0.136174678506E+04    0.38119E-06   -0.12604E-05  1824   0.706E-03    0.522E-03
DAV:  14    -0.136174678489E+04    0.17347E-06   -0.42703E-06  1296   0.524E-03
  19 F= -.13617468E+04 E0= -.13617468E+04  d E =-.253571E+00
 BRION: g(F)=  0.627E-01 g(S)=  0.000E+00 retain N=  3 mean eig= 4.47
 eig:   5.978  5.978  1.456
 bond charge predicted
       N       E                     dE             d eps       ncg     rms          rms(c)
DAV:   1    -0.136178648484E+04   -0.39700E-01   -0.19187E+01  1368   0.621E+00    0.718E-01
DAV:   2    -0.136188279251E+04   -0.96308E-01   -0.10171E+00  2320   0.246E+00    0.372E-01
DAV:   3    -0.136188800019E+04   -0.52077E-02   -0.78303E-02  2576   0.462E-01    0.294E-01
DAV:   4    -0.136188666757E+04    0.13326E-02   -0.80206E-03  2568   0.208E-01    0.200E-01
DAV:   5    -0.136188568000E+04    0.98756E-03   -0.37010E-03  2352   0.119E-01    0.818E-02
DAV:   6    -0.136188572184E+04   -0.41831E-04   -0.21003E-03  2336   0.847E-02    0.563E-02
DAV:   7    -0.136188573149E+04   -0.96547E-05   -0.94620E-04  2408   0.571E-02    0.414E-02
DAV:   8    -0.136188573311E+04   -0.16178E-05   -0.35335E-04  2536   0.349E-02    0.274E-02
DAV:   9    -0.136188572858E+04    0.45309E-05   -0.81796E-05  2520   0.190E-02    0.194E-02
DAV:  10    -0.136188572805E+04    0.52812E-06   -0.41475E-05  2504   0.118E-02    0.109E-02
DAV:  11    -0.136188572810E+04   -0.51543E-07   -0.12870E-05  1864   0.816E-03    0.576E-03
DAV:  12    -0.136188572803E+04    0.66473E-07   -0.75584E-06  1656   0.634E-03
  20 F= -.13618857E+04 E0= -.13618857E+04  d E =-.138943E+00
 BRION: g(F)=  0.534E-01 g(S)=  0.000E+00 retain N=  3 mean eig= 4.81
 eig:   6.404  6.404  1.635
