 running on  160 total cores
 distrk:  each k-point on  160 cores,    1 groups
 distr:  one band on   20 cores,    8 groups
 using from now: INCAR     
 vasp.5.4.4.18Apr17-6-g9f103f2a35 (build May 01 2020 14:22:42) gamma-only       
  
 POSCAR found type information on POSCAR  O  La Zr Li Al
 POSCAR found :  5 types and     186 ions
 scaLAPACK will be used
 LDA part: xc-table for Pade appr. of Perdew
 POSCAR, INCAR and KPOINTS ok, starting setup
 FFT: planning ...
 WAVECAR not read
 WARNING: random wavefunctions but no delay for mixing, default for NELMDL
 entering main loop
       N       E                     dE             d eps       ncg     rms          rms(c)
DAV:   1     0.253587543039E+05    0.25359E+05   -0.41984E+05  1568   0.253E+03
DAV:   2     0.948903986328E+04   -0.15870E+05   -0.14634E+05  1424   0.710E+02
DAV:   3     0.270927232327E+04   -0.67798E+04   -0.61860E+04  1504   0.358E+02
DAV:   4    -0.350857666514E+03   -0.30601E+04   -0.28548E+04  2048   0.222E+02
DAV:   5    -0.139728958662E+04   -0.10464E+04   -0.10092E+04  2536   0.142E+02    0.116E+02
DAV:   6    -0.129066675300E+04    0.10662E+03   -0.14633E+03  2432   0.664E+01    0.502E+01
DAV:   7    -0.131336388099E+04   -0.22697E+02   -0.40015E+02  2552   0.344E+01    0.260E+01
DAV:   8    -0.131798421097E+04   -0.46203E+01   -0.22943E+02  2536   0.262E+01    0.229E+01
DAV:   9    -0.131520763175E+04    0.27766E+01   -0.35390E+01  2576   0.133E+01    0.945E+00
DAV:  10    -0.131515678414E+04    0.50848E-01   -0.18560E+01  2592   0.712E+00    0.649E+00
DAV:  11    -0.131556800668E+04   -0.41122E+00   -0.46796E+00  2616   0.399E+00    0.459E+00
DAV:  12    -0.131560696028E+04   -0.38954E-01   -0.21683E+00  2568   0.280E+00    0.354E+00
DAV:  13    -0.131548108416E+04    0.12588E+00   -0.15857E+00  2480   0.222E+00    0.162E+00
DAV:  14    -0.131548972519E+04   -0.86410E-02   -0.22327E-01  2608   0.111E+00    0.117E+00
DAV:  15    -0.131549104752E+04   -0.13223E-02   -0.69986E-02  2608   0.498E-01    0.754E-01
DAV:  16    -0.131548863792E+04    0.24096E-02   -0.36937E-02  2560   0.324E-01    0.428E-01
DAV:  17    -0.131548886491E+04   -0.22699E-03   -0.12224E-02  2584   0.221E-01    0.224E-01
DAV:  18    -0.131548891916E+04   -0.54257E-04   -0.43677E-03  2600   0.116E-01    0.129E-01
DAV:  19    -0.131548901290E+04   -0.93734E-04   -0.24015E-03  2568   0.903E-02    0.104E-01
DAV:  20    -0.131548901004E+04    0.28524E-05   -0.76129E-04  2496   0.482E-02    0.329E-02
DAV:  21    -0.131548901895E+04   -0.89037E-05   -0.31455E-04  2576   0.333E-02    0.360E-02
DAV:  22    -0.131548903072E+04   -0.11774E-04   -0.12179E-04  2560   0.183E-02    0.141E-02
DAV:  23    -0.131548903878E+04   -0.80609E-05   -0.33860E-05  2136   0.120E-02    0.103E-02
DAV:  24    -0.131548903728E+04    0.14976E-05   -0.17787E-05  1552   0.745E-03    0.368E-03
DAV:  25    -0.131548903938E+04   -0.20965E-05   -0.54642E-06  1072   0.661E-03    0.127E-03
DAV:  26    -0.131548903970E+04   -0.31652E-06   -0.24580E-06   968   0.423E-03
   1 F= -.13154890E+04 E0= -.13154809E+04  d E =-.131549E+04
 BRION: g(F)=  0.770E+02 g(S)=  0.000E+00
 bond charge predicted
       N       E                     dE             d eps       ncg     rms          rms(c)
DAV:   1    -0.127009231008E+04    0.45397E+02   -0.84665E+03  1712   0.141E+02    0.291E+01
DAV:   2    -0.133613457988E+04   -0.66042E+02   -0.76183E+02  2560   0.618E+01    0.170E+01
DAV:   3    -0.133351884134E+04    0.26157E+01   -0.45169E+01  2608   0.171E+01    0.113E+01
DAV:   4    -0.133069092067E+04    0.28279E+01   -0.19518E+01  2384   0.843E+00    0.521E+00
DAV:   5    -0.133045566349E+04    0.23526E+00   -0.49609E+00  2536   0.495E+00    0.378E+00
DAV:   6    -0.133030219242E+04    0.15347E+00   -0.36612E+00  2600   0.338E+00    0.203E+00
DAV:   7    -0.133027032084E+04    0.31872E-01   -0.59678E-01  2520   0.195E+00    0.133E+00
DAV:   8    -0.133026369582E+04    0.66250E-02   -0.47706E-01  2608   0.118E+00    0.722E-01
DAV:   9    -0.133026567342E+04   -0.19776E-02   -0.76388E-02  2552   0.610E-01    0.587E-01
DAV:  10    -0.133026107721E+04    0.45962E-02   -0.41914E-02  2592   0.402E-01    0.238E-01
DAV:  11    -0.133026273574E+04   -0.16585E-02   -0.27459E-02  2552   0.291E-01    0.224E-01
DAV:  12    -0.133026246575E+04    0.26999E-03   -0.38449E-03  2608   0.137E-01    0.131E-01
DAV:  13    -0.133026233191E+04    0.13385E-03   -0.26810E-03  2544   0.885E-02    0.392E-02
DAV:  14    -0.133026237102E+04   -0.39111E-04   -0.48309E-04  2384   0.463E-02    0.162E-02
DAV:  15    -0.133026238392E+04   -0.12901E-04   -0.11592E-04  2592   0.212E-02    0.160E-02
DAV:  16    -0.133026238212E+04    0.17985E-05   -0.33860E-05  2568   0.130E-02    0.104E-02
DAV:  17    -0.133026238319E+04   -0.10693E-05   -0.27662E-05  2448   0.963E-03    0.448E-03
DAV:  18    -0.133026238324E+04   -0.49185E-07   -0.20339E-06  1144   0.464E-03
   2 F= -.13302624E+04 E0= -.13302624E+04  d E =-.147733E+02
 BRION: g(F)=  0.255E+03 g(S)=  0.000E+00 retain N=  1 mean eig= 0.30
 eig:   0.304
 bond charge predicted
       N       E                     dE             d eps       ncg     rms          rms(c)
DAV:   1    -0.131271218587E+04    0.17550E+02   -0.28810E+03  1320   0.608E+01    0.247E+01
DAV:   2    -0.134952267744E+04   -0.36810E+02   -0.48926E+02  2472   0.339E+01    0.207E+01
DAV:   3    -0.134462028724E+04    0.49024E+01   -0.46336E+01  2448   0.135E+01    0.142E+01
DAV:   4    -0.134174313739E+04    0.28771E+01   -0.40088E+01  2128   0.781E+00    0.536E+00
DAV:   5    -0.134242247268E+04   -0.67934E+00   -0.81094E+00  2480   0.456E+00    0.718E+00
DAV:   6    -0.134152957474E+04    0.89290E+00   -0.38681E+00  2536   0.291E+00    0.259E+00
DAV:   7    -0.134156528183E+04   -0.35707E-01   -0.24230E+00  2520   0.234E+00    0.163E+00
DAV:   8    -0.134153097261E+04    0.34309E-01   -0.34276E-01  2496   0.129E+00    0.910E-01
DAV:   9    -0.134153166654E+04   -0.69393E-03   -0.14003E-01  2568   0.628E-01    0.316E-01
DAV:  10    -0.134153274673E+04   -0.10802E-02   -0.16734E-02  2568   0.276E-01    0.198E-01
DAV:  11    -0.134153332580E+04   -0.57907E-03   -0.38526E-03  2624   0.121E-01    0.226E-01
DAV:  12    -0.134153251828E+04    0.80753E-03   -0.34835E-03  2568   0.108E-01    0.945E-02
DAV:  13    -0.134153256384E+04   -0.45564E-04   -0.18962E-03  2520   0.746E-02    0.256E-02
DAV:  14    -0.134153262980E+04   -0.65957E-04   -0.50373E-04  2616   0.405E-02    0.473E-02
DAV:  15    -0.134153259033E+04    0.39468E-04   -0.12433E-04  2472   0.307E-02    0.344E-02
DAV:  16    -0.134153258356E+04    0.67713E-05   -0.22499E-04  2376   0.215E-02    0.767E-03
DAV:  17    -0.134153258485E+04   -0.12901E-05   -0.24983E-05  2200   0.112E-02    0.413E-03
DAV:  18    -0.134153258465E+04    0.20275E-06   -0.24587E-06  1112   0.507E-03
   3 F= -.13415326E+04 E0= -.13415326E+04  d E =-.112702E+02
 BRION: g(F)=  0.488E+02 g(S)=  0.000E+00 retain N=  2 mean eig= 1.93
 eig:   0.169  3.688
 bond charge predicted
       N       E                     dE             d eps       ncg     rms          rms(c)
DAV:   1    -0.133765020981E+04    0.38824E+01   -0.11802E+03  1360   0.402E+01    0.115E+01
DAV:   2    -0.134787135862E+04   -0.10221E+02   -0.12567E+02  2376   0.210E+01    0.763E+00
DAV:   3    -0.134730054135E+04    0.57082E+00   -0.90183E+00  2408   0.734E+00    0.614E+00
DAV:   4    -0.134673897826E+04    0.56156E+00   -0.67940E+00  2128   0.375E+00    0.248E+00
DAV:   5    -0.134683332614E+04   -0.94348E-01   -0.16835E+00  2464   0.236E+00    0.335E+00
DAV:   6    -0.134663039618E+04    0.20293E+00   -0.10227E+00  2448   0.190E+00    0.121E+00
DAV:   7    -0.134664785144E+04   -0.17455E-01   -0.66258E-01  2432   0.126E+00    0.940E-01
DAV:   8    -0.134664535375E+04    0.24977E-02   -0.87401E-02  2552   0.587E-01    0.791E-01
DAV:   9    -0.134663711006E+04    0.82437E-02   -0.30981E-02  2416   0.305E-01    0.384E-01
DAV:  10    -0.134663635100E+04    0.75906E-03   -0.31580E-02  2336   0.259E-01    0.121E-01
DAV:  11    -0.134663641282E+04   -0.61826E-04   -0.42554E-03  2304   0.132E-01    0.685E-02
DAV:  12    -0.134663647969E+04   -0.66867E-04   -0.10906E-03  2400   0.542E-02    0.362E-02
DAV:  13    -0.134663649023E+04   -0.10544E-04   -0.19484E-04  2624   0.287E-02    0.293E-02
DAV:  14    -0.134663648745E+04    0.27873E-05   -0.13430E-04  2624   0.216E-02    0.136E-02
DAV:  15    -0.134663648809E+04   -0.64669E-06   -0.33393E-05  2472   0.121E-02    0.982E-03
DAV:  16    -0.134663648738E+04    0.71326E-06   -0.17694E-05  2096   0.784E-03    0.389E-03
DAV:  17    -0.134663648741E+04   -0.34910E-07   -0.24887E-06  1152   0.463E-03
   4 F= -.13466365E+04 E0= -.13466365E+04  d E =-.510390E+01
 BRION: g(F)=  0.104E+02 g(S)=  0.000E+00 retain N=  2 mean eig= 0.25
 eig:   0.246  0.246
 bond charge predicted
       N       E                     dE             d eps       ncg     rms          rms(c)
DAV:   1    -0.134882731268E+04   -0.21908E+01   -0.37174E+02  1368   0.271E+01    0.571E+00
DAV:   2    -0.135075481584E+04   -0.19275E+01   -0.20906E+01  2288   0.997E+00    0.269E+00
DAV:   3    -0.135077123570E+04   -0.16420E-01   -0.15323E+00  2608   0.241E+00    0.223E+00
DAV:   4    -0.135070452220E+04    0.66714E-01   -0.55098E-01  2448   0.144E+00    0.101E+00
DAV:   5    -0.135070648144E+04   -0.19592E-02   -0.14663E-01  2448   0.831E-01    0.780E-01
DAV:   6    -0.135070184642E+04    0.46350E-02   -0.12851E-01  2424   0.598E-01    0.316E-01
DAV:   7    -0.135070185471E+04   -0.82982E-05   -0.21928E-02  2416   0.308E-01    0.273E-01
DAV:   8    -0.135070144569E+04    0.40903E-03   -0.88277E-03  2440   0.159E-01    0.118E-01
DAV:   9    -0.135070150020E+04   -0.54517E-04   -0.37738E-03  2592   0.102E-01    0.800E-02
DAV:  10    -0.135070152826E+04   -0.28058E-04   -0.80107E-04  2344   0.584E-02    0.696E-02
DAV:  11    -0.135070147982E+04    0.48442E-04   -0.44241E-04  2440   0.379E-02    0.299E-02
DAV:  12    -0.135070148189E+04   -0.20735E-05   -0.20013E-04  2512   0.249E-02    0.176E-02
DAV:  13    -0.135070148588E+04   -0.39820E-05   -0.42826E-05  2544   0.137E-02    0.124E-02
DAV:  14    -0.135070148420E+04    0.16746E-05   -0.15108E-05  1952   0.768E-03    0.582E-03
DAV:  15    -0.135070148447E+04   -0.26939E-06   -0.76376E-06  1600   0.598E-03
   5 F= -.13507015E+04 E0= -.13507015E+04  d E =-.406500E+01
 BRION: g(F)=  0.446E+01 g(S)=  0.000E+00 retain N=  3 mean eig= 0.30
 eig:   0.194  0.087  0.627
 bond charge predicted
       N       E                     dE             d eps       ncg     rms          rms(c)
DAV:   1    -0.135162197572E+04   -0.92049E+00   -0.21995E+02  1392   0.204E+01    0.308E+00
DAV:   2    -0.135271667390E+04   -0.10947E+01   -0.11644E+01  2304   0.753E+00    0.155E+00
DAV:   3    -0.135273752542E+04   -0.20852E-01   -0.77843E-01  2616   0.162E+00    0.130E+00
DAV:   4    -0.135269900388E+04    0.38522E-01   -0.16005E-01  2568   0.858E-01    0.702E-01
DAV:   5    -0.135268764458E+04    0.11359E-01   -0.77836E-02  2408   0.558E-01    0.383E-01
DAV:   6    -0.135268814741E+04   -0.50283E-03   -0.42145E-02  2576   0.397E-01    0.276E-01
DAV:   7    -0.135268769048E+04    0.45693E-03   -0.15440E-02  2392   0.232E-01    0.190E-01
DAV:   8    -0.135268766406E+04    0.26423E-04   -0.52670E-03  2368   0.125E-01    0.992E-02
DAV:   9    -0.135268756303E+04    0.10102E-03   -0.12885E-03  2576   0.701E-02    0.636E-02
DAV:  10    -0.135268762569E+04   -0.62658E-04   -0.10807E-03  2368   0.553E-02    0.664E-02
DAV:  11    -0.135268756039E+04    0.65295E-04   -0.37037E-04  2520   0.421E-02    0.264E-02
DAV:  12    -0.135268757356E+04   -0.13162E-04   -0.27457E-04  2448   0.276E-02    0.204E-02
DAV:  13    -0.135268756974E+04    0.38112E-05   -0.48823E-05  2368   0.149E-02    0.935E-03
DAV:  14    -0.135268757025E+04   -0.50796E-06   -0.14520E-05  1848   0.752E-03    0.508E-03
DAV:  15    -0.135268757035E+04   -0.97381E-07   -0.18315E-06  1032   0.449E-03
   6 F= -.13526876E+04 E0= -.13526876E+04  d E =-.198609E+01
 BRION: g(F)=  0.274E+01 g(S)=  0.000E+00 retain N=  4 mean eig= 0.76
 eig:   1.300  0.185  0.783  0.783
 bond charge predicted
       N       E                     dE             d eps       ncg     rms          rms(c)
DAV:   1    -0.135242808113E+04    0.25949E+00   -0.50139E+02  1360   0.310E+01    0.457E+00
DAV:   2    -0.135493164720E+04   -0.25036E+01   -0.26246E+01  2296   0.114E+01    0.238E+00
DAV:   3    -0.135497997350E+04   -0.48326E-01   -0.17219E+00  2608   0.239E+00    0.196E+00
DAV:   4    -0.135489905163E+04    0.80922E-01   -0.39383E-01  2504   0.126E+00    0.986E-01
DAV:   5    -0.135488313317E+04    0.15918E-01   -0.13978E-01  2480   0.748E-01    0.563E-01
DAV:   6    -0.135488203085E+04    0.11023E-02   -0.59083E-02  2576   0.453E-01    0.267E-01
DAV:   7    -0.135488193719E+04    0.93669E-04   -0.17344E-02  2432   0.262E-01    0.179E-01
DAV:   8    -0.135488216853E+04   -0.23135E-03   -0.67852E-03  2464   0.141E-01    0.114E-01
DAV:   9    -0.135488201759E+04    0.15095E-03   -0.15707E-03  2616   0.823E-02    0.658E-02
DAV:  10    -0.135488207863E+04   -0.61047E-04   -0.14867E-03  2536   0.658E-02    0.615E-02
DAV:  11    -0.135488202392E+04    0.54719E-04   -0.48668E-04  2528   0.451E-02    0.237E-02
DAV:  12    -0.135488203424E+04   -0.10327E-04   -0.19241E-04  2544   0.258E-02    0.125E-02
DAV:  13    -0.135488203535E+04   -0.11035E-05   -0.27607E-05  2416   0.109E-02    0.880E-03
DAV:  14    -0.135488203552E+04   -0.17816E-06   -0.10031E-05  1680   0.647E-03    0.694E-03
DAV:  15    -0.135488203493E+04    0.59743E-06   -0.18362E-06  1032   0.527E-03
   7 F= -.13548820E+04 E0= -.13548820E+04  d E =-.219446E+01
 BRION: g(F)=  0.227E+01 g(S)=  0.000E+00 retain N=  5 mean eig= 0.80
 eig:   1.790  0.906  0.719  0.286  0.286
 bond charge predicted
       N       E                     dE             d eps       ncg     rms          rms(c)
DAV:   1    -0.135535457728E+04   -0.47254E+00   -0.60654E+01  1376   0.110E+01    0.177E+00
DAV:   2    -0.135565861133E+04   -0.30403E+00   -0.32872E+00  2312   0.418E+00    0.921E-01
DAV:   3    -0.135566778309E+04   -0.91718E-02   -0.26072E-01  2608   0.896E-01    0.707E-01
DAV:   4    -0.135565805657E+04    0.97265E-02   -0.46024E-02  2512   0.475E-01    0.363E-01
DAV:   5    -0.135565591989E+04    0.21367E-02   -0.18602E-02  2392   0.291E-01    0.179E-01
DAV:   6    -0.135565624851E+04   -0.32861E-03   -0.10476E-02  2560   0.193E-01    0.119E-01
DAV:   7    -0.135565621180E+04    0.36707E-04   -0.24073E-03  2392   0.101E-01    0.951E-02
DAV:   8    -0.135565618870E+04    0.23102E-04   -0.13376E-03  2408   0.606E-02    0.483E-02
DAV:   9    -0.135565616975E+04    0.18949E-04   -0.23519E-04  2600   0.360E-02    0.307E-02
DAV:  10    -0.135565617811E+04   -0.83591E-05   -0.30812E-04  2384   0.305E-02    0.296E-02
DAV:  11    -0.135565616838E+04    0.97233E-05   -0.96188E-05  2432   0.207E-02    0.124E-02
DAV:  12    -0.135565617104E+04   -0.26537E-05   -0.53096E-05  2296   0.126E-02    0.946E-03
DAV:  13    -0.135565617017E+04    0.87250E-06   -0.69722E-06  1536   0.693E-03
   8 F= -.13556562E+04 E0= -.13556562E+04  d E =-.774135E+00
 BRION: g(F)=  0.725E+00 g(S)=  0.000E+00 retain N=  6 mean eig= 1.36
 eig:   3.110  1.853  1.853  0.181  0.593  0.593
 bond charge predicted
       N       E                     dE             d eps       ncg     rms          rms(c)
DAV:   1    -0.135593625470E+04   -0.28008E+00   -0.66385E+01  1384   0.116E+01    0.149E+00
DAV:   2    -0.135628383414E+04   -0.34758E+00   -0.36943E+00  2288   0.448E+00    0.806E-01
DAV:   3    -0.135630033969E+04   -0.16506E-01   -0.28484E-01  2600   0.922E-01    0.650E-01
DAV:   4    -0.135629362515E+04    0.67145E-02   -0.36923E-02  2544   0.437E-01    0.403E-01
DAV:   5    -0.135629027150E+04    0.33537E-02   -0.17166E-02  2352   0.255E-01    0.170E-01
DAV:   6    -0.135629058565E+04   -0.31415E-03   -0.77919E-03  2448   0.167E-01    0.130E-01
DAV:   7    -0.135629050869E+04    0.76957E-04   -0.36345E-03  2480   0.116E-01    0.893E-02
DAV:   8    -0.135629053388E+04   -0.25194E-04   -0.17711E-03  2600   0.746E-02    0.593E-02
DAV:   9    -0.135629050625E+04    0.27640E-04   -0.31177E-04  2544   0.383E-02    0.409E-02
DAV:  10    -0.135629050563E+04    0.61948E-06   -0.24073E-04  2544   0.263E-02    0.227E-02
DAV:  11    -0.135629050496E+04    0.66387E-06   -0.90631E-05  2432   0.201E-02    0.109E-02
DAV:  12    -0.135629050526E+04   -0.29849E-06   -0.25149E-05  2216   0.120E-02    0.102E-02
DAV:  13    -0.135629050429E+04    0.97112E-06   -0.14437E-05  1808   0.701E-03    0.436E-03
DAV:  14    -0.135629050419E+04    0.97381E-07   -0.22258E-06  1056   0.485E-03
   9 F= -.13562905E+04 E0= -.13562905E+04  d E =-.634334E+00
 BRION: g(F)=  0.552E+00 g(S)=  0.000E+00 retain N=  7 mean eig= 1.85
 eig:   4.867  4.867  1.457  0.199  0.535  0.535  0.457
 bond charge predicted
       N       E                     dE             d eps       ncg     rms          rms(c)
DAV:   1    -0.135652141337E+04   -0.23091E+00   -0.62040E+01  1392   0.113E+01    0.143E+00
DAV:   2    -0.135685119502E+04   -0.32978E+00   -0.35071E+00  2296   0.450E+00    0.753E-01
DAV:   3    -0.135686815501E+04   -0.16960E-01   -0.27008E-01  2616   0.883E-01    0.614E-01
DAV:   4    -0.135686245200E+04    0.57030E-02   -0.31873E-02  2600   0.423E-01    0.398E-01
DAV:   5    -0.135685895976E+04    0.34922E-02   -0.15571E-02  2352   0.258E-01    0.163E-01
DAV:   6    -0.135685937963E+04   -0.41986E-03   -0.89786E-03  2456   0.182E-01    0.132E-01
DAV:   7    -0.135685931310E+04    0.66530E-04   -0.35297E-03  2448   0.116E-01    0.956E-02
DAV:   8    -0.135685930094E+04    0.12158E-04   -0.17303E-03  2600   0.748E-02    0.527E-02
DAV:   9    -0.135685928237E+04    0.18566E-04   -0.30482E-04  2560   0.379E-02    0.380E-02
DAV:  10    -0.135685928167E+04    0.70002E-06   -0.17290E-04  2536   0.239E-02    0.225E-02
DAV:  11    -0.135685928138E+04    0.29462E-06   -0.69958E-05  2432   0.177E-02    0.114E-02
DAV:  12    -0.135685928194E+04   -0.56277E-06   -0.23551E-05  2312   0.115E-02    0.105E-02
DAV:  13    -0.135685928101E+04    0.93585E-06   -0.17203E-05  1848   0.754E-03    0.468E-03
DAV:  14    -0.135685928094E+04    0.64756E-07   -0.24823E-06  1120   0.502E-03
  10 F= -.13568593E+04 E0= -.13568593E+04  d E =-.568777E+00
 BRION: g(F)=  0.483E+00 g(S)=  0.000E+00 retain N=  8 mean eig= 2.25
 eig:   6.958  6.958  0.867  0.955  0.955  0.230  0.555  0.555
 bond charge predicted
       N       E                     dE             d eps       ncg     rms          rms(c)
DAV:   1    -0.135705276417E+04   -0.19348E+00   -0.67395E+01  1400   0.117E+01    0.150E+00
DAV:   2    -0.135741293823E+04   -0.36017E+00   -0.38293E+00  2296   0.467E+00    0.743E-01
DAV:   3    -0.135743304589E+04   -0.20108E-01   -0.30011E-01  2600   0.924E-01    0.608E-01
DAV:   4    -0.135742772538E+04    0.53205E-02   -0.32790E-02  2600   0.433E-01    0.411E-01
DAV:   5    -0.135742364628E+04    0.40791E-02   -0.16015E-02  2344   0.261E-01    0.168E-01
DAV:   6    -0.135742404362E+04   -0.39735E-03   -0.10431E-02  2456   0.197E-01    0.136E-01
DAV:   7    -0.135742401217E+04    0.31455E-04   -0.45178E-03  2424   0.127E-01    0.103E-01
DAV:   8    -0.135742399286E+04    0.19304E-04   -0.18925E-03  2592   0.797E-02    0.573E-02
DAV:   9    -0.135742396772E+04    0.25144E-04   -0.36886E-04  2560   0.405E-02    0.391E-02
DAV:  10    -0.135742396956E+04   -0.18436E-05   -0.18153E-04  2536   0.245E-02    0.231E-02
DAV:  11    -0.135742397165E+04   -0.20834E-05   -0.78525E-05  2440   0.186E-02    0.143E-02
DAV:  12    -0.135742397014E+04    0.15070E-05   -0.27670E-05  2328   0.130E-02    0.118E-02
DAV:  13    -0.135742396945E+04    0.69439E-06   -0.27089E-05  2128   0.885E-03    0.572E-03
DAV:  14    -0.135742396922E+04    0.23046E-06   -0.31490E-06  1160   0.511E-03
  11 F= -.13574240E+04 E0= -.13574240E+04  d E =-.564688E+00
 BRION: g(F)=  0.317E+00 g(S)=  0.000E+00 retain N=  8 mean eig= 1.93
 eig:   6.697  2.415  2.017  2.017  0.644  0.644  0.398  0.581
 bond charge predicted
       N       E                     dE             d eps       ncg     rms          rms(c)
DAV:   1    -0.135756973722E+04   -0.14577E+00   -0.70802E+01  1400   0.121E+01    0.147E+00
DAV:   2    -0.135795396137E+04   -0.38422E+00   -0.40885E+00  2304   0.484E+00    0.759E-01
DAV:   3    -0.135797623807E+04   -0.22277E-01   -0.32433E-01  2608   0.961E-01    0.632E-01
DAV:   4    -0.135797134354E+04    0.48945E-02   -0.32551E-02  2616   0.441E-01    0.456E-01
DAV:   5    -0.135796585363E+04    0.54899E-02   -0.16095E-02  2368   0.269E-01    0.196E-01
DAV:   6    -0.135796599529E+04   -0.14167E-03   -0.14241E-02  2336   0.229E-01    0.142E-01
DAV:   7    -0.135796606779E+04   -0.72497E-04   -0.63034E-03  2408   0.149E-01    0.123E-01
DAV:   8    -0.135796600543E+04    0.62361E-04   -0.20071E-03  2616   0.863E-02    0.686E-02
DAV:   9    -0.135796595588E+04    0.49548E-04   -0.61655E-04  2568   0.482E-02    0.395E-02
DAV:  10    -0.135796596859E+04   -0.12712E-04   -0.20954E-04  2600   0.284E-02    0.279E-02
DAV:  11    -0.135796596941E+04   -0.81322E-06   -0.99083E-05  2416   0.199E-02    0.196E-02
DAV:  12    -0.135796596629E+04    0.31200E-05   -0.47896E-05  2304   0.158E-02    0.160E-02
DAV:  13    -0.135796596434E+04    0.19446E-05   -0.36704E-05  2200   0.107E-02    0.758E-03
DAV:  14    -0.135796596430E+04    0.42608E-07   -0.95689E-06  1760   0.603E-03
  12 F= -.13579660E+04 E0= -.13579660E+04  d E =-.541995E+00
 BRION: g(F)=  0.206E+00 g(S)=  0.000E+00 retain N=  8 mean eig= 1.81
 eig:   6.256  2.439  2.439  0.749  0.749  0.928  0.478  0.478
 bond charge predicted
       N       E                     dE             d eps       ncg     rms          rms(c)
DAV:   1    -0.135813577476E+04   -0.16981E+00   -0.25345E+01  1392   0.727E+00    0.904E-01
DAV:   2    -0.135827083307E+04   -0.13506E+00   -0.14458E+00  2296   0.286E+00    0.458E-01
DAV:   3    -0.135827834846E+04   -0.75154E-02   -0.11503E-01  2592   0.581E-01    0.378E-01
DAV:   4    -0.135827627874E+04    0.20697E-02   -0.12235E-02  2584   0.268E-01    0.261E-01
DAV:   5    -0.135827445367E+04    0.18251E-02   -0.68048E-03  2336   0.170E-01    0.104E-01
DAV:   6    -0.135827461484E+04   -0.16117E-03   -0.44483E-03  2432   0.128E-01    0.921E-02
DAV:   7    -0.135827458910E+04    0.25742E-04   -0.17935E-03  2408   0.804E-02    0.660E-02
DAV:   8    -0.135827457582E+04    0.13280E-04   -0.77929E-04  2616   0.517E-02    0.345E-02
DAV:   9    -0.135827456884E+04    0.69763E-05   -0.13360E-04  2448   0.255E-02    0.243E-02
DAV:  10    -0.135827456984E+04   -0.10013E-05   -0.69125E-05  2480   0.151E-02    0.138E-02
DAV:  11    -0.135827457005E+04   -0.20421E-06   -0.24072E-05  2320   0.112E-02    0.781E-03
DAV:  12    -0.135827457015E+04   -0.10034E-06   -0.10539E-05  1768   0.773E-03    0.732E-03
DAV:  13    -0.135827456951E+04    0.63826E-06   -0.59247E-06  1376   0.574E-03
  13 F= -.13582746E+04 E0= -.13582746E+04  d E =-.308605E+00
 BRION: g(F)=  0.182E+00 g(S)=  0.000E+00 retain N=  9 mean eig= 2.91
 eig:   7.893  7.893  5.674  0.875  0.875  1.006  1.006  0.470  0.470
 bond charge predicted
       N       E                     dE             d eps       ncg     rms          rms(c)
DAV:   1    -0.135834260735E+04   -0.68037E-01   -0.75254E+01  1392   0.124E+01    0.143E+00
DAV:   2    -0.135874083194E+04   -0.39822E+00   -0.42178E+00  2304   0.491E+00    0.735E-01
DAV:   3    -0.135876426562E+04   -0.23434E-01   -0.33206E-01  2584   0.963E-01    0.614E-01
DAV:   4    -0.135876032483E+04    0.39408E-02   -0.29989E-02  2608   0.420E-01    0.472E-01
DAV:   5    -0.135875373293E+04    0.65919E-02   -0.15109E-02  2336   0.266E-01    0.219E-01
DAV:   6    -0.135875337755E+04    0.35538E-03   -0.16956E-02  2224   0.246E-01    0.135E-01
DAV:   7    -0.135875361510E+04   -0.23755E-03   -0.79099E-03  2376   0.163E-01    0.131E-01
DAV:   8    -0.135875353598E+04    0.79123E-04   -0.18242E-03  2560   0.884E-02    0.822E-02
DAV:   9    -0.135875344421E+04    0.91774E-04   -0.86668E-04  2584   0.538E-02    0.401E-02
DAV:  10    -0.135875346619E+04   -0.21980E-04   -0.29889E-04  2552   0.343E-02    0.286E-02
DAV:  11    -0.135875346802E+04   -0.18367E-05   -0.10869E-04  2352   0.204E-02    0.225E-02
DAV:  12    -0.135875346531E+04    0.27108E-05   -0.77498E-05  2312   0.185E-02    0.206E-02
DAV:  13    -0.135875346136E+04    0.39522E-05   -0.46563E-05  2240   0.131E-02    0.121E-02
DAV:  14    -0.135875346050E+04    0.85453E-06   -0.15490E-05  1872   0.736E-03    0.413E-03
DAV:  15    -0.135875346045E+04    0.49826E-07   -0.16325E-06  1008   0.428E-03
  14 F= -.13587535E+04 E0= -.13587535E+04  d E =-.478891E+00
 BRION: g(F)=  0.150E+00 g(S)=  0.000E+00 retain N=  7 mean eig= 2.57
 eig:   6.998  6.998  1.271  1.271  0.685  0.685  0.074
 bond charge predicted
       N       E                     dE             d eps       ncg     rms          rms(c)
DAV:   1    -0.135883614836E+04   -0.82688E-01   -0.60137E+01  1384   0.110E+01    0.129E+00
DAV:   2    -0.135914967155E+04   -0.31352E+00   -0.33235E+00  2296   0.434E+00    0.658E-01
DAV:   3    -0.135916748047E+04   -0.17809E-01   -0.26348E-01  2592   0.861E-01    0.539E-01
DAV:   4    -0.135916345604E+04    0.40244E-02   -0.24360E-02  2584   0.378E-01    0.394E-01
DAV:   5    -0.135915866413E+04    0.47919E-02   -0.13165E-02  2320   0.240E-01    0.169E-01
DAV:   6    -0.135915869064E+04   -0.26510E-04   -0.11222E-02  2288   0.199E-01    0.123E-01
DAV:   7    -0.135915876367E+04   -0.73034E-04   -0.47099E-03  2456   0.128E-01    0.105E-01
DAV:   8    -0.135915870665E+04    0.57028E-04   -0.15239E-03  2576   0.762E-02    0.580E-02
DAV:   9    -0.135915867067E+04    0.35972E-04   -0.46467E-04  2432   0.418E-02    0.331E-02
DAV:  10    -0.135915868162E+04   -0.10950E-04   -0.17292E-04  2464   0.246E-02    0.227E-02
DAV:  11    -0.135915868104E+04    0.58109E-06   -0.59911E-05  2400   0.165E-02    0.151E-02
DAV:  12    -0.135915868029E+04    0.74744E-06   -0.35179E-05  2280   0.124E-02    0.139E-02
DAV:  13    -0.135915867830E+04    0.19914E-05   -0.23454E-05  2008   0.894E-03    0.655E-03
DAV:  14    -0.135915867809E+04    0.21103E-06   -0.45344E-06  1288   0.548E-03
  15 F= -.13591587E+04 E0= -.13591587E+04  d E =-.405218E+00
 BRION: g(F)=  0.132E+00 g(S)=  0.000E+00 retain N=  4 mean eig= 4.76
 eig:   7.897  7.897  1.616  1.616
 bond charge predicted
       N       E                     dE             d eps       ncg     rms          rms(c)
DAV:   1    -0.135925014428E+04   -0.91466E-01   -0.36243E+01  1384   0.852E+00    0.971E-01
DAV:   2    -0.135943059549E+04   -0.18045E+00   -0.18987E+00  2296   0.328E+00    0.501E-01
DAV:   3    -0.135944079214E+04   -0.10197E-01   -0.14838E-01  2592   0.642E-01    0.407E-01
DAV:   4    -0.135943847244E+04    0.23197E-02   -0.13171E-02  2568   0.274E-01    0.294E-01
DAV:   5    -0.135943579311E+04    0.26793E-02   -0.74511E-03  2272   0.184E-01    0.116E-01
DAV:   6    -0.135943596667E+04   -0.17356E-03   -0.61025E-03  2344   0.143E-01    0.937E-02
DAV:   7    -0.135943596656E+04    0.11090E-06   -0.19219E-03  2424   0.836E-02    0.741E-02
DAV:   8    -0.135943593973E+04    0.26833E-04   -0.77502E-04  2584   0.518E-02    0.369E-02
DAV:   9    -0.135943592363E+04    0.16097E-04   -0.18741E-04  2256   0.283E-02    0.229E-02
DAV:  10    -0.135943592662E+04   -0.29900E-05   -0.64245E-05  2376   0.154E-02    0.137E-02
DAV:  11    -0.135943592569E+04    0.92901E-06   -0.16667E-05  2120   0.920E-03    0.671E-03
DAV:  12    -0.135943592623E+04   -0.53829E-06   -0.10963E-05  1824   0.674E-03    0.608E-03
DAV:  13    -0.135943592575E+04    0.47951E-06   -0.17328E-06   984   0.466E-03
  16 F= -.13594359E+04 E0= -.13594359E+04  d E =-.277248E+00
 BRION: g(F)=  0.118E+00 g(S)=  0.000E+00 retain N=  3 mean eig= 3.96
 eig:   5.213  5.213  1.468
 bond charge predicted
       N       E                     dE             d eps       ncg     rms          rms(c)
DAV:   1    -0.135954108415E+04   -0.10516E+00   -0.15478E+01  1376   0.557E+00    0.659E-01
DAV:   2    -0.135961874278E+04   -0.77659E-01   -0.81945E-01  2304   0.216E+00    0.338E-01
DAV:   3    -0.135962295304E+04   -0.42103E-02   -0.64067E-02  2584   0.413E-01    0.270E-01
DAV:   4    -0.135962169049E+04    0.12625E-02   -0.63008E-03  2552   0.187E-01    0.181E-01
DAV:   5    -0.135962073668E+04    0.95381E-03   -0.35103E-03  2288   0.123E-01    0.670E-02
DAV:   6    -0.135962084761E+04   -0.11093E-03   -0.21037E-03  2448   0.859E-02    0.612E-02
DAV:   7    -0.135962083511E+04    0.12501E-04   -0.66692E-04  2464   0.501E-02    0.431E-02
DAV:   8    -0.135962082674E+04    0.83688E-05   -0.28730E-04  2552   0.313E-02    0.217E-02
DAV:   9    -0.135962082335E+04    0.33933E-05   -0.54552E-05  2304   0.161E-02    0.153E-02
DAV:  10    -0.135962082370E+04   -0.35067E-06   -0.31416E-05  2200   0.107E-02    0.839E-03
DAV:  11    -0.135962082324E+04    0.45585E-06   -0.52586E-06  1344   0.716E-03
  17 F= -.13596208E+04 E0= -.13596208E+04  d E =-.184897E+00
 BRION: g(F)=  0.112E+00 g(S)=  0.000E+00 retain N=  4 mean eig= 4.46
 eig:   7.491  7.491  1.424  1.424
 bond charge predicted
       N       E                     dE             d eps       ncg     rms          rms(c)
DAV:   1    -0.135971397313E+04   -0.93149E-01   -0.23238E+01  1336   0.678E+00    0.754E-01
DAV:   2    -0.135982666717E+04   -0.11269E+00   -0.11814E+00  2288   0.258E+00    0.395E-01
DAV:   3    -0.135983298019E+04   -0.63130E-02   -0.91918E-02  2592   0.500E-01    0.316E-01
DAV:   4    -0.135983152425E+04    0.14559E-02   -0.80461E-03  2576   0.211E-01    0.226E-01
DAV:   5    -0.135982994241E+04    0.15818E-02   -0.44927E-03  2232   0.141E-01    0.897E-02
DAV:   6    -0.135983003936E+04   -0.96946E-04   -0.34806E-03  2376   0.107E-01    0.724E-02
DAV:   7    -0.135983004219E+04   -0.28340E-05   -0.11305E-03  2400   0.630E-02    0.562E-02
DAV:   8    -0.135983002675E+04    0.15442E-04   -0.46581E-04  2560   0.405E-02    0.288E-02
DAV:   9    -0.135983001770E+04    0.90480E-05   -0.11589E-04  2216   0.221E-02    0.182E-02
DAV:  10    -0.135983001919E+04   -0.14890E-05   -0.45412E-05  2328   0.129E-02    0.106E-02
DAV:  11    -0.135983001851E+04    0.68222E-06   -0.90659E-06  1720   0.779E-03
  18 F= -.13598300E+04 E0= -.13598300E+04  d E =-.209195E+00
 BRION: g(F)=  0.101E+00 g(S)=  0.000E+00 retain N=  4 mean eig= 4.01
 eig:   6.529  6.529  1.485  1.485
 bond charge predicted
       N       E                     dE             d eps       ncg     rms          rms(c)
DAV:   1    -0.135990002404E+04   -0.70005E-01   -0.38100E+01  1352   0.870E+00    0.983E-01
DAV:   2    -0.136008730911E+04   -0.18729E+00   -0.19677E+00  2296   0.333E+00    0.512E-01
DAV:   3    -0.136009786774E+04   -0.10559E-01   -0.15455E-01  2592   0.651E-01    0.407E-01
DAV:   4    -0.136009532083E+04    0.25469E-02   -0.14024E-02  2576   0.277E-01    0.286E-01
DAV:   5    -0.136009284647E+04    0.24744E-02   -0.74830E-03  2296   0.180E-01    0.113E-01
DAV:   6    -0.136009301279E+04   -0.16632E-03   -0.53211E-03  2408   0.134E-01    0.885E-02
DAV:   7    -0.136009300423E+04    0.85598E-05   -0.16698E-03  2432   0.784E-02    0.664E-02
DAV:   8    -0.136009299030E+04    0.13926E-04   -0.74101E-04  2560   0.500E-02    0.356E-02
DAV:   9    -0.136009297868E+04    0.11625E-04   -0.16629E-04  2288   0.269E-02    0.238E-02
DAV:  10    -0.136009297970E+04   -0.10208E-05   -0.75739E-05  2392   0.164E-02    0.131E-02
DAV:  11    -0.136009297940E+04    0.29529E-06   -0.18889E-05  2168   0.101E-02    0.665E-03
DAV:  12    -0.136009298019E+04   -0.78768E-06   -0.13446E-05  1872   0.691E-03    0.670E-03
DAV:  13    -0.136009297944E+04    0.75040E-06   -0.19959E-06  1000   0.504E-03
  19 F= -.13600930E+04 E0= -.13600930E+04  d E =-.262961E+00
 BRION: g(F)=  0.936E-01 g(S)=  0.000E+00 retain N=  4 mean eig= 4.09
 eig:   6.811  6.811  1.374  1.374
 bond charge predicted
       N       E                     dE             d eps       ncg     rms          rms(c)
DAV:   1    -0.136013161618E+04   -0.38636E-01   -0.44802E+01  1352   0.941E+00    0.106E+00
DAV:   2    -0.136035092801E+04   -0.21931E+00   -0.23012E+00  2288   0.361E+00    0.551E-01
DAV:   3    -0.136036343703E+04   -0.12509E-01   -0.18127E-01  2592   0.703E-01    0.440E-01
DAV:   4    -0.136036070110E+04    0.27359E-02   -0.16215E-02  2584   0.297E-01    0.313E-01
DAV:   5    -0.136035774317E+04    0.29579E-02   -0.80721E-03  2288   0.189E-01    0.130E-01
DAV:   6    -0.136035783139E+04   -0.88220E-04   -0.64482E-03  2336   0.147E-01    0.930E-02
DAV:   7    -0.136035784578E+04   -0.14390E-04   -0.22547E-03  2424   0.902E-02    0.735E-02
DAV:   8    -0.136035782580E+04    0.19982E-04   -0.87161E-04  2560   0.556E-02    0.410E-02
DAV:   9    -0.136035781031E+04    0.15491E-04   -0.24181E-04  2360   0.311E-02    0.254E-02
DAV:  10    -0.136035781337E+04   -0.30643E-05   -0.96629E-05  2416   0.184E-02    0.158E-02
DAV:  11    -0.136035781259E+04    0.78189E-06   -0.26269E-05  2280   0.117E-02    0.861E-03
DAV:  12    -0.136035781324E+04   -0.64370E-06   -0.20180E-05  2016   0.858E-03    0.828E-03
DAV:  13    -0.136035781246E+04    0.77575E-06   -0.72276E-06  1664   0.610E-03
  20 F= -.13603578E+04 E0= -.13603578E+04  d E =-.264833E+00
 BRION: g(F)=  0.802E-01 g(S)=  0.000E+00 retain N=  3 mean eig= 3.43
 eig:   4.538  4.538  1.222
