 running on  160 total cores
 distrk:  each k-point on  160 cores,    1 groups
 distr:  one band on   20 cores,    8 groups
 using from now: INCAR     
 vasp.5.4.4.18Apr17-6-g9f103f2a35 (build May 01 2020 14:22:42) gamma-only       
  
 POSCAR found type information on POSCAR  O  La Zr Li Al
 POSCAR found :  5 types and     186 ions
 scaLAPACK will be used
 LDA part: xc-table for Pade appr. of Perdew
 POSCAR, INCAR and KPOINTS ok, starting setup
 FFT: planning ...
 WAVECAR not read
 WARNING: random wavefunctions but no delay for mixing, default for NELMDL
 entering main loop
       N       E                     dE             d eps       ncg     rms          rms(c)
DAV:   1     0.253039056790E+05    0.25304E+05   -0.42075E+05  1584   0.253E+03
DAV:   2     0.936261885160E+04   -0.15941E+05   -0.14701E+05  1416   0.704E+02
DAV:   3     0.267255626148E+04   -0.66901E+04   -0.60893E+04  1480   0.357E+02
DAV:   4    -0.358106385668E+03   -0.30307E+04   -0.28255E+04  2040   0.220E+02
DAV:   5    -0.139625713556E+04   -0.10382E+04   -0.99430E+03  2528   0.141E+02    0.116E+02
DAV:   6    -0.129727325621E+04    0.98984E+02   -0.15079E+03  2432   0.663E+01    0.502E+01
DAV:   7    -0.132069830825E+04   -0.23425E+02   -0.41306E+02  2568   0.343E+01    0.261E+01
DAV:   8    -0.132609021613E+04   -0.53919E+01   -0.25110E+02  2536   0.271E+01    0.243E+01
DAV:   9    -0.132156401691E+04    0.45262E+01   -0.45282E+01  2528   0.143E+01    0.795E+00
DAV:  10    -0.132223988460E+04   -0.67587E+00   -0.15239E+01  2624   0.762E+00    0.690E+00
DAV:  11    -0.132256921006E+04   -0.32933E+00   -0.57400E+00  2624   0.417E+00    0.416E+00
DAV:  12    -0.132242413500E+04    0.14508E+00   -0.21498E+00  2544   0.338E+00    0.255E+00
DAV:  13    -0.132246746988E+04   -0.43335E-01   -0.83043E-01  2560   0.167E+00    0.160E+00
DAV:  14    -0.132246307743E+04    0.43925E-02   -0.23279E-01  2624   0.991E-01    0.933E-01
DAV:  15    -0.132246945696E+04   -0.63795E-02   -0.76083E-02  2576   0.528E-01    0.711E-01
DAV:  16    -0.132246997443E+04   -0.51748E-03   -0.31510E-02  2584   0.328E-01    0.435E-01
DAV:  17    -0.132246911563E+04    0.85880E-03   -0.21247E-02  2528   0.276E-01    0.196E-01
DAV:  18    -0.132246934674E+04   -0.23110E-03   -0.43228E-03  2520   0.146E-01    0.110E-01
DAV:  19    -0.132246933696E+04    0.97821E-05   -0.25902E-03  2496   0.920E-02    0.779E-02
DAV:  20    -0.132246938999E+04   -0.53034E-04   -0.57097E-04  2584   0.473E-02    0.274E-02
DAV:  21    -0.132246940538E+04   -0.15392E-04   -0.19473E-04  2624   0.252E-02    0.315E-02
DAV:  22    -0.132246942022E+04   -0.14843E-04   -0.65602E-05  2312   0.151E-02    0.159E-02
DAV:  23    -0.132246942027E+04   -0.46610E-07   -0.36896E-05  2000   0.975E-03    0.638E-03
DAV:  24    -0.132246942467E+04   -0.43982E-05   -0.94099E-06  1192   0.778E-03    0.289E-03
DAV:  25    -0.132246942459E+04    0.81665E-07   -0.42703E-06  1000   0.506E-03
   1 F= -.13224694E+04 E0= -.13224694E+04  d E =-.132247E+04
 BRION: g(F)=  0.677E+02 g(S)=  0.000E+00
 bond charge predicted
       N       E                     dE             d eps       ncg     rms          rms(c)
DAV:   1    -0.127262087623E+04    0.49849E+02   -0.88476E+03  1648   0.139E+02    0.344E+01
DAV:   2    -0.134168232825E+04   -0.69061E+02   -0.79540E+02  2576   0.621E+01    0.164E+01
DAV:   3    -0.133899714046E+04    0.26852E+01   -0.45076E+01  2616   0.172E+01    0.106E+01
DAV:   4    -0.133662582686E+04    0.23713E+01   -0.16768E+01  2376   0.841E+00    0.490E+00
DAV:   5    -0.133648764528E+04    0.13818E+00   -0.47749E+00  2512   0.473E+00    0.347E+00
DAV:   6    -0.133639889824E+04    0.88747E-01   -0.29266E+00  2600   0.293E+00    0.177E+00
DAV:   7    -0.133637484947E+04    0.24049E-01   -0.39643E-01  2552   0.166E+00    0.108E+00
DAV:   8    -0.133637762215E+04   -0.27727E-02   -0.40229E-01  2584   0.107E+00    0.741E-01
DAV:   9    -0.133637547663E+04    0.21455E-02   -0.57914E-02  2536   0.555E-01    0.518E-01
DAV:  10    -0.133637365676E+04    0.18199E-02   -0.38448E-02  2512   0.330E-01    0.207E-01
DAV:  11    -0.133637477536E+04   -0.11186E-02   -0.17852E-02  2584   0.233E-01    0.193E-01
DAV:  12    -0.133637449737E+04    0.27800E-03   -0.30510E-03  2536   0.121E-01    0.122E-01
DAV:  13    -0.133637441182E+04    0.85545E-04   -0.27277E-03  2576   0.863E-02    0.261E-02
DAV:  14    -0.133637444497E+04   -0.33145E-04   -0.30987E-04  2608   0.393E-02    0.149E-02
DAV:  15    -0.133637445297E+04   -0.80000E-05   -0.60341E-05  2624   0.166E-02    0.113E-02
DAV:  16    -0.133637445227E+04    0.69384E-06   -0.21800E-05  2224   0.112E-02    0.720E-03
DAV:  17    -0.133637445348E+04   -0.12115E-05   -0.15036E-05  2096   0.775E-03    0.376E-03
DAV:  18    -0.133637445356E+04   -0.77533E-07   -0.13344E-06  1016   0.416E-03
   2 F= -.13363745E+04 E0= -.13363745E+04  d E =-.139050E+02
 BRION: g(F)=  0.170E+03 g(S)=  0.000E+00 retain N=  1 mean eig= 0.35
 eig:   0.349
 bond charge predicted
       N       E                     dE             d eps       ncg     rms          rms(c)
DAV:   1    -0.132099117408E+04    0.15383E+02   -0.28207E+03  1320   0.674E+01    0.237E+01
DAV:   2    -0.135326901528E+04   -0.32278E+02   -0.41544E+02  2488   0.340E+01    0.194E+01
DAV:   3    -0.134984189186E+04    0.34271E+01   -0.31999E+01  2552   0.122E+01    0.143E+01
DAV:   4    -0.134817076909E+04    0.16711E+01   -0.44017E+01  2096   0.832E+00    0.733E+00
DAV:   5    -0.134864233597E+04   -0.47157E+00   -0.80981E+00  2368   0.443E+00    0.861E+00
DAV:   6    -0.134730491315E+04    0.13374E+01   -0.90233E+00  2456   0.340E+00    0.154E+00
DAV:   7    -0.134738126312E+04   -0.76350E-01   -0.14113E+00  2456   0.218E+00    0.997E-01
DAV:   8    -0.134738442942E+04   -0.31663E-02   -0.18981E-01  2616   0.933E-01    0.859E-01
DAV:   9    -0.134737563767E+04    0.87917E-02   -0.68109E-02  2512   0.458E-01    0.388E-01
DAV:  10    -0.134737614165E+04   -0.50398E-03   -0.24368E-02  2584   0.274E-01    0.153E-01
DAV:  11    -0.134737626668E+04   -0.12503E-03   -0.50723E-03  2624   0.151E-01    0.102E-01
DAV:  12    -0.134737632317E+04   -0.56495E-04   -0.26241E-03  2616   0.897E-02    0.743E-02
DAV:  13    -0.134737629756E+04    0.25617E-04   -0.54733E-04  2616   0.544E-02    0.574E-02
DAV:  14    -0.134737626270E+04    0.34853E-04   -0.42225E-04  2408   0.345E-02    0.240E-02
DAV:  15    -0.134737626986E+04   -0.71564E-05   -0.17592E-04  2600   0.245E-02    0.121E-02
DAV:  16    -0.134737626949E+04    0.37136E-06   -0.23572E-05  2496   0.117E-02    0.660E-03
DAV:  17    -0.134737626984E+04   -0.35252E-06   -0.11275E-05  1936   0.619E-03    0.251E-03
DAV:  18    -0.134737626977E+04    0.75612E-07   -0.71186E-07   992   0.365E-03
   3 F= -.13473763E+04 E0= -.13473763E+04  d E =-.110018E+02
 BRION: g(F)=  0.148E+02 g(S)=  0.000E+00 retain N=  2 mean eig= 2.49
 eig:   0.222  4.760
 bond charge predicted
       N       E                     dE             d eps       ncg     rms          rms(c)
DAV:   1    -0.134825499903E+04   -0.87873E+00   -0.71040E+02  1368   0.376E+01    0.750E+00
DAV:   2    -0.135212294946E+04   -0.38680E+01   -0.45231E+01  2288   0.150E+01    0.411E+00
DAV:   3    -0.135221483591E+04   -0.91886E-01   -0.41116E+00  2600   0.436E+00    0.345E+00
DAV:   4    -0.135206696155E+04    0.14787E+00   -0.84007E-01  2560   0.196E+00    0.193E+00
DAV:   5    -0.135201946183E+04    0.47500E-01   -0.46814E-01  2192   0.147E+00    0.110E+00
DAV:   6    -0.135201716715E+04    0.22947E-02   -0.29510E-01  2504   0.104E+00    0.833E-01
DAV:   7    -0.135201501505E+04    0.21521E-02   -0.13775E-01  2536   0.661E-01    0.515E-01
DAV:   8    -0.135201350221E+04    0.15128E-02   -0.19094E-02  2592   0.300E-01    0.321E-01
DAV:   9    -0.135201304042E+04    0.46180E-03   -0.94853E-03  2600   0.183E-01    0.164E-01
DAV:  10    -0.135201329915E+04   -0.25873E-03   -0.39103E-03  2240   0.112E-01    0.137E-01
DAV:  11    -0.135201302068E+04    0.27847E-03   -0.16641E-03  2552   0.797E-02    0.468E-02
DAV:  12    -0.135201304787E+04   -0.27188E-04   -0.78621E-04  2528   0.542E-02    0.343E-02
DAV:  13    -0.135201304622E+04    0.16532E-05   -0.16790E-04  2592   0.277E-02    0.196E-02
DAV:  14    -0.135201304736E+04   -0.11432E-05   -0.88211E-05  2488   0.160E-02    0.813E-03
DAV:  15    -0.135201304831E+04   -0.95337E-06   -0.12264E-05  2000   0.843E-03    0.383E-03
DAV:  16    -0.135201304853E+04   -0.21853E-06   -0.14243E-06  1056   0.422E-03
   4 F= -.13520130E+04 E0= -.13520130E+04  d E =-.463678E+01
 BRION: g(F)=  0.540E+01 g(S)=  0.000E+00 retain N=  2 mean eig= 0.40
 eig:   0.401  0.401
 bond charge predicted
       N       E                     dE             d eps       ncg     rms          rms(c)
DAV:   1    -0.135323514549E+04   -0.12221E+01   -0.22685E+02  1368   0.212E+01    0.366E+00
DAV:   2    -0.135437269485E+04   -0.11375E+01   -0.12528E+01  2304   0.808E+00    0.182E+00
DAV:   3    -0.135438894267E+04   -0.16248E-01   -0.90651E-01  2616   0.182E+00    0.150E+00
DAV:   4    -0.135434615932E+04    0.42783E-01   -0.24887E-01  2528   0.103E+00    0.733E-01
DAV:   5    -0.135433996964E+04    0.61897E-02   -0.83723E-02  2408   0.626E-01    0.506E-01
DAV:   6    -0.135433926540E+04    0.70424E-03   -0.65242E-02  2512   0.470E-01    0.273E-01
DAV:   7    -0.135433925727E+04    0.81351E-05   -0.16970E-02  2352   0.249E-01    0.231E-01
DAV:   8    -0.135433910973E+04    0.14754E-03   -0.60011E-03  2288   0.130E-01    0.122E-01
DAV:   9    -0.135433898858E+04    0.12115E-03   -0.24011E-03  2576   0.874E-02    0.741E-02
DAV:  10    -0.135433906165E+04   -0.73071E-04   -0.12501E-03  2528   0.665E-02    0.848E-02
DAV:  11    -0.135433897882E+04    0.82826E-04   -0.56962E-04  2448   0.457E-02    0.331E-02
DAV:  12    -0.135433898331E+04   -0.44844E-05   -0.24187E-04  2416   0.299E-02    0.170E-02
DAV:  13    -0.135433898756E+04   -0.42588E-05   -0.58204E-05  2376   0.147E-02    0.107E-02
DAV:  14    -0.135433898723E+04    0.33618E-06   -0.16788E-05  1880   0.790E-03    0.628E-03
DAV:  15    -0.135433898743E+04   -0.19745E-06   -0.30515E-06  1104   0.556E-03
   5 F= -.13543390E+04 E0= -.13543390E+04  d E =-.232594E+01
 BRION: g(F)=  0.308E+01 g(S)=  0.000E+00 retain N=  3 mean eig= 0.37
 eig:   0.509  0.295  0.295
 bond charge predicted
       N       E                     dE             d eps       ncg     rms          rms(c)
DAV:   1    -0.135512135735E+04   -0.78237E+00   -0.33486E+02  1344   0.255E+01    0.352E+00
DAV:   2    -0.135679858572E+04   -0.16772E+01   -0.17724E+01  2288   0.945E+00    0.194E+00
DAV:   3    -0.135684953902E+04   -0.50953E-01   -0.12412E+00  2624   0.206E+00    0.167E+00
DAV:   4    -0.135680879479E+04    0.40744E-01   -0.21108E-01  2584   0.964E-01    0.983E-01
DAV:   5    -0.135678795504E+04    0.20840E-01   -0.10720E-01  2344   0.640E-01    0.445E-01
DAV:   6    -0.135679058460E+04   -0.26296E-02   -0.55746E-02  2528   0.450E-01    0.439E-01
DAV:   7    -0.135678841798E+04    0.21666E-02   -0.25101E-02  2472   0.296E-01    0.253E-01
DAV:   8    -0.135678837548E+04    0.42503E-04   -0.10845E-02  2504   0.177E-01    0.110E-01
DAV:   9    -0.135678830607E+04    0.69403E-04   -0.16228E-03  2456   0.827E-02    0.787E-02
DAV:  10    -0.135678833675E+04   -0.30678E-04   -0.90377E-04  2352   0.521E-02    0.480E-02
DAV:  11    -0.135678830939E+04    0.27365E-04   -0.25202E-04  2544   0.368E-02    0.197E-02
DAV:  12    -0.135678832498E+04   -0.15595E-04   -0.21949E-04  2480   0.252E-02    0.252E-02
DAV:  13    -0.135678831618E+04    0.88060E-05   -0.75930E-05  2304   0.166E-02    0.924E-03
DAV:  14    -0.135678831690E+04   -0.72409E-06   -0.14481E-05  1872   0.853E-03    0.524E-03
DAV:  15    -0.135678831708E+04   -0.18191E-06   -0.48041E-06  1384   0.504E-03
   6 F= -.13567883E+04 E0= -.13567883E+04  d E =-.244933E+01
 BRION: g(F)=  0.151E+01 g(S)=  0.000E+00 retain N=  4 mean eig= 0.66
 eig:   0.657  0.657  0.347  0.966
 bond charge predicted
       N       E                     dE             d eps       ncg     rms          rms(c)
DAV:   1    -0.135700006781E+04   -0.21175E+00   -0.27358E+02  1360   0.234E+01    0.345E+00
DAV:   2    -0.135836796652E+04   -0.13679E+01   -0.14473E+01  2288   0.860E+00    0.172E+00
DAV:   3    -0.135841384214E+04   -0.45876E-01   -0.10501E+00  2624   0.187E+00    0.133E+00
DAV:   4    -0.135838017278E+04    0.33669E-01   -0.19036E-01  2528   0.939E-01    0.701E-01
DAV:   5    -0.135837470332E+04    0.54695E-02   -0.64241E-02  2488   0.516E-01    0.360E-01
DAV:   6    -0.135837533500E+04   -0.63168E-03   -0.27359E-02  2560   0.305E-01    0.180E-01
DAV:   7    -0.135837530538E+04    0.29624E-04   -0.66063E-03  2288   0.177E-01    0.130E-01
DAV:   8    -0.135837543460E+04   -0.12922E-03   -0.34752E-03  2360   0.980E-02    0.776E-02
DAV:   9    -0.135837537188E+04    0.62721E-04   -0.64210E-04  2624   0.598E-02    0.476E-02
DAV:  10    -0.135837539285E+04   -0.20971E-04   -0.69716E-04  2576   0.436E-02    0.348E-02
DAV:  11    -0.135837538225E+04    0.10597E-04   -0.14039E-04  2520   0.258E-02    0.171E-02
DAV:  12    -0.135837538463E+04   -0.23767E-05   -0.67174E-05  2488   0.145E-02    0.879E-03
DAV:  13    -0.135837538440E+04    0.22496E-06   -0.10634E-05  1840   0.804E-03    0.498E-03
DAV:  14    -0.135837538456E+04   -0.15742E-06   -0.52866E-06  1368   0.564E-03
   7 F= -.13583754E+04 E0= -.13583754E+04  d E =-.158707E+01
 BRION: g(F)=  0.698E+00 g(S)=  0.000E+00 retain N=  5 mean eig= 0.96
 eig:   1.696  1.696  0.493  0.493  0.403
 bond charge predicted
       N       E                     dE             d eps       ncg     rms          rms(c)
DAV:   1    -0.135874991325E+04   -0.37453E+00   -0.68382E+01  1360   0.118E+01    0.165E+00
DAV:   2    -0.135909658133E+04   -0.34667E+00   -0.36903E+00  2304   0.456E+00    0.812E-01
DAV:   3    -0.135911374671E+04   -0.17165E-01   -0.28735E-01  2616   0.899E-01    0.652E-01
DAV:   4    -0.135910687911E+04    0.68676E-02   -0.39772E-02  2560   0.456E-01    0.381E-01
DAV:   5    -0.135910438765E+04    0.24915E-02   -0.17491E-02  2416   0.280E-01    0.171E-01
DAV:   6    -0.135910487498E+04   -0.48733E-03   -0.83644E-03  2512   0.177E-01    0.133E-01
DAV:   7    -0.135910475779E+04    0.11719E-03   -0.28525E-03  2496   0.109E-01    0.905E-02
DAV:   8    -0.135910477227E+04   -0.14480E-04   -0.17776E-03  2520   0.719E-02    0.532E-02
DAV:   9    -0.135910474857E+04    0.23695E-04   -0.25962E-04  2504   0.371E-02    0.389E-02
DAV:  10    -0.135910474378E+04    0.47882E-05   -0.26853E-04  2352   0.291E-02    0.214E-02
DAV:  11    -0.135910474351E+04    0.27473E-06   -0.68541E-05  2400   0.189E-02    0.939E-03
DAV:  12    -0.135910474599E+04   -0.24788E-05   -0.33279E-05  2320   0.103E-02    0.992E-03
DAV:  13    -0.135910474476E+04    0.12257E-05   -0.10246E-05  1696   0.720E-03    0.424E-03
DAV:  14    -0.135910474485E+04   -0.84285E-07   -0.42369E-06  1248   0.553E-03
   8 F= -.13591047E+04 E0= -.13591047E+04  d E =-.729360E+00
 BRION: g(F)=  0.593E+00 g(S)=  0.000E+00 retain N=  6 mean eig= 1.18
 eig:   2.358  2.358  0.585  0.585  0.364  0.807
 bond charge predicted
       N       E                     dE             d eps       ncg     rms          rms(c)
DAV:   1    -0.135931450958E+04   -0.20976E+00   -0.12420E+02  1376   0.161E+01    0.198E+00
DAV:   2    -0.135995896327E+04   -0.64445E+00   -0.68450E+00  2296   0.622E+00    0.990E-01
DAV:   3    -0.135999676389E+04   -0.37801E-01   -0.55016E-01  2624   0.125E+00    0.801E-01
DAV:   4    -0.135998856023E+04    0.82037E-02   -0.56362E-02  2616   0.576E-01    0.550E-01
DAV:   5    -0.135998182432E+04    0.67359E-02   -0.25698E-02  2408   0.346E-01    0.234E-01
DAV:   6    -0.135998214219E+04   -0.31787E-03   -0.18040E-02  2432   0.267E-01    0.167E-01
DAV:   7    -0.135998227967E+04   -0.13748E-03   -0.79327E-03  2448   0.173E-01    0.136E-01
DAV:   8    -0.135998223512E+04    0.44551E-04   -0.30050E-03  2600   0.102E-01    0.762E-02
DAV:   9    -0.135998218749E+04    0.47634E-04   -0.74833E-04  2552   0.555E-02    0.488E-02
DAV:  10    -0.135998219721E+04   -0.97210E-05   -0.34892E-04  2592   0.354E-02    0.321E-02
DAV:  11    -0.135998219544E+04    0.17673E-05   -0.13375E-04  2488   0.242E-02    0.171E-02
DAV:  12    -0.135998219493E+04    0.51549E-06   -0.53364E-05  2328   0.164E-02    0.147E-02
DAV:  13    -0.135998219386E+04    0.10677E-05   -0.43326E-05  2264   0.114E-02    0.766E-03
DAV:  14    -0.135998219390E+04   -0.46959E-07   -0.11181E-05  1776   0.648E-03    0.380E-03
DAV:  15    -0.135998219392E+04   -0.18845E-07   -0.10418E-06   992   0.383E-03
   9 F= -.13599822E+04 E0= -.13599822E+04  d E =-.877449E+00
 BRION: g(F)=  0.503E+00 g(S)=  0.000E+00 retain N=  7 mean eig= 1.70
 eig:   3.736  3.736  1.118  1.118  0.341  0.916  0.916
 bond charge predicted
       N       E                     dE             d eps       ncg     rms          rms(c)
DAV:   1    -0.136007521989E+04   -0.93026E-01   -0.12610E+02  1376   0.161E+01    0.196E+00
DAV:   2    -0.136073482660E+04   -0.65961E+00   -0.70138E+00  2296   0.627E+00    0.100E+00
DAV:   3    -0.136077363547E+04   -0.38809E-01   -0.56301E-01  2600   0.126E+00    0.809E-01
DAV:   4    -0.136076528006E+04    0.83554E-02   -0.59208E-02  2600   0.590E-01    0.552E-01
DAV:   5    -0.136075889505E+04    0.63850E-02   -0.25578E-02  2448   0.337E-01    0.237E-01
DAV:   6    -0.136075910295E+04   -0.20790E-03   -0.16116E-02  2456   0.248E-01    0.152E-01
DAV:   7    -0.136075931547E+04   -0.21252E-03   -0.73507E-03  2480   0.166E-01    0.128E-01
DAV:   8    -0.136075928080E+04    0.34672E-04   -0.25579E-03  2600   0.971E-02    0.796E-02
DAV:   9    -0.136075922587E+04    0.54932E-04   -0.72475E-04  2568   0.534E-02    0.477E-02
DAV:  10    -0.136075923952E+04   -0.13655E-04   -0.33830E-04  2584   0.343E-02    0.303E-02
DAV:  11    -0.136075924013E+04   -0.61045E-06   -0.11009E-04  2488   0.223E-02    0.185E-02
DAV:  12    -0.136075923762E+04    0.25117E-05   -0.55125E-05  2336   0.166E-02    0.144E-02
DAV:  13    -0.136075923692E+04    0.70377E-06   -0.40854E-05  2296   0.114E-02    0.731E-03
DAV:  14    -0.136075923708E+04   -0.15897E-06   -0.11443E-05  1792   0.647E-03    0.344E-03
DAV:  15    -0.136075923711E+04   -0.30137E-07   -0.10438E-06   984   0.384E-03
  10 F= -.13607592E+04 E0= -.13607592E+04  d E =-.777043E+00
 BRION: g(F)=  0.281E+00 g(S)=  0.000E+00 retain N=  8 mean eig= 2.30
 eig:   6.203  6.203  1.206  1.206  1.197  1.197  0.332  0.841
 bond charge predicted
       N       E                     dE             d eps       ncg     rms          rms(c)
DAV:   1    -0.136071946973E+04    0.39767E-01   -0.12322E+02  1376   0.159E+01    0.193E+00
DAV:   2    -0.136135973485E+04   -0.64027E+00   -0.67979E+00  2288   0.619E+00    0.968E-01
DAV:   3    -0.136139718372E+04   -0.37449E-01   -0.54016E-01  2608   0.122E+00    0.780E-01
DAV:   4    -0.136138912058E+04    0.80631E-02   -0.54422E-02  2600   0.565E-01    0.537E-01
DAV:   5    -0.136138260689E+04    0.65137E-02   -0.23603E-02  2416   0.330E-01    0.226E-01
DAV:   6    -0.136138284209E+04   -0.23520E-03   -0.16177E-02  2408   0.248E-01    0.148E-01
DAV:   7    -0.136138306060E+04   -0.21851E-03   -0.71466E-03  2480   0.163E-01    0.126E-01
DAV:   8    -0.136138301965E+04    0.40949E-04   -0.23476E-03  2616   0.932E-02    0.732E-02
DAV:   9    -0.136138297197E+04    0.47683E-04   -0.69283E-04  2544   0.524E-02    0.439E-02
DAV:  10    -0.136138298860E+04   -0.16623E-04   -0.30353E-04  2576   0.333E-02    0.308E-02
DAV:  11    -0.136138298578E+04    0.28116E-05   -0.11618E-04  2488   0.223E-02    0.171E-02
DAV:  12    -0.136138298434E+04    0.14445E-05   -0.49963E-05  2336   0.159E-02    0.138E-02
DAV:  13    -0.136138298372E+04    0.61633E-06   -0.39453E-05  2272   0.109E-02    0.743E-03
DAV:  14    -0.136138298376E+04   -0.36176E-07   -0.10135E-05  1776   0.625E-03    0.347E-03
DAV:  15    -0.136138298375E+04    0.10099E-07   -0.10508E-06   992   0.381E-03
  11 F= -.13613830E+04 E0= -.13613830E+04  d E =-.623747E+00
 BRION: g(F)=  0.187E+00 g(S)=  0.000E+00 retain N=  8 mean eig= 2.44
 eig:   6.090  6.090  0.790  0.790  1.852  1.852  1.025  1.025
 bond charge predicted
       N       E                     dE             d eps       ncg     rms          rms(c)
DAV:   1    -0.136146104759E+04   -0.78064E-01   -0.47189E+01  1376   0.988E+00    0.120E+00
DAV:   2    -0.136170497405E+04   -0.24393E+00   -0.25950E+00  2288   0.385E+00    0.599E-01
DAV:   3    -0.136171834451E+04   -0.13370E-01   -0.20341E-01  2616   0.767E-01    0.486E-01
DAV:   4    -0.136171488194E+04    0.34626E-02   -0.21739E-02  2608   0.353E-01    0.329E-01
DAV:   5    -0.136171224025E+04    0.26417E-02   -0.96505E-03  2392   0.206E-01    0.135E-01
DAV:   6    -0.136171235531E+04   -0.11507E-03   -0.62336E-03  2424   0.154E-01    0.953E-02
DAV:   7    -0.136171241300E+04   -0.57688E-04   -0.27660E-03  2432   0.997E-02    0.773E-02
DAV:   8    -0.136171239989E+04    0.13106E-04   -0.94475E-04  2600   0.582E-02    0.448E-02
DAV:   9    -0.136171238630E+04    0.13592E-04   -0.26646E-04  2576   0.328E-02    0.293E-02
DAV:  10    -0.136171239005E+04   -0.37443E-05   -0.11155E-04  2560   0.204E-02    0.204E-02
DAV:  11    -0.136171238847E+04    0.15733E-05   -0.51239E-05  2400   0.150E-02    0.107E-02
DAV:  12    -0.136171238831E+04    0.16233E-06   -0.21675E-05  2248   0.106E-02    0.888E-03
DAV:  13    -0.136171238787E+04    0.44044E-06   -0.13096E-05  1768   0.684E-03    0.441E-03
DAV:  14    -0.136171238772E+04    0.15173E-06   -0.26603E-06  1080   0.504E-03
  12 F= -.13617124E+04 E0= -.13617124E+04  d E =-.329404E+00
 BRION: g(F)=  0.170E+00 g(S)=  0.000E+00 retain N=  6 mean eig= 3.62
 eig:   7.500  7.500  2.283  2.283  1.089  1.089
 bond charge predicted
       N       E                     dE             d eps       ncg     rms          rms(c)
DAV:   1    -0.136167122913E+04    0.41159E-01   -0.73572E+01  1384   0.123E+01    0.144E+00
DAV:   2    -0.136205428882E+04   -0.38306E+00   -0.40476E+00  2296   0.488E+00    0.736E-01
DAV:   3    -0.136207583918E+04   -0.21550E-01   -0.31311E-01  2608   0.934E-01    0.602E-01
DAV:   4    -0.136207131862E+04    0.45206E-02   -0.30392E-02  2608   0.418E-01    0.433E-01
DAV:   5    -0.136206651912E+04    0.47995E-02   -0.13921E-02  2368   0.247E-01    0.189E-01
DAV:   6    -0.136206647576E+04    0.43356E-04   -0.11635E-02  2328   0.206E-01    0.118E-01
DAV:   7    -0.136206665042E+04   -0.17465E-03   -0.54851E-03  2448   0.135E-01    0.108E-01
DAV:   8    -0.136206659891E+04    0.51508E-04   -0.14697E-03  2600   0.771E-02    0.660E-02
DAV:   9    -0.136206655447E+04    0.44438E-04   -0.58114E-04  2528   0.451E-02    0.357E-02
DAV:  10    -0.136206656920E+04   -0.14729E-04   -0.20516E-04  2584   0.281E-02    0.264E-02
DAV:  11    -0.136206656877E+04    0.43641E-06   -0.83741E-05  2472   0.184E-02    0.173E-02
DAV:  12    -0.136206656641E+04    0.23555E-05   -0.48869E-05  2336   0.149E-02    0.142E-02
DAV:  13    -0.136206656502E+04    0.13870E-05   -0.29848E-05  2208   0.999E-03    0.761E-03
DAV:  14    -0.136206656484E+04    0.18280E-06   -0.86488E-06  1728   0.569E-03
  13 F= -.13620666E+04 E0= -.13620666E+04  d E =-.354177E+00
 BRION: g(F)=  0.111E+00 g(S)=  0.000E+00 retain N=  4 mean eig= 4.41
 eig:   7.481  7.481  1.345  1.345
 bond charge predicted
       N       E                     dE             d eps       ncg     rms          rms(c)
DAV:   1    -0.136210073467E+04   -0.34170E-01   -0.38008E+01  1384   0.884E+00    0.100E+00
DAV:   2    -0.136229858903E+04   -0.19785E+00   -0.20929E+00  2288   0.352E+00    0.521E-01
DAV:   3    -0.136231017329E+04   -0.11584E-01   -0.16497E-01  2600   0.674E-01    0.425E-01
DAV:   4    -0.136230798460E+04    0.21887E-02   -0.15383E-02  2600   0.300E-01    0.309E-01
DAV:   5    -0.136230561236E+04    0.23722E-02   -0.73471E-03  2336   0.172E-01    0.136E-01
DAV:   6    -0.136230557942E+04    0.32944E-04   -0.56740E-03  2296   0.145E-01    0.892E-02
DAV:   7    -0.136230565709E+04   -0.77676E-04   -0.31035E-03  2456   0.997E-02    0.791E-02
DAV:   8    -0.136230562711E+04    0.29983E-04   -0.81926E-04  2584   0.585E-02    0.506E-02
DAV:   9    -0.136230560212E+04    0.24990E-04   -0.31628E-04  2544   0.329E-02    0.277E-02
DAV:  10    -0.136230560814E+04   -0.60203E-05   -0.10324E-04  2536   0.201E-02    0.188E-02
DAV:  11    -0.136230560927E+04   -0.11281E-05   -0.36171E-05  2312   0.127E-02    0.137E-02
DAV:  12    -0.136230560738E+04    0.18931E-05   -0.31456E-05  2216   0.116E-02    0.107E-02
DAV:  13    -0.136230560662E+04    0.75862E-06   -0.14902E-05  1896   0.778E-03    0.655E-03
DAV:  14    -0.136230560632E+04    0.29926E-06   -0.52001E-06  1416   0.520E-03
  14 F= -.13623056E+04 E0= -.13623056E+04  d E =-.239041E+00
 BRION: g(F)=  0.965E-01 g(S)=  0.000E+00 retain N=  4 mean eig= 4.10
 eig:   6.486  6.486  1.710  1.710
 bond charge predicted
       N       E                     dE             d eps       ncg     rms          rms(c)
DAV:   1    -0.136236934827E+04   -0.63742E-01   -0.13219E+01  1384   0.519E+00    0.604E-01
DAV:   2    -0.136243734375E+04   -0.67995E-01   -0.71572E-01  2312   0.208E+00    0.312E-01
DAV:   3    -0.136244093818E+04   -0.35944E-02   -0.54061E-02  2584   0.386E-01    0.252E-01
DAV:   4    -0.136243997012E+04    0.96806E-03   -0.52476E-03  2584   0.169E-01    0.176E-01
DAV:   5    -0.136243907776E+04    0.89236E-03   -0.30830E-03  2184   0.113E-01    0.642E-02
DAV:   6    -0.136243919110E+04   -0.11334E-03   -0.21010E-03  2384   0.835E-02    0.601E-02
DAV:   7    -0.136243918181E+04    0.92916E-05   -0.72925E-04  2352   0.480E-02    0.429E-02
DAV:   8    -0.136243917227E+04    0.95359E-05   -0.28454E-04  2552   0.313E-02    0.220E-02
DAV:   9    -0.136243916883E+04    0.34394E-05   -0.54400E-05  2216   0.162E-02    0.158E-02
DAV:  10    -0.136243916924E+04   -0.40441E-06   -0.25099E-05  2216   0.960E-03    0.908E-03
DAV:  11    -0.136243916863E+04    0.60674E-06   -0.67396E-06  1488   0.688E-03
  15 F= -.13624392E+04 E0= -.13624392E+04  d E =-.133562E+00
 BRION: g(F)=  0.865E-01 g(S)=  0.000E+00 retain N=  4 mean eig= 4.18
 eig:   7.062  7.062  1.289  1.289
 bond charge predicted
       N       E                     dE             d eps       ncg     rms          rms(c)
DAV:   1    -0.136249423130E+04   -0.55062E-01   -0.25069E+01  1376   0.713E+00    0.830E-01
DAV:   2    -0.136262358253E+04   -0.12935E+00   -0.13597E+00  2312   0.282E+00    0.426E-01
DAV:   3    -0.136263075254E+04   -0.71700E-02   -0.10429E-01  2576   0.533E-01    0.342E-01
DAV:   4    -0.136262903356E+04    0.17190E-02   -0.10306E-02  2560   0.236E-01    0.236E-01
DAV:   5    -0.136262759933E+04    0.14342E-02   -0.53300E-03  2296   0.144E-01    0.897E-02
DAV:   6    -0.136262775519E+04   -0.15586E-03   -0.32210E-03  2392   0.104E-01    0.721E-02
DAV:   7    -0.136262774710E+04    0.80860E-05   -0.12701E-03  2400   0.651E-02    0.515E-02
DAV:   8    -0.136262774135E+04    0.57522E-05   -0.49140E-04  2568   0.416E-02    0.305E-02
DAV:   9    -0.136262773584E+04    0.55093E-05   -0.10215E-04  2464   0.217E-02    0.219E-02
DAV:  10    -0.136262773596E+04   -0.12101E-06   -0.52415E-05  2520   0.133E-02    0.121E-02
DAV:  11    -0.136262773625E+04   -0.29306E-06   -0.18397E-05  2160   0.967E-03    0.711E-03
DAV:  12    -0.136262773606E+04    0.19064E-06   -0.86245E-06  1664   0.690E-03
  16 F= -.13626277E+04 E0= -.13626277E+04  d E =-.188567E+00
 BRION: g(F)=  0.809E-01 g(S)=  0.000E+00 retain N=  4 mean eig= 3.65
 eig:   5.841  5.841  1.467  1.467
 bond charge predicted
       N       E                     dE             d eps       ncg     rms          rms(c)
DAV:   1    -0.136269697176E+04   -0.69236E-01   -0.97376E+00  1384   0.445E+00    0.511E-01
DAV:   2    -0.136274714044E+04   -0.50169E-01   -0.52926E-01  2296   0.175E+00    0.265E-01
DAV:   3    -0.136275001441E+04   -0.28740E-02   -0.41055E-02  2576   0.340E-01    0.214E-01
DAV:   4    -0.136274939762E+04    0.61678E-03   -0.38711E-03  2584   0.147E-01    0.151E-01
DAV:   5    -0.136274883882E+04    0.55880E-03   -0.22523E-03  2256   0.927E-02    0.553E-02
DAV:   6    -0.136274891291E+04   -0.74089E-04   -0.12719E-03  2440   0.656E-02    0.493E-02
DAV:   7    -0.136274890436E+04    0.85469E-05   -0.51041E-04  2480   0.413E-02    0.325E-02
DAV:   8    -0.136274889982E+04    0.45390E-05   -0.18403E-04  2552   0.264E-02    0.181E-02
DAV:   9    -0.136274889871E+04    0.11095E-05   -0.31828E-05  2384   0.126E-02    0.136E-02
DAV:  10    -0.136274889858E+04    0.12873E-06   -0.17768E-05  1976   0.805E-03    0.641E-03
DAV:  11    -0.136274889831E+04    0.27157E-06   -0.22238E-06  1016   0.631E-03
  17 F= -.13627489E+04 E0= -.13627489E+04  d E =-.121162E+00
 BRION: g(F)=  0.752E-01 g(S)=  0.000E+00 retain N=  4 mean eig= 4.49
 eig:   7.684  7.684  1.295  1.295
 bond charge predicted
       N       E                     dE             d eps       ncg     rms          rms(c)
DAV:   1    -0.136281015886E+04   -0.61260E-01   -0.41295E+00  1384   0.290E+00    0.332E-01
DAV:   2    -0.136283132173E+04   -0.21163E-01   -0.22248E-01  2304   0.112E+00    0.168E-01
DAV:   3    -0.136283259104E+04   -0.12693E-02   -0.17592E-02  2584   0.222E-01    0.134E-01
DAV:   4    -0.136283233389E+04    0.25716E-03   -0.16056E-03  2584   0.948E-02    0.935E-02
DAV:   5    -0.136283210892E+04    0.22497E-03   -0.89236E-04  2280   0.590E-02    0.337E-02
DAV:   6    -0.136283213906E+04   -0.30142E-04   -0.51828E-04  2448   0.417E-02    0.294E-02
DAV:   7    -0.136283213782E+04    0.12451E-05   -0.19784E-04  2400   0.257E-02    0.196E-02
DAV:   8    -0.136283213698E+04    0.83346E-06   -0.62683E-05  2560   0.157E-02    0.111E-02
DAV:   9    -0.136283213642E+04    0.56654E-06   -0.11015E-05  1928   0.781E-03    0.812E-03
DAV:  10    -0.136283213651E+04   -0.90746E-07   -0.83305E-06  1592   0.590E-03
  18 F= -.13628321E+04 E0= -.13628321E+04  d E =-.832382E-01
 BRION: g(F)=  0.740E-01 g(S)=  0.000E+00 retain N=  4 mean eig= 2.22
 eig:   3.553  3.553  0.895  0.895
 bond charge predicted
       N       E                     dE             d eps       ncg     rms          rms(c)
DAV:   1    -0.136289248486E+04   -0.60348E-01   -0.34416E+00  1376   0.264E+00    0.307E-01
DAV:   2    -0.136291032889E+04   -0.17844E-01   -0.18781E-01  2304   0.104E+00    0.153E-01
DAV:   3    -0.136291133530E+04   -0.10064E-02   -0.14355E-02  2584   0.203E-01    0.121E-01
DAV:   4    -0.136291110110E+04    0.23420E-03   -0.13765E-03  2584   0.876E-02    0.816E-02
DAV:   5    -0.136291093718E+04    0.16392E-03   -0.76528E-04  2304   0.544E-02    0.289E-02
DAV:   6    -0.136291096501E+04   -0.27827E-04   -0.39498E-04  2528   0.358E-02    0.260E-02
DAV:   7    -0.136291096390E+04    0.11119E-05   -0.13039E-04  2504   0.216E-02    0.169E-02
DAV:   8    -0.136291096272E+04    0.11738E-05   -0.44170E-05  2568   0.132E-02    0.919E-03
DAV:   9    -0.136291096235E+04    0.37492E-06   -0.48237E-06  1344   0.645E-03
  19 F= -.13629110E+04 E0= -.13629110E+04  d E =-.788258E-01
 BRION: g(F)=  0.726E-01 g(S)=  0.000E+00 retain N=  4 mean eig= 2.75
 eig:   4.411  4.411  1.085  1.085
 bond charge predicted
       N       E                     dE             d eps       ncg     rms          rms(c)
DAV:   1    -0.136298143957E+04   -0.70477E-01   -0.51111E+00  1368   0.322E+00    0.361E-01
DAV:   2    -0.136300782409E+04   -0.26385E-01   -0.27726E-01  2304   0.125E+00    0.181E-01
DAV:   3    -0.136300958324E+04   -0.17591E-02   -0.22935E-02  2592   0.246E-01    0.144E-01
DAV:   4    -0.136300935080E+04    0.23243E-03   -0.18613E-03  2600   0.105E-01    0.108E-01
DAV:   5    -0.136300905153E+04    0.29928E-03   -0.10036E-03  2328   0.625E-02    0.434E-02
DAV:   6    -0.136300906851E+04   -0.16981E-04   -0.68987E-04  2336   0.475E-02    0.318E-02
DAV:   7    -0.136300907091E+04   -0.23984E-05   -0.30095E-04  2464   0.314E-02    0.224E-02
DAV:   8    -0.136300906976E+04    0.11478E-05   -0.89864E-05  2512   0.193E-02    0.138E-02
DAV:   9    -0.136300906849E+04    0.12709E-05   -0.21653E-05  2208   0.979E-03    0.909E-03
DAV:  10    -0.136300906848E+04    0.55734E-08   -0.77626E-06  1560   0.606E-03
  20 F= -.13630091E+04 E0= -.13630091E+04  d E =-.981061E-01
 BRION: g(F)=  0.724E-01 g(S)=  0.000E+00 retain N=  5 mean eig= 3.11
 eig:   6.143  6.143  1.139  1.139  1.008
