  186  186 5000    1
  0.1171686E+02  0.1296520E-08  0.1296500E-08  0.1296500E-08  0.2000000E-14
   1500.00000000000     
  CAR 
 unknown system                          
   1088      1    656
