       N       E                     dE             d eps       ncg     rms          rms(c)
DAV:   1     0.280923646117E+05    0.28092E+05   -0.37644E+05  1432   0.258E+03
DAV:   2     0.103173923430E+05   -0.17775E+05   -0.16492E+05  1408   0.789E+02
DAV:   3     0.282552654345E+04   -0.74919E+04   -0.68246E+04  1472   0.374E+02
DAV:   4    -0.404954035342E+03   -0.32305E+04   -0.30016E+04  2064   0.235E+02
DAV:   5    -0.146498026675E+04   -0.10600E+04   -0.10258E+04  2512   0.141E+02    0.116E+02
DAV:   6    -0.133959306510E+04    0.12539E+03   -0.14054E+03  2432   0.642E+01    0.492E+01
DAV:   7    -0.136221411469E+04   -0.22621E+02   -0.34498E+02  2544   0.325E+01    0.224E+01
DAV:   8    -0.137382830658E+04   -0.11614E+02   -0.22789E+02  2552   0.240E+01    0.258E+01
DAV:   9    -0.136574053697E+04    0.80878E+01   -0.66589E+01  2400   0.147E+01    0.661E+00
DAV:  10    -0.136741692474E+04   -0.16764E+01   -0.13056E+01  2584   0.826E+00    0.905E+00
DAV:  11    -0.136719443814E+04    0.22249E+00   -0.56119E+00  2624   0.446E+00    0.427E+00
DAV:  12    -0.136711128589E+04    0.83152E-01   -0.32250E+00  2592   0.333E+00    0.268E+00
DAV:  13    -0.136715251383E+04   -0.41228E-01   -0.11487E+00  2528   0.220E+00    0.204E+00
DAV:  14    -0.136715345460E+04   -0.94077E-03   -0.20811E-01  2624   0.969E-01    0.157E+00
DAV:  15    -0.136714474092E+04    0.87137E-02   -0.19147E-01  2472   0.900E-01    0.993E-01
DAV:  16    -0.136714881090E+04   -0.40700E-02   -0.38928E-02  2560   0.447E-01    0.566E-01
DAV:  17    -0.136714662690E+04    0.21840E-02   -0.11150E-02  2584   0.231E-01    0.392E-01
DAV:  18    -0.136714705287E+04   -0.42597E-03   -0.24837E-03  2328   0.102E-01    0.374E-01
DAV:  19    -0.136714711504E+04   -0.62172E-04   -0.63346E-04  1936   0.441E-02    0.374E-01
DAV:  20    -0.136714707409E+04    0.40946E-04   -0.20941E-04  1352   0.259E-02    0.375E-01
DAV:  21    -0.136714835741E+04   -0.12833E-02   -0.22235E-03  2168   0.851E-02    0.477E-01
DAV:  22    -0.136714918881E+04   -0.83140E-03   -0.43020E-03  2064   0.127E-01    0.670E-01
DAV:  23    -0.136714701178E+04    0.21770E-02   -0.15769E-02  2112   0.221E-01    0.532E-01
DAV:  24    -0.136714619669E+04    0.81509E-03   -0.12537E-02  2296   0.188E-01    0.371E-01
DAV:  25    -0.136714614417E+04    0.52518E-04   -0.99334E-04  2248   0.830E-02    0.427E-01
DAV:  26    -0.136714573608E+04    0.40810E-03   -0.47163E-04  1880   0.389E-02    0.309E-01
DAV:  27    -0.136714585785E+04   -0.12178E-03   -0.16701E-04  1904   0.304E-02    0.386E-01
DAV:  28    -0.136714550043E+04    0.35742E-03   -0.38019E-04  1960   0.360E-02    0.268E-01
DAV:  29    -0.136714538549E+04    0.11494E-03   -0.27080E-04  2088   0.291E-02    0.209E-01
DAV:  30    -0.136714536830E+04    0.17185E-04   -0.25071E-05  1080   0.166E-02    0.197E-01
DAV:  31    -0.136714529445E+04    0.73853E-04   -0.16931E-04  1760   0.218E-02    0.116E-01
DAV:  32    -0.136714530054E+04   -0.60935E-05   -0.19556E-05  1032   0.192E-02
    1 T=  1500. E= -.13312754E+04 F= -.13671453E+04 E0= -.13671453E+04  EK= 0.35870E+02 SP= 0.00E+00 SK= 0.00E+00
       N       E                     dE             d eps       ncg     rms          rms(c)
DAV:   1    -0.136431305433E+04    0.28322E+01   -0.46287E+02  1344   0.301E+01    0.430E+00
DAV:   2    -0.136642075861E+04   -0.21077E+01   -0.22094E+01  2288   0.111E+01    0.213E+00
DAV:   3    -0.136649171302E+04   -0.70954E-01   -0.15595E+00  2616   0.213E+00    0.171E+00
DAV:   4    -0.136642893788E+04    0.62775E-01   -0.31489E-01  2504   0.113E+00    0.852E-01
DAV:   5    -0.136642306067E+04    0.58772E-02   -0.11788E-01  2432   0.730E-01    0.523E-01
DAV:   6    -0.136642288548E+04    0.17519E-03   -0.55974E-02  2592   0.444E-01    0.277E-01
DAV:   7    -0.136642261303E+04    0.27245E-03   -0.12954E-02  2560   0.239E-01    0.179E-01
DAV:   8    -0.136642249645E+04    0.11658E-03   -0.32692E-03  2624   0.115E-01    0.887E-02
DAV:   9    -0.136642251608E+04   -0.19632E-04   -0.12351E-03  2552   0.709E-02    0.485E-02
DAV:  10    -0.136642252100E+04   -0.49227E-05   -0.35168E-04  2416   0.451E-02    0.285E-02
DAV:  11    -0.136642252459E+04   -0.35865E-05   -0.22568E-04  2216   0.271E-02    0.202E-02
DAV:  12    -0.136642251842E+04    0.61751E-05   -0.16268E-05   992   0.163E-02
    2 T=  1470. E= -.13312678E+04 F= -.13664225E+04 E0= -.13664225E+04  EK= 0.35155E+02 SP= -.63E-04 SK= 0.89E-08
       N       E                     dE             d eps       ncg     rms          rms(c)
DAV:   1    -0.136412562404E+04    0.22969E+01   -0.78457E+00  2192   0.110E+01    0.135E+00
DAV:   2    -0.136437326685E+04   -0.24764E+00   -0.27639E+00  2312   0.280E+00    0.986E-01
DAV:   3    -0.136437104649E+04    0.22204E-02   -0.14249E-01  2528   0.851E-01    0.787E-01
DAV:   4    -0.136436327804E+04    0.77684E-02   -0.49709E-02  2520   0.400E-01    0.407E-01
DAV:   5    -0.136436330836E+04   -0.30323E-04   -0.18389E-02  2504   0.215E-01    0.248E-01
DAV:   6    -0.136436317038E+04    0.13799E-03   -0.22739E-03  2600   0.121E-01    0.160E-01
DAV:   7    -0.136436296884E+04    0.20153E-03   -0.26581E-03  2440   0.831E-02    0.548E-02
DAV:   8    -0.136436297946E+04   -0.10614E-04   -0.73370E-04  2456   0.519E-02    0.513E-02
DAV:   9    -0.136436296371E+04    0.15744E-04   -0.13767E-04  1912   0.257E-02    0.240E-02
DAV:  10    -0.136436296137E+04    0.23450E-05   -0.51906E-05  1400   0.161E-02
    3 T=  1385. E= -.13312524E+04 F= -.13643630E+04 E0= -.13643630E+04  EK= 0.33128E+02 SP= -.18E-01 SK= 0.69E-03
       N       E                     dE             d eps       ncg     rms          rms(c)
DAV:   1    -0.136085276122E+04    0.35102E+01   -0.12161E+01  1992   0.128E+01    0.147E+00
DAV:   2    -0.136120979091E+04   -0.35703E+00   -0.37920E+00  2336   0.407E+00    0.936E-01
DAV:   3    -0.136121584321E+04   -0.60523E-02   -0.18375E-01  2504   0.856E-01    0.742E-01
DAV:   4    -0.136121025171E+04    0.55915E-02   -0.59865E-02  2528   0.451E-01    0.399E-01
DAV:   5    -0.136121093459E+04   -0.68288E-03   -0.11430E-02  2504   0.195E-01    0.287E-01
DAV:   6    -0.136121054499E+04    0.38960E-03   -0.28746E-03  2608   0.109E-01    0.177E-01
DAV:   7    -0.136121037319E+04    0.17180E-03   -0.26285E-03  2440   0.815E-02    0.713E-02
DAV:   8    -0.136121035115E+04    0.22044E-04   -0.45416E-04  2424   0.486E-02    0.493E-02
DAV:   9    -0.136121035775E+04   -0.66019E-05   -0.24377E-04  2168   0.271E-02    0.268E-02
DAV:  10    -0.136121034728E+04    0.10471E-04   -0.35413E-05  1176   0.197E-02    0.180E-02
DAV:  11    -0.136121036023E+04   -0.12951E-04   -0.16597E-04  1632   0.211E-02    0.226E-02
DAV:  12    -0.136121035210E+04    0.81307E-05   -0.10187E-05   976   0.140E-02
    4 T=  1258. E= -.13312263E+04 F= -.13612104E+04 E0= -.13612104E+04  EK= 0.30076E+02 SP= -.10E+00 SK= 0.10E-01
       N       E                     dE             d eps       ncg     rms          rms(c)
DAV:   1    -0.135715513297E+04    0.40552E+01   -0.36869E+00  2136   0.102E+01    0.107E+00
DAV:   2    -0.135737412819E+04   -0.21900E+00   -0.23286E+00  2312   0.321E+00    0.670E-01
DAV:   3    -0.135737838760E+04   -0.42594E-02   -0.10272E-01  2528   0.628E-01    0.535E-01
DAV:   4    -0.135737548868E+04    0.28989E-02   -0.24120E-02  2504   0.300E-01    0.309E-01
DAV:   5    -0.135737553281E+04   -0.44137E-04   -0.65052E-03  2496   0.136E-01    0.199E-01
DAV:   6    -0.135737537111E+04    0.16170E-03   -0.11116E-03  2576   0.777E-02    0.122E-01
DAV:   7    -0.135737535582E+04    0.15289E-04   -0.93096E-04  2432   0.494E-02    0.563E-02
DAV:   8    -0.135737532916E+04    0.26659E-04   -0.26664E-04  2184   0.346E-02    0.312E-02
DAV:   9    -0.135737533778E+04   -0.86153E-05   -0.93640E-05  1912   0.196E-02
    5 T=  1106. E= -.13311959E+04 F= -.13573753E+04 E0= -.13573753E+04  EK= 0.26451E+02 SP= -.33E+00 SK= 0.57E-01
       N       E                     dE             d eps       ncg     rms          rms(c)
DAV:   1    -0.135322649519E+04    0.41488E+01   -0.17524E+00  2152   0.865E+00    0.853E-01
DAV:   2    -0.135337264611E+04   -0.14615E+00   -0.15640E+00  2320   0.259E+00    0.596E-01
DAV:   3    -0.135337434081E+04   -0.16947E-02   -0.65587E-02  2520   0.507E-01    0.496E-01
DAV:   4    -0.135337156319E+04    0.27776E-02   -0.16820E-02  2480   0.247E-01    0.291E-01
DAV:   5    -0.135337152121E+04    0.41980E-04   -0.85715E-03  2472   0.140E-01    0.183E-01
DAV:   6    -0.135337133943E+04    0.18178E-03   -0.10636E-03  2456   0.820E-02    0.115E-01
DAV:   7    -0.135337131487E+04    0.24560E-04   -0.11954E-03  2288   0.528E-02    0.533E-02
DAV:   8    -0.135337131068E+04    0.41846E-05   -0.12347E-04  1896   0.255E-02    0.432E-02
DAV:   9    -0.135337129416E+04    0.16527E-04   -0.11874E-04  1592   0.213E-02    0.125E-02
DAV:  10    -0.135337129743E+04   -0.32717E-05   -0.28600E-05  1216   0.144E-02
    6 T=   953. E= -.13311653E+04 F= -.13533713E+04 E0= -.13533713E+04  EK= 0.22791E+02 SP= -.79E+00 SK= 0.20E+00
       N       E                     dE             d eps       ncg     rms          rms(c)
DAV:   1    -0.134962285145E+04    0.37484E+01   -0.78992E-01  2312   0.742E+00    0.673E-01
DAV:   2    -0.134971425663E+04   -0.91405E-01   -0.97926E-01  2304   0.206E+00    0.453E-01
DAV:   3    -0.134971525172E+04   -0.99509E-03   -0.38846E-02  2496   0.395E-01    0.375E-01
DAV:   4    -0.134971361461E+04    0.16371E-02   -0.98509E-03  2488   0.190E-01    0.215E-01
DAV:   5    -0.134971358663E+04    0.27978E-04   -0.47540E-03  2448   0.104E-01    0.138E-01
DAV:   6    -0.134971350145E+04    0.85184E-04   -0.53944E-04  2416   0.590E-02    0.921E-02
DAV:   7    -0.134971345850E+04    0.42953E-04   -0.80665E-04  2192   0.443E-02    0.398E-02
DAV:   8    -0.134971345312E+04    0.53782E-05   -0.11622E-04  1880   0.240E-02    0.308E-02
DAV:   9    -0.134971344508E+04    0.80435E-05   -0.66268E-05  1520   0.166E-02
    7 T=   820. E= -.13311413E+04 F= -.13497134E+04 E0= -.13497134E+04  EK= 0.19615E+02 SP= -.16E+01 SK= 0.52E+00
       N       E                     dE             d eps       ncg     rms          rms(c)
DAV:   1    -0.134674256313E+04    0.29709E+01   -0.41795E-01  2256   0.676E+00    0.515E-01
DAV:   2    -0.134680338175E+04   -0.60819E-01   -0.65043E-01  2288   0.175E+00    0.366E-01
DAV:   3    -0.134680423984E+04   -0.85809E-03   -0.26065E-02  2520   0.316E-01    0.316E-01
DAV:   4    -0.134680314120E+04    0.10986E-02   -0.58574E-03  2448   0.149E-01    0.189E-01
DAV:   5    -0.134680308761E+04    0.53584E-04   -0.44974E-03  2352   0.100E-01    0.116E-01
DAV:   6    -0.134680298415E+04    0.10346E-03   -0.58707E-04  2304   0.605E-02    0.753E-02
DAV:   7    -0.134680296371E+04    0.20441E-04   -0.52298E-04  2248   0.361E-02    0.326E-02
DAV:   8    -0.134680296185E+04    0.18675E-05   -0.41225E-05  1272   0.174E-02
    8 T=   724. E= -.13311332E+04 F= -.13468030E+04 E0= -.13468030E+04  EK= 0.17314E+02 SP= -.27E+01 SK= 0.11E+01
       N       E                     dE             d eps       ncg     rms          rms(c)
DAV:   1    -0.134478215770E+04    0.20208E+01   -0.22762E-01  2272   0.637E+00    0.382E-01
DAV:   2    -0.134482495957E+04   -0.42802E-01   -0.45208E-01  2304   0.153E+00    0.276E-01
DAV:   3    -0.134482557596E+04   -0.61640E-03   -0.18242E-02  2472   0.264E-01    0.249E-01
DAV:   4    -0.134482512161E+04    0.45435E-03   -0.26056E-03  2496   0.105E-01    0.176E-01
DAV:   5    -0.134482473171E+04    0.38990E-03   -0.22665E-03  2288   0.751E-02    0.715E-02
DAV:   6    -0.134482474698E+04   -0.15264E-04   -0.45358E-04  2240   0.467E-02    0.561E-02
DAV:   7    -0.134482473828E+04    0.86912E-05   -0.18744E-04  1856   0.235E-02    0.362E-02
DAV:   8    -0.134482471724E+04    0.21041E-04   -0.37099E-05  1168   0.208E-02    0.211E-02
DAV:   9    -0.134482472175E+04   -0.45098E-05   -0.14315E-04  1632   0.203E-02    0.133E-02
DAV:  10    -0.134482471929E+04    0.24607E-05   -0.95449E-06   912   0.131E-02
    9 T=   673. E= -.13311386E+04 F= -.13448247E+04 E0= -.13448247E+04  EK= 0.16083E+02 SP= -.44E+01 SK= 0.20E+01
       N       E                     dE             d eps       ncg     rms          rms(c)
DAV:   1    -0.134370864203E+04    0.11161E+01   -0.15296E-01  2224   0.622E+00    0.345E-01
DAV:   2    -0.134374362730E+04   -0.34985E-01   -0.37114E-01  2312   0.145E+00    0.220E-01
DAV:   3    -0.134374449731E+04   -0.87002E-03   -0.14515E-02  2432   0.232E-01    0.194E-01
DAV:   4    -0.134374414196E+04    0.35535E-03   -0.26478E-03  2472   0.100E-01    0.120E-01
DAV:   5    -0.134374409476E+04    0.47201E-04   -0.19511E-03  2304   0.700E-02    0.761E-02
DAV:   6    -0.134374405956E+04    0.35205E-04   -0.25578E-04  2208   0.423E-02    0.612E-02
DAV:   7    -0.134374401994E+04    0.39619E-04   -0.27961E-04  1856   0.282E-02    0.251E-02
DAV:   8    -0.134374401763E+04    0.23102E-05   -0.51634E-05  1376   0.179E-02
   10 T=   666. E= -.13311528E+04 F= -.13437440E+04 E0= -.13437440E+04  EK= 0.15924E+02 SP= -.65E+01 SK= 0.31E+01
       N       E                     dE             d eps       ncg     rms          rms(c)
DAV:   1    -0.134332555132E+04    0.41847E+00   -0.14898E-01  2368   0.629E+00    0.395E-01
DAV:   2    -0.134336152644E+04   -0.35975E-01   -0.39146E-01  2336   0.141E+00    0.305E-01
DAV:   3    -0.134336220562E+04   -0.67918E-03   -0.16587E-02  2480   0.250E-01    0.266E-01
DAV:   4    -0.134336132333E+04    0.88229E-03   -0.54225E-03  2424   0.135E-01    0.159E-01
DAV:   5    -0.134336165226E+04   -0.32892E-03   -0.56341E-03  2216   0.114E-01    0.161E-01
DAV:   6    -0.134336131306E+04    0.33920E-03   -0.11070E-03  2336   0.768E-02    0.108E-01
DAV:   7    -0.134336123010E+04    0.82957E-04   -0.10740E-03  2240   0.495E-02    0.386E-02
DAV:   8    -0.134336123355E+04   -0.34528E-05   -0.66141E-05  1408   0.208E-02
   11 T=   698. E= -.13311709E+04 F= -.13433612E+04 E0= -.13433612E+04  EK= 0.16703E+02 SP= -.91E+01 SK= 0.46E+01
       N       E                     dE             d eps       ncg     rms          rms(c)
DAV:   1    -0.134336348250E+04   -0.22524E-02   -0.18539E-01  2264   0.659E+00    0.452E-01
DAV:   2    -0.134340631338E+04   -0.42831E-01   -0.47080E-01  2336   0.159E+00    0.352E-01
DAV:   3    -0.134340722985E+04   -0.91647E-03   -0.20983E-02  2464   0.279E-01    0.296E-01
DAV:   4    -0.134340616090E+04    0.10689E-02   -0.70547E-03  2440   0.154E-01    0.182E-01
DAV:   5    -0.134340659907E+04   -0.43817E-03   -0.64120E-03  2256   0.123E-01    0.182E-01
DAV:   6    -0.134340614428E+04    0.45479E-03   -0.14412E-03  2376   0.866E-02    0.111E-01
DAV:   7    -0.134340607720E+04    0.67083E-04   -0.12703E-03  2256   0.542E-02    0.392E-02
DAV:   8    -0.134340608136E+04   -0.41678E-05   -0.80114E-05  1504   0.232E-02
   12 T=   762. E= -.13311900E+04 F= -.13434061E+04 E0= -.13434061E+04  EK= 0.18223E+02 SP= -.12E+02 SK= 0.61E+01
       N       E                     dE             d eps       ncg     rms          rms(c)
DAV:   1    -0.134354283559E+04   -0.13676E+00   -0.25574E-01  2232   0.714E+00    0.479E-01
DAV:   2    -0.134359800800E+04   -0.55172E-01   -0.59995E-01  2336   0.186E+00    0.382E-01
DAV:   3    -0.134359889964E+04   -0.89164E-03   -0.25563E-02  2440   0.311E-01    0.321E-01
DAV:   4    -0.134359770948E+04    0.11902E-02   -0.69077E-03  2472   0.154E-01    0.194E-01
DAV:   5    -0.134359779352E+04   -0.84040E-04   -0.57509E-03  2360   0.120E-01    0.148E-01
DAV:   6    -0.134359760035E+04    0.19317E-03   -0.83328E-04  2416   0.739E-02    0.104E-01
DAV:   7    -0.134359752328E+04    0.77067E-04   -0.85054E-04  2320   0.448E-02    0.385E-02
DAV:   8    -0.134359752301E+04    0.27085E-06   -0.63053E-05  1336   0.209E-02
   13 T=   848. E= -.13312079E+04 F= -.13435975E+04 E0= -.13435975E+04  EK= 0.20280E+02 SP= -.16E+02 SK= 0.78E+01
       N       E                     dE             d eps       ncg     rms          rms(c)
DAV:   1    -0.134361642306E+04   -0.18900E-01   -0.31895E-01  2240   0.772E+00    0.514E-01
DAV:   2    -0.134368488713E+04   -0.68464E-01   -0.74111E-01  2336   0.213E+00    0.386E-01
DAV:   3    -0.134368607752E+04   -0.11904E-02   -0.32477E-02  2432   0.348E-01    0.332E-01
DAV:   4    -0.134368499179E+04    0.10857E-02   -0.59428E-03  2520   0.151E-01    0.214E-01
DAV:   5    -0.134368459868E+04    0.39311E-03   -0.45877E-03  2360   0.111E-01    0.109E-01
DAV:   6    -0.134368461715E+04   -0.18469E-04   -0.83169E-04  2376   0.673E-02    0.908E-02
DAV:   7    -0.134368455716E+04    0.59987E-04   -0.23624E-04  2064   0.293E-02    0.544E-02
DAV:   8    -0.134368452681E+04    0.30353E-04   -0.23726E-04  2112   0.272E-02    0.240E-02
DAV:   9    -0.134368453079E+04   -0.39817E-05   -0.23404E-05  1128   0.179E-02
   14 T=   949. E= -.13312182E+04 F= -.13436845E+04 E0= -.13436845E+04  EK= 0.22692E+02 SP= -.20E+02 SK= 0.93E+01
       N       E                     dE             d eps       ncg     rms          rms(c)
DAV:   1    -0.134341760680E+04    0.26692E+00   -0.41294E-01  2192   0.833E+00    0.540E-01
DAV:   2    -0.134350218096E+04   -0.84574E-01   -0.90407E-01  2336   0.243E+00    0.366E-01
DAV:   3    -0.134350396737E+04   -0.17864E-02   -0.38124E-02  2368   0.370E-01    0.313E-01
DAV:   4    -0.134350331645E+04    0.65092E-03   -0.54186E-03  2552   0.145E-01    0.224E-01
DAV:   5    -0.134350273405E+04    0.58241E-03   -0.28161E-03  2448   0.929E-02    0.114E-01
DAV:   6    -0.134350269501E+04    0.39036E-04   -0.89095E-04  2448   0.609E-02    0.794E-02
DAV:   7    -0.134350265008E+04    0.44935E-04   -0.23152E-04  1976   0.301E-02    0.432E-02
DAV:   8    -0.134350263007E+04    0.20009E-04   -0.13909E-04  1920   0.246E-02    0.226E-02
DAV:   9    -0.134350262910E+04    0.96705E-06   -0.28190E-05  1096   0.183E-02
   15 T=  1059. E= -.13312255E+04 F= -.13435026E+04 E0= -.13435026E+04  EK= 0.25331E+02 SP= -.24E+02 SK= 0.11E+02
       N       E                     dE             d eps       ncg     rms          rms(c)
DAV:   1    -0.134286877350E+04    0.63386E+00   -0.55758E-01  2176   0.896E+00    0.553E-01
DAV:   2    -0.134297032371E+04   -0.10155E+00   -0.10693E+00  2320   0.264E+00    0.376E-01
DAV:   3    -0.134297248058E+04   -0.21569E-02   -0.43871E-02  2376   0.409E-01    0.319E-01
DAV:   4    -0.134297195579E+04    0.52479E-03   -0.62775E-03  2608   0.153E-01    0.236E-01
DAV:   5    -0.134297129348E+04    0.66231E-03   -0.25502E-03  2432   0.911E-02    0.126E-01
DAV:   6    -0.134297120325E+04    0.90230E-04   -0.10460E-03  2464   0.618E-02    0.788E-02
DAV:   7    -0.134297115815E+04    0.45093E-04   -0.26836E-04  2144   0.320E-02    0.426E-02
DAV:   8    -0.134297114094E+04    0.17210E-04   -0.94029E-05  1800   0.231E-02    0.261E-02
DAV:   9    -0.134297114026E+04    0.68080E-06   -0.59889E-05  1480   0.178E-02
   16 T=  1176. E= -.13312328E+04 F= -.13429711E+04 E0= -.13429711E+04  EK= 0.28133E+02 SP= -.28E+02 SK= 0.12E+02
       N       E                     dE             d eps       ncg     rms          rms(c)
DAV:   1    -0.134194771809E+04    0.10234E+01   -0.68744E-01  2200   0.945E+00    0.582E-01
DAV:   2    -0.134206354588E+04   -0.11583E+00   -0.12127E+00  2336   0.276E+00    0.363E-01
DAV:   3    -0.134206658509E+04   -0.30392E-02   -0.49203E-02  2400   0.417E-01    0.313E-01
DAV:   4    -0.134206606051E+04    0.52457E-03   -0.62991E-03  2544   0.160E-01    0.230E-01
DAV:   5    -0.134206546430E+04    0.59621E-03   -0.27519E-03  2376   0.936E-02    0.120E-01
DAV:   6    -0.134206541001E+04    0.54296E-04   -0.90243E-04  2464   0.613E-02    0.790E-02
DAV:   7    -0.134206536635E+04    0.43659E-04   -0.20572E-04  2016   0.294E-02    0.402E-02
DAV:   8    -0.134206535598E+04    0.10366E-04   -0.79403E-05  1696   0.202E-02    0.226E-02
DAV:   9    -0.134206535626E+04   -0.27794E-06   -0.22504E-05  1080   0.156E-02
   17 T=  1299. E= -.13312417E+04 F= -.13420654E+04 E0= -.13420654E+04  EK= 0.31074E+02 SP= -.33E+02 SK= 0.13E+02
       N       E                     dE             d eps       ncg     rms          rms(c)
DAV:   1    -0.134066091578E+04    0.14044E+01   -0.71997E-01  2240   0.976E+00    0.624E-01
DAV:   2    -0.134078730526E+04   -0.12639E+00   -0.13205E+00  2320   0.278E+00    0.385E-01
DAV:   3    -0.134079063514E+04   -0.33299E-02   -0.52538E-02  2472   0.438E-01    0.333E-01
DAV:   4    -0.134078986564E+04    0.76949E-03   -0.70667E-03  2600   0.176E-01    0.229E-01
DAV:   5    -0.134078933369E+04    0.53195E-03   -0.36188E-03  2400   0.103E-01    0.112E-01
DAV:   6    -0.134078933590E+04   -0.22061E-05   -0.93146E-04  2504   0.656E-02    0.820E-02
DAV:   7    -0.134078929604E+04    0.39861E-04   -0.21830E-04  2192   0.301E-02    0.441E-02
DAV:   8    -0.134078928410E+04    0.11939E-04   -0.13621E-04  1992   0.233E-02    0.243E-02
DAV:   9    -0.134078928616E+04   -0.20599E-05   -0.13800E-05  1008   0.154E-02
   18 T=  1428. E= -.13312527E+04 F= -.13407893E+04 E0= -.13407893E+04  EK= 0.34137E+02 SP= -.38E+02 SK= 0.13E+02
       N       E                     dE             d eps       ncg     rms          rms(c)
DAV:   1    -0.133900480416E+04    0.17845E+01   -0.85122E-01  2336   0.100E+01    0.670E-01
DAV:   2    -0.133914394410E+04   -0.13914E+00   -0.14493E+00  2304   0.282E+00    0.400E-01
DAV:   3    -0.133914871614E+04   -0.47720E-02   -0.63534E-02  2536   0.464E-01    0.340E-01
DAV:   4    -0.133914779094E+04    0.92520E-03   -0.85833E-03  2576   0.199E-01    0.223E-01
DAV:   5    -0.133914756487E+04    0.22606E-03   -0.42540E-03  2368   0.108E-01    0.127E-01
DAV:   6    -0.133914751623E+04    0.48638E-04   -0.62246E-04  2456   0.658E-02    0.908E-02
DAV:   7    -0.133914747030E+04    0.45932E-04   -0.47540E-04  2168   0.381E-02    0.356E-02
DAV:   8    -0.133914747369E+04   -0.33850E-05   -0.10984E-04  1792   0.227E-02    0.270E-02
DAV:   9    -0.133914747750E+04   -0.38102E-05   -0.19849E-05  1056   0.148E-02
   19 T=  1559. E= -.13312689E+04 F= -.13391475E+04 E0= -.13391475E+04  EK= 0.37283E+02 SP= -.42E+02 SK= 0.13E+02
       N       E                     dE             d eps       ncg     rms          rms(c)
DAV:   1    -0.133691856186E+04    0.22289E+01   -0.10357E+00  2376   0.104E+01    0.751E-01
DAV:   2    -0.133708142850E+04   -0.16287E+00   -0.16971E+00  2320   0.294E+00    0.454E-01
DAV:   3    -0.133708642333E+04   -0.49948E-02   -0.69907E-02  2568   0.479E-01    0.380E-01
DAV:   4    -0.133708516809E+04    0.12552E-02   -0.11010E-02  2568   0.219E-01    0.245E-01
DAV:   5    -0.133708501457E+04    0.15352E-03   -0.53921E-03  2392   0.120E-01    0.150E-01
DAV:   6    -0.133708491404E+04    0.10054E-03   -0.70301E-04  2456   0.729E-02    0.105E-01
DAV:   7    -0.133708485277E+04    0.61266E-04   -0.86529E-04  2072   0.483E-02    0.386E-02
DAV:   8    -0.133708485821E+04   -0.54433E-05   -0.16700E-04  1960   0.291E-02    0.310E-02
DAV:   9    -0.133708486447E+04   -0.62614E-05   -0.77520E-05  1584   0.188E-02
   20 T=  1689. E= -.13312816E+04 F= -.13370849E+04 E0= -.13370849E+04  EK= 0.40393E+02 SP= -.47E+02 SK= 0.13E+02
       N       E                     dE             d eps       ncg     rms          rms(c)
DAV:   1    -0.133436675353E+04    0.27181E+01   -0.12821E+00  2320   0.109E+01    0.838E-01
DAV:   2    -0.133456032359E+04   -0.19357E+00   -0.20201E+00  2312   0.317E+00    0.510E-01
DAV:   3    -0.133456637056E+04   -0.60470E-02   -0.85994E-02  2536   0.531E-01    0.435E-01
DAV:   4    -0.133456472408E+04    0.16465E-02   -0.14371E-02  2560   0.250E-01    0.276E-01
DAV:   5    -0.133456458135E+04    0.14273E-03   -0.73393E-03  2424   0.139E-01    0.167E-01
DAV:   6    -0.133456445550E+04    0.12586E-03   -0.96802E-04  2456   0.844E-02    0.121E-01
DAV:   7    -0.133456436731E+04    0.88189E-04   -0.10795E-03  2112   0.532E-02    0.449E-02
DAV:   8    -0.133456437517E+04   -0.78619E-05   -0.22048E-04  2192   0.325E-02    0.348E-02
DAV:   9    -0.133456438361E+04   -0.84363E-05   -0.79122E-05  1584   0.200E-02
   21 T=  1811. E= -.13312950E+04 F= -.13345644E+04 E0= -.13345644E+04  EK= 0.43313E+02 SP= -.52E+02 SK= 0.12E+02
       N       E                     dE             d eps       ncg     rms          rms(c)
DAV:   1    -0.133135598233E+04    0.32084E+01   -0.15729E+00  2328   0.115E+01    0.918E-01
DAV:   2    -0.133157681744E+04   -0.22084E+00   -0.23086E+00  2312   0.337E+00    0.560E-01
DAV:   3    -0.133158367568E+04   -0.68582E-02   -0.99795E-02  2528   0.569E-01    0.479E-01
DAV:   4    -0.133158165600E+04    0.20197E-02   -0.18162E-02  2560   0.275E-01    0.297E-01
DAV:   5    -0.133158160067E+04    0.55324E-04   -0.87994E-03  2416   0.153E-01    0.184E-01
DAV:   6    -0.133158144622E+04    0.15446E-03   -0.11868E-03  2496   0.920E-02    0.137E-01
DAV:   7    -0.133158134015E+04    0.10607E-03   -0.12704E-03  2208   0.569E-02    0.526E-02
DAV:   8    -0.133158134352E+04   -0.33676E-05   -0.25449E-04  2216   0.344E-02    0.388E-02
DAV:   9    -0.133158135369E+04   -0.10171E-04   -0.82836E-05  1664   0.196E-02    0.241E-02
DAV:  10    -0.133158134982E+04    0.38721E-05   -0.78972E-06   968   0.132E-02
   22 T=  1920. E= -.13312988E+04 F= -.13315813E+04 E0= -.13315813E+04  EK= 0.45904E+02 SP= -.56E+02 SK= 0.11E+02
       N       E                     dE             d eps       ncg     rms          rms(c)
DAV:   1    -0.132795207389E+04    0.36293E+01   -0.18601E+00  2280   0.122E+01    0.998E-01
DAV:   2    -0.132819787793E+04   -0.24580E+00   -0.25627E+00  2328   0.349E+00    0.643E-01
DAV:   3    -0.132820437948E+04   -0.65015E-02   -0.10796E-01  2568   0.601E-01    0.537E-01
DAV:   4    -0.132820162524E+04    0.27542E-02   -0.27086E-02  2528   0.318E-01    0.320E-01
DAV:   5    -0.132820210333E+04   -0.47809E-03   -0.11129E-02  2488   0.176E-01    0.239E-01
DAV:   6    -0.132820153872E+04    0.56461E-03   -0.18226E-03  2512   0.113E-01    0.153E-01
DAV:   7    -0.132820146628E+04    0.72431E-04   -0.24491E-03  2344   0.744E-02    0.535E-02
DAV:   8    -0.132820147888E+04   -0.12593E-04   -0.27654E-04  2248   0.414E-02    0.402E-02
DAV:   9    -0.132820149930E+04   -0.20419E-04   -0.11273E-04  1792   0.202E-02    0.350E-02
DAV:  10    -0.132820147688E+04    0.22416E-04   -0.14546E-05  1048   0.177E-02    0.245E-02
DAV:  11    -0.132820148255E+04   -0.56721E-05   -0.22891E-04  1688   0.239E-02    0.150E-02
DAV:  12    -0.132820148181E+04    0.73956E-06   -0.14258E-05   992   0.129E-02
   23 T=  2010. E= -.13313005E+04 F= -.13282015E+04 E0= -.13282015E+04  EK= 0.48063E+02 SP= -.60E+02 SK= 0.93E+01
       N       E                     dE             d eps       ncg     rms          rms(c)
DAV:   1    -0.132429572992E+04    0.39058E+01   -0.23149E+00  2176   0.126E+01    0.107E+00
DAV:   2    -0.132457017075E+04   -0.27444E+00   -0.28547E+00  2312   0.379E+00    0.716E-01
DAV:   3    -0.132457759890E+04   -0.74282E-02   -0.11902E-01  2568   0.632E-01    0.563E-01
DAV:   4    -0.132457478796E+04    0.28109E-02   -0.35322E-02  2496   0.353E-01    0.361E-01
DAV:   5    -0.132457580898E+04   -0.10210E-02   -0.11454E-02  2480   0.188E-01    0.294E-01
DAV:   6    -0.132457472046E+04    0.10885E-02   -0.32524E-03  2480   0.131E-01    0.166E-01
DAV:   7    -0.132457472807E+04   -0.76092E-05   -0.27958E-03  2408   0.846E-02    0.668E-02
DAV:   8    -0.132457473690E+04   -0.88245E-05   -0.28266E-04  2256   0.438E-02    0.427E-02
DAV:   9    -0.132457476221E+04   -0.25316E-04   -0.16225E-04  1912   0.224E-02    0.395E-02
DAV:  10    -0.132457473535E+04    0.26859E-04   -0.27738E-05  1120   0.197E-02    0.260E-02
DAV:  11    -0.132457474032E+04   -0.49703E-05   -0.21252E-04  1744   0.239E-02    0.133E-02
DAV:  12    -0.132457473781E+04    0.25090E-05   -0.11435E-05   944   0.137E-02
   24 T=  2082. E= -.13313076E+04 F= -.13245747E+04 E0= -.13245747E+04  EK= 0.49777E+02 SP= -.64E+02 SK= 0.78E+01
       N       E                     dE             d eps       ncg     rms          rms(c)
DAV:   1    -0.132061103616E+04    0.39637E+01   -0.28888E+00  2184   0.132E+01    0.115E+00
DAV:   2    -0.132092241140E+04   -0.31138E+00   -0.32562E+00  2296   0.417E+00    0.741E-01
DAV:   3    -0.132093162888E+04   -0.92175E-02   -0.14069E-01  2584   0.689E-01    0.590E-01
DAV:   4    -0.132092847034E+04    0.31585E-02   -0.38079E-02  2520   0.375E-01    0.372E-01
DAV:   5    -0.132092955292E+04   -0.10826E-02   -0.13257E-02  2456   0.199E-01    0.303E-01
DAV:   6    -0.132092847682E+04    0.10761E-02   -0.30942E-03  2488   0.134E-01    0.180E-01
DAV:   7    -0.132092844212E+04    0.34697E-04   -0.33504E-03  2392   0.894E-02    0.741E-02
DAV:   8    -0.132092845004E+04   -0.79225E-05   -0.38115E-04  2328   0.492E-02    0.476E-02
DAV:   9    -0.132092847924E+04   -0.29200E-04   -0.18418E-04  2104   0.240E-02    0.433E-02
DAV:  10    -0.132092844550E+04    0.33743E-04   -0.76399E-05  1544   0.234E-02    0.225E-02
DAV:  11    -0.132092844815E+04   -0.26508E-05   -0.95083E-05  1656   0.193E-02
   25 T=  2139. E= -.13313071E+04 F= -.13209284E+04 E0= -.13209284E+04  EK= 0.51148E+02 SP= -.68E+02 SK= 0.64E+01
       N       E                     dE             d eps       ncg     rms          rms(c)
DAV:   1    -0.131724369032E+04    0.36848E+01   -0.31433E+00  2152   0.133E+01    0.116E+00
DAV:   2    -0.131756772231E+04   -0.32403E+00   -0.33615E+00  2328   0.414E+00    0.759E-01
DAV:   3    -0.131757688869E+04   -0.91664E-02   -0.14354E-01  2584   0.703E-01    0.599E-01
DAV:   4    -0.131757396935E+04    0.29193E-02   -0.42062E-02  2496   0.391E-01    0.368E-01
DAV:   5    -0.131757495357E+04   -0.98422E-03   -0.11419E-02  2472   0.191E-01    0.293E-01
DAV:   6    -0.131757396059E+04    0.99298E-03   -0.26927E-03  2528   0.124E-01    0.168E-01
DAV:   7    -0.131757390791E+04    0.52682E-04   -0.29367E-03  2352   0.841E-02    0.570E-02
DAV:   8    -0.131757392579E+04   -0.17879E-04   -0.36307E-04  2320   0.477E-02    0.412E-02
DAV:   9    -0.131757394907E+04   -0.23284E-04   -0.14231E-04  1912   0.220E-02    0.397E-02
DAV:  10    -0.131757391837E+04    0.30706E-04   -0.29649E-05  1104   0.202E-02    0.257E-02
DAV:  11    -0.131757392473E+04   -0.63607E-05   -0.23220E-04  1816   0.243E-02    0.151E-02
DAV:  12    -0.131757392157E+04    0.31563E-05   -0.11251E-05   944   0.137E-02
   26 T=  2190. E= -.13313101E+04 F= -.13175739E+04 E0= -.13175739E+04  EK= 0.52375E+02 SP= -.71E+02 SK= 0.49E+01
       N       E                     dE             d eps       ncg     rms          rms(c)
DAV:   1    -0.131441734048E+04    0.31566E+01   -0.33782E+00  2144   0.133E+01    0.119E+00
DAV:   2    -0.131474630049E+04   -0.32896E+00   -0.34096E+00  2328   0.411E+00    0.748E-01
DAV:   3    -0.131475656443E+04   -0.10264E-01   -0.14558E-01  2600   0.711E-01    0.582E-01
DAV:   4    -0.131475431333E+04    0.22511E-02   -0.41706E-02  2520   0.392E-01    0.366E-01
DAV:   5    -0.131475530267E+04   -0.98934E-03   -0.10303E-02  2496   0.186E-01    0.292E-01
DAV:   6    -0.131475427632E+04    0.10263E-02   -0.27569E-03  2528   0.120E-01    0.161E-01
DAV:   7    -0.131475421794E+04    0.58387E-04   -0.27524E-03  2328   0.825E-02    0.476E-02
DAV:   8    -0.131475423323E+04   -0.15296E-04   -0.32732E-04  2296   0.455E-02    0.357E-02
DAV:   9    -0.131475424864E+04   -0.15407E-04   -0.10090E-04  1760   0.194E-02    0.320E-02
DAV:  10    -0.131475422942E+04    0.19221E-04   -0.14755E-05  1008   0.173E-02    0.221E-02
DAV:  11    -0.131475423801E+04   -0.85919E-05   -0.21700E-04  1696   0.237E-02    0.184E-02
DAV:  12    -0.131475423520E+04    0.28084E-05   -0.12602E-05   960   0.134E-02
   27 T=  2242. E= -.13313283E+04 F= -.13147542E+04 E0= -.13147542E+04  EK= 0.53613E+02 SP= -.74E+02 SK= 0.36E+01
       N       E                     dE             d eps       ncg     rms          rms(c)
DAV:   1    -0.131215419826E+04    0.26000E+01   -0.32052E+00  2152   0.129E+01    0.117E+00
DAV:   2    -0.131248640607E+04   -0.33221E+00   -0.34400E+00  2312   0.414E+00    0.761E-01
DAV:   3    -0.131249706675E+04   -0.10661E-01   -0.15448E-01  2592   0.730E-01    0.603E-01
DAV:   4    -0.131249440942E+04    0.26573E-02   -0.43497E-02  2520   0.401E-01    0.375E-01
DAV:   5    -0.131249553095E+04   -0.11215E-02   -0.11936E-02  2504   0.194E-01    0.300E-01
DAV:   6    -0.131249446162E+04    0.10693E-02   -0.27638E-03  2496   0.126E-01    0.176E-01
DAV:   7    -0.131249439861E+04    0.63015E-04   -0.32026E-03  2288   0.865E-02    0.545E-02
DAV:   8    -0.131249441642E+04   -0.17813E-04   -0.38274E-04  2304   0.491E-02    0.383E-02
DAV:   9    -0.131249443801E+04   -0.21592E-04   -0.14610E-04  1912   0.216E-02    0.361E-02
DAV:  10    -0.131249441309E+04    0.24925E-04   -0.19791E-05  1008   0.188E-02    0.249E-02
DAV:  11    -0.131249442355E+04   -0.10466E-04   -0.28633E-04  1728   0.264E-02    0.204E-02
DAV:  12    -0.131249441865E+04    0.49009E-05   -0.17108E-05   944   0.150E-02
   28 T=  2292. E= -.13313610E+04 F= -.13124944E+04 E0= -.13124944E+04  EK= 0.54814E+02 SP= -.76E+02 SK= 0.24E+01
       N       E                     dE             d eps       ncg     rms          rms(c)
DAV:   1    -0.131026692072E+04    0.22275E+01   -0.30592E+00  2208   0.129E+01    0.117E+00
DAV:   2    -0.131059695671E+04   -0.33004E+00   -0.34324E+00  2312   0.404E+00    0.751E-01
DAV:   3    -0.131060823832E+04   -0.11282E-01   -0.16083E-01  2592   0.733E-01    0.600E-01
DAV:   4    -0.131060543599E+04    0.28023E-02   -0.40653E-02  2520   0.394E-01    0.374E-01
DAV:   5    -0.131060643741E+04   -0.10014E-02   -0.12777E-02  2496   0.194E-01    0.293E-01
DAV:   6    -0.131060548896E+04    0.94845E-03   -0.25348E-03  2504   0.126E-01    0.180E-01
DAV:   7    -0.131060542070E+04    0.68254E-04   -0.34165E-03  2272   0.875E-02    0.581E-02
DAV:   8    -0.131060543326E+04   -0.12554E-04   -0.45217E-04  2296   0.519E-02    0.404E-02
DAV:   9    -0.131060546052E+04   -0.27262E-04   -0.19057E-04  2104   0.240E-02    0.391E-02
DAV:  10    -0.131060543117E+04    0.29347E-04   -0.48766E-05  1280   0.210E-02    0.235E-02
DAV:  11    -0.131060543737E+04   -0.62019E-05   -0.18787E-04  1808   0.223E-02    0.145E-02
DAV:  12    -0.131060543318E+04    0.41902E-05   -0.11299E-05   920   0.136E-02
   29 T=  2330. E= -.13313892E+04 F= -.13106054E+04 E0= -.13106054E+04  EK= 0.55723E+02 SP= -.78E+02 SK= 0.14E+01
       N       E                     dE             d eps       ncg     rms          rms(c)
DAV:   1    -0.130856587047E+04    0.20396E+01   -0.30861E+00  2240   0.127E+01    0.121E+00
DAV:   2    -0.130888623836E+04   -0.32037E+00   -0.33491E+00  2304   0.383E+00    0.755E-01
DAV:   3    -0.130889761578E+04   -0.11377E-01   -0.16135E-01  2600   0.731E-01    0.601E-01
DAV:   4    -0.130889491867E+04    0.26971E-02   -0.42607E-02  2512   0.404E-01    0.377E-01
DAV:   5    -0.130889607873E+04   -0.11601E-02   -0.13782E-02  2496   0.199E-01    0.306E-01
DAV:   6    -0.130889493156E+04    0.11472E-02   -0.30511E-03  2512   0.135E-01    0.181E-01
DAV:   7    -0.130889486980E+04    0.61761E-04   -0.40955E-03  2344   0.944E-02    0.605E-02
DAV:   8    -0.130889487615E+04   -0.63451E-05   -0.54263E-04  2344   0.564E-02    0.391E-02
DAV:   9    -0.130889490678E+04   -0.30632E-04   -0.22291E-04  2176   0.254E-02    0.410E-02
DAV:  10    -0.130889487505E+04    0.31733E-04   -0.83926E-05  1608   0.227E-02    0.201E-02
DAV:  11    -0.130889487543E+04   -0.38545E-06   -0.56904E-05  1392   0.168E-02
   30 T=  2345. E= -.13313943E+04 F= -.13088949E+04 E0= -.13088949E+04  EK= 0.56085E+02 SP= -.79E+02 SK= 0.64E+00
       N       E                     dE             d eps       ncg     rms          rms(c)
DAV:   1    -0.130710622938E+04    0.17886E+01   -0.32610E+00  2200   0.125E+01    0.120E+00
DAV:   2    -0.130743018942E+04   -0.32396E+00   -0.33773E+00  2320   0.374E+00    0.776E-01
DAV:   3    -0.130744059910E+04   -0.10410E-01   -0.16180E-01  2600   0.728E-01    0.628E-01
DAV:   4    -0.130743747530E+04    0.31238E-02   -0.45390E-02  2528   0.407E-01    0.380E-01
DAV:   5    -0.130743857850E+04   -0.11032E-02   -0.14114E-02  2464   0.200E-01    0.305E-01
DAV:   6    -0.130743741805E+04    0.11604E-02   -0.33349E-03  2496   0.138E-01    0.174E-01
DAV:   7    -0.130743738595E+04    0.32103E-04   -0.40693E-03  2344   0.936E-02    0.680E-02
DAV:   8    -0.130743738612E+04   -0.17414E-06   -0.63541E-04  2360   0.584E-02    0.397E-02
DAV:   9    -0.130743741752E+04   -0.31397E-04   -0.22389E-04  2176   0.264E-02    0.434E-02
DAV:  10    -0.130743738170E+04    0.35821E-04   -0.80487E-05  1640   0.226E-02    0.207E-02
DAV:  11    -0.130743738110E+04    0.59308E-06   -0.56584E-05  1304   0.172E-02
   31 T=  2338. E= -.13313877E+04 F= -.13074374E+04 E0= -.13074374E+04  EK= 0.55917E+02 SP= -.80E+02 SK= 0.18E+00
       N       E                     dE             d eps       ncg     rms          rms(c)
DAV:   1    -0.130616779190E+04    0.12696E+01   -0.32154E+00  2168   0.122E+01    0.118E+00
DAV:   2    -0.130648799172E+04   -0.32020E+00   -0.33502E+00  2304   0.368E+00    0.727E-01
DAV:   3    -0.130649811688E+04   -0.10125E-01   -0.15525E-01  2608   0.718E-01    0.608E-01
DAV:   4    -0.130649492764E+04    0.31892E-02   -0.37604E-02  2560   0.375E-01    0.360E-01
DAV:   5    -0.130649559762E+04   -0.66998E-03   -0.13409E-02  2496   0.190E-01    0.272E-01
DAV:   6    -0.130649484917E+04    0.74845E-03   -0.23731E-03  2528   0.122E-01    0.170E-01
DAV:   7    -0.130649474794E+04    0.10123E-03   -0.36077E-03  2296   0.871E-02    0.656E-02
DAV:   8    -0.130649474507E+04    0.28768E-05   -0.58492E-04  2336   0.543E-02    0.397E-02
DAV:   9    -0.130649477181E+04   -0.26748E-04   -0.19821E-04  2152   0.251E-02    0.379E-02
DAV:  10    -0.130649474575E+04    0.26063E-04   -0.35135E-05  1224   0.190E-02    0.235E-02
DAV:  11    -0.130649474920E+04   -0.34499E-05   -0.16455E-04  1728   0.208E-02    0.112E-02
DAV:  12    -0.130649474812E+04    0.10817E-05   -0.90870E-06   920   0.117E-02
   32 T=  2319. E= -.13313888E+04 F= -.13064947E+04 E0= -.13064947E+04  EK= 0.55459E+02 SP= -.80E+02 SK= 0.21E-02
       N       E                     dE             d eps       ncg     rms          rms(c)
DAV:   1    -0.130580408219E+04    0.69067E+00   -0.30177E+00  2096   0.121E+01    0.115E+00
DAV:   2    -0.130611077854E+04   -0.30670E+00   -0.32049E+00  2296   0.358E+00    0.681E-01
DAV:   3    -0.130612031357E+04   -0.95350E-02   -0.14306E-01  2600   0.703E-01    0.579E-01
DAV:   4    -0.130611739287E+04    0.29207E-02   -0.32600E-02  2544   0.346E-01    0.340E-01
DAV:   5    -0.130611791145E+04   -0.51858E-03   -0.11984E-02  2496   0.180E-01    0.249E-01
DAV:   6    -0.130611735805E+04    0.55340E-03   -0.20062E-03  2544   0.112E-01    0.158E-01
DAV:   7    -0.130611725374E+04    0.10431E-03   -0.29832E-03  2248   0.802E-02    0.597E-02
DAV:   8    -0.130611724976E+04    0.39708E-05   -0.46735E-04  2368   0.487E-02    0.356E-02
DAV:   9    -0.130611727142E+04   -0.21653E-04   -0.17594E-04  2096   0.232E-02    0.314E-02
DAV:  10    -0.130611725481E+04    0.16610E-04   -0.15360E-05  1000   0.164E-02    0.220E-02
DAV:  11    -0.130611726012E+04   -0.53138E-05   -0.19897E-04  1664   0.219E-02    0.154E-02
DAV:  12    -0.130611725849E+04    0.16345E-05   -0.12356E-05   920   0.125E-02
   33 T=  2291. E= -.13314057E+04 F= -.13061173E+04 E0= -.13061173E+04  EK= 0.54784E+02 SP= -.80E+02 SK= 0.10E+00
       N       E                     dE             d eps       ncg     rms          rms(c)
DAV:   1    -0.130575440838E+04    0.36285E+00   -0.33097E+00  2096   0.124E+01    0.115E+00
DAV:   2    -0.130605742720E+04   -0.30302E+00   -0.31649E+00  2280   0.371E+00    0.703E-01
DAV:   3    -0.130606528982E+04   -0.78626E-02   -0.13223E-01  2608   0.710E-01    0.588E-01
DAV:   4    -0.130606208297E+04    0.32069E-02   -0.35453E-02  2520   0.357E-01    0.336E-01
DAV:   5    -0.130606272452E+04   -0.64155E-03   -0.11205E-02  2488   0.179E-01    0.255E-01
DAV:   6    -0.130606205886E+04    0.66567E-03   -0.22083E-03  2520   0.113E-01    0.152E-01
DAV:   7    -0.130606199126E+04    0.67596E-04   -0.28052E-03  2328   0.786E-02    0.566E-02
DAV:   8    -0.130606199170E+04   -0.44151E-06   -0.47312E-04  2296   0.494E-02    0.325E-02
DAV:   9    -0.130606201126E+04   -0.19563E-04   -0.13938E-04  2032   0.224E-02    0.306E-02
DAV:  10    -0.130606199305E+04    0.18214E-04   -0.16067E-05  1016   0.167E-02    0.200E-02
DAV:  11    -0.130606199913E+04   -0.60792E-05   -0.17793E-04  1664   0.207E-02    0.144E-02
DAV:  12    -0.130606199718E+04    0.19506E-05   -0.10049E-05   904   0.119E-02
   34 T=  2246. E= -.13314186E+04 F= -.13060620E+04 E0= -.13060620E+04  EK= 0.53715E+02 SP= -.80E+02 SK= 0.45E+00
       N       E                     dE             d eps       ncg     rms          rms(c)
DAV:   1    -0.130577810375E+04    0.28390E+00   -0.35125E+00  2048   0.125E+01    0.116E+00
DAV:   2    -0.130608817500E+04   -0.31007E+00   -0.32380E+00  2296   0.386E+00    0.685E-01
DAV:   3    -0.130609743956E+04   -0.92646E-02   -0.14202E-01  2592   0.721E-01    0.574E-01
DAV:   4    -0.130609457413E+04    0.28654E-02   -0.33752E-02  2544   0.358E-01    0.334E-01
DAV:   5    -0.130609512100E+04   -0.54688E-03   -0.10889E-02  2488   0.177E-01    0.247E-01
DAV:   6    -0.130609455560E+04    0.56540E-03   -0.20351E-03  2520   0.111E-01    0.153E-01
DAV:   7    -0.130609446851E+04    0.87098E-04   -0.28938E-03  2272   0.808E-02    0.594E-02
DAV:   8    -0.130609445979E+04    0.87184E-05   -0.55385E-04  2336   0.525E-02    0.331E-02
DAV:   9    -0.130609448151E+04   -0.21723E-04   -0.16649E-04  2088   0.245E-02    0.299E-02
DAV:  10    -0.130609446369E+04    0.17824E-04   -0.16816E-05  1008   0.175E-02    0.199E-02
DAV:  11    -0.130609447355E+04   -0.98585E-05   -0.22299E-04  1656   0.229E-02    0.193E-02
DAV:  12    -0.130609446966E+04    0.38862E-05   -0.13437E-05   952   0.135E-02
   35 T=  2179. E= -.13314142E+04 F= -.13060945E+04 E0= -.13060945E+04  EK= 0.52109E+02 SP= -.78E+02 SK= 0.99E+00
       N       E                     dE             d eps       ncg     rms          rms(c)
DAV:   1    -0.130583274753E+04    0.26173E+00   -0.34478E+00  2120   0.120E+01    0.115E+00
DAV:   2    -0.130613664620E+04   -0.30390E+00   -0.31607E+00  2312   0.376E+00    0.661E-01
DAV:   3    -0.130614734533E+04   -0.10699E-01   -0.15273E-01  2600   0.712E-01    0.553E-01
DAV:   4    -0.130614507545E+04    0.22699E-02   -0.33118E-02  2560   0.366E-01    0.326E-01
DAV:   5    -0.130614552590E+04   -0.45044E-03   -0.97375E-03  2504   0.172E-01    0.231E-01
DAV:   6    -0.130614503961E+04    0.48629E-03   -0.18994E-03  2552   0.109E-01    0.134E-01
DAV:   7    -0.130614500053E+04    0.39072E-04   -0.22099E-03  2368   0.729E-02    0.532E-02
DAV:   8    -0.130614499723E+04    0.33004E-05   -0.43101E-04  2320   0.472E-02    0.301E-02
DAV:   9    -0.130614501479E+04   -0.17560E-04   -0.12166E-04  1896   0.220E-02    0.294E-02
DAV:  10    -0.130614499594E+04    0.18855E-04   -0.14822E-05  1048   0.169E-02    0.191E-02
DAV:  11    -0.130614500287E+04   -0.69331E-05   -0.18611E-04  1624   0.217E-02    0.159E-02
DAV:  12    -0.130614500067E+04    0.22054E-05   -0.10877E-05   912   0.130E-02
   36 T=  2091. E= -.13314107E+04 F= -.13061450E+04 E0= -.13061450E+04  EK= 0.49991E+02 SP= -.77E+02 SK= 0.16E+01
       N       E                     dE             d eps       ncg     rms          rms(c)
DAV:   1    -0.130589582110E+04    0.24918E+00   -0.32390E+00  2064   0.118E+01    0.113E+00
DAV:   2    -0.130619554929E+04   -0.29973E+00   -0.31067E+00  2312   0.380E+00    0.627E-01
DAV:   3    -0.130620593342E+04   -0.10384E-01   -0.14348E-01  2568   0.698E-01    0.523E-01
DAV:   4    -0.130620406201E+04    0.18714E-02   -0.26407E-02  2560   0.331E-01    0.322E-01
DAV:   5    -0.130620421650E+04   -0.15449E-03   -0.81210E-03  2504   0.157E-01    0.206E-01
DAV:   6    -0.130620395368E+04    0.26282E-03   -0.14942E-03  2528   0.976E-02    0.117E-01
DAV:   7    -0.130620391335E+04    0.40328E-04   -0.15123E-03  2400   0.619E-02    0.491E-02
DAV:   8    -0.130620390834E+04    0.50052E-05   -0.33126E-04  2248   0.401E-02    0.259E-02
DAV:   9    -0.130620392206E+04   -0.13718E-04   -0.89350E-05  1848   0.201E-02    0.235E-02
DAV:  10    -0.130620390924E+04    0.12826E-04   -0.97308E-06   984   0.150E-02    0.151E-02
DAV:  11    -0.130620391545E+04   -0.62176E-05   -0.13888E-04  1560   0.195E-02    0.147E-02
DAV:  12    -0.130620391364E+04    0.18186E-05   -0.84026E-06   920   0.116E-02
   37 T=  1986. E= -.13313998E+04 F= -.13062039E+04 E0= -.13062039E+04  EK= 0.47499E+02 SP= -.75E+02 SK= 0.23E+01
       N       E                     dE             d eps       ncg     rms          rms(c)
DAV:   1    -0.130597965061E+04    0.22426E+00   -0.32709E+00  2144   0.119E+01    0.106E+00
DAV:   2    -0.130628005237E+04   -0.30040E+00   -0.30993E+00  2312   0.390E+00    0.627E-01
DAV:   3    -0.130629183335E+04   -0.11781E-01   -0.15462E-01  2600   0.710E-01    0.501E-01
DAV:   4    -0.130629035465E+04    0.14787E-02   -0.24938E-02  2568   0.335E-01    0.314E-01
DAV:   5    -0.130629032897E+04    0.25686E-04   -0.58921E-03  2520   0.141E-01    0.199E-01
DAV:   6    -0.130629016618E+04    0.16278E-03   -0.11666E-03  2576   0.841E-02    0.117E-01
DAV:   7    -0.130629014672E+04    0.19465E-04   -0.65279E-04  2504   0.443E-02    0.465E-02
DAV:   8    -0.130629014426E+04    0.24589E-05   -0.18189E-04  2240   0.294E-02    0.289E-02
DAV:   9    -0.130629014898E+04   -0.47169E-05   -0.25887E-05  1216   0.150E-02
   38 T=  1873. E= -.13313899E+04 F= -.13062901E+04 E0= -.13062901E+04  EK= 0.44789E+02 SP= -.73E+02 SK= 0.30E+01
       N       E                     dE             d eps       ncg     rms          rms(c)
DAV:   1    -0.130611527213E+04    0.17487E+00   -0.33403E+00  2208   0.121E+01    0.123E+00
DAV:   2    -0.130641467472E+04   -0.29940E+00   -0.31096E+00  2336   0.398E+00    0.833E-01
DAV:   3    -0.130642542522E+04   -0.10751E-01   -0.15346E-01  2592   0.700E-01    0.607E-01
DAV:   4    -0.130642368251E+04    0.17427E-02   -0.49943E-02  2496   0.419E-01    0.448E-01
DAV:   5    -0.130642490298E+04   -0.12205E-02   -0.11011E-02  2480   0.200E-01    0.352E-01
DAV:   6    -0.130642317255E+04    0.17304E-02   -0.58448E-03  2512   0.152E-01    0.167E-01
DAV:   7    -0.130642325310E+04   -0.80554E-04   -0.28812E-03  2400   0.915E-02    0.738E-02
DAV:   8    -0.130642325281E+04    0.29427E-06   -0.28031E-04  2232   0.428E-02    0.394E-02
DAV:   9    -0.130642326891E+04   -0.16109E-04   -0.16360E-04  1936   0.225E-02    0.343E-02
DAV:  10    -0.130642325032E+04    0.18595E-04   -0.18447E-05  1048   0.186E-02    0.217E-02
DAV:  11    -0.130642325642E+04   -0.61054E-05   -0.18882E-04  1704   0.228E-02    0.147E-02
DAV:  12    -0.130642325558E+04    0.84893E-06   -0.12159E-05   936   0.129E-02
   39 T=  1758. E= -.13313664E+04 F= -.13064233E+04 E0= -.13064233E+04  EK= 0.42029E+02 SP= -.70E+02 SK= 0.35E+01
       N       E                     dE             d eps       ncg     rms          rms(c)
DAV:   1    -0.130647308912E+04   -0.49833E-01   -0.31049E+00  2248   0.117E+01    0.159E+00
DAV:   2    -0.130673994339E+04   -0.26685E+00   -0.27831E+00  2336   0.361E+00    0.115E+00
DAV:   3    -0.130674740102E+04   -0.74576E-02   -0.13477E-01  2536   0.661E-01    0.768E-01
DAV:   4    -0.130674787860E+04   -0.47759E-03   -0.84783E-02  2416   0.499E-01    0.648E-01
DAV:   5    -0.130674877979E+04   -0.90118E-03   -0.13745E-02  2344   0.244E-01    0.471E-01
DAV:   6    -0.130674510006E+04    0.36797E-02   -0.16412E-02  2192   0.219E-01    0.168E-01
DAV:   7    -0.130674549448E+04   -0.39441E-03   -0.60955E-03  2368   0.138E-01    0.103E-01
DAV:   8    -0.130674544302E+04    0.51456E-04   -0.45962E-04  2336   0.556E-02    0.503E-02
DAV:   9    -0.130674543608E+04    0.69420E-05   -0.45821E-04  2000   0.335E-02    0.307E-02
DAV:  10    -0.130674543251E+04    0.35650E-05   -0.43649E-05  1376   0.196E-02
   40 T=  1650. E= -.13313403E+04 F= -.13067454E+04 E0= -.13067454E+04  EK= 0.39460E+02 SP= -.68E+02 SK= 0.39E+01
       N       E                     dE             d eps       ncg     rms          rms(c)
DAV:   1    -0.130720747101E+04   -0.46203E+00   -0.22970E+00  2232   0.110E+01    0.138E+00
DAV:   2    -0.130743773263E+04   -0.23026E+00   -0.24268E+00  2328   0.334E+00    0.103E+00
DAV:   3    -0.130744373275E+04   -0.60001E-02   -0.11450E-01  2504   0.616E-01    0.732E-01
DAV:   4    -0.130744306431E+04    0.66844E-03   -0.81995E-02  2408   0.491E-01    0.611E-01
DAV:   5    -0.130744510374E+04   -0.20394E-02   -0.15869E-02  2368   0.246E-01    0.498E-01
DAV:   6    -0.130744086642E+04    0.42373E-02   -0.13551E-02  2408   0.213E-01    0.202E-01
DAV:   7    -0.130744100532E+04   -0.13890E-03   -0.67529E-03  2376   0.137E-01    0.783E-02
DAV:   8    -0.130744100452E+04    0.79902E-06   -0.51145E-04  2392   0.556E-02    0.416E-02
DAV:   9    -0.130744101641E+04   -0.11892E-04   -0.23576E-04  2080   0.255E-02    0.322E-02
DAV:  10    -0.130744100436E+04    0.12053E-04   -0.17048E-05  1056   0.172E-02    0.228E-02
DAV:  11    -0.130744100815E+04   -0.37953E-05   -0.18043E-04  1680   0.230E-02    0.141E-02
DAV:  12    -0.130744100769E+04    0.46265E-06   -0.15855E-05  1000   0.140E-02
   41 T=  1561. E= -.13313281E+04 F= -.13074410E+04 E0= -.13074410E+04  EK= 0.37318E+02 SP= -.65E+02 SK= 0.41E+01
       N       E                     dE             d eps       ncg     rms          rms(c)
DAV:   1    -0.130829530520E+04   -0.85430E+00   -0.15928E+00  2224   0.107E+01    0.890E-01
DAV:   2    -0.130849596181E+04   -0.20066E+00   -0.20930E+00  2328   0.319E+00    0.605E-01
DAV:   3    -0.130850204472E+04   -0.60829E-02   -0.94887E-02  2544   0.547E-01    0.499E-01
DAV:   4    -0.130850001091E+04    0.20338E-02   -0.23489E-02  2504   0.292E-01    0.282E-01
DAV:   5    -0.130850034830E+04   -0.33739E-03   -0.72380E-03  2512   0.153E-01    0.205E-01
DAV:   6    -0.130850000358E+04    0.34472E-03   -0.10496E-03  2544   0.872E-02    0.130E-01
DAV:   7    -0.130849987457E+04    0.12901E-03   -0.16371E-03  2208   0.630E-02    0.355E-02
DAV:   8    -0.130849989174E+04   -0.17162E-04   -0.23494E-04  2192   0.380E-02    0.288E-02
DAV:   9    -0.130849989864E+04   -0.69055E-05   -0.28762E-05  1128   0.162E-02
   42 T=  1489. E= -.13313371E+04 F= -.13084999E+04 E0= -.13084999E+04  EK= 0.35615E+02 SP= -.63E+02 SK= 0.41E+01
       N       E                     dE             d eps       ncg     rms          rms(c)
DAV:   1    -0.130945158490E+04   -0.95169E+00   -0.17361E+00  2232   0.107E+01    0.119E+00
DAV:   2    -0.130965549024E+04   -0.20391E+00   -0.21728E+00  2336   0.324E+00    0.791E-01
DAV:   3    -0.130966052532E+04   -0.50351E-02   -0.10001E-01  2512   0.589E-01    0.603E-01
DAV:   4    -0.130965828282E+04    0.22425E-02   -0.61991E-02  2392   0.431E-01    0.470E-01
DAV:   5    -0.130966123965E+04   -0.29568E-02   -0.17344E-02  2416   0.232E-01    0.464E-01
DAV:   6    -0.130965755451E+04    0.36851E-02   -0.11040E-02  2464   0.206E-01    0.207E-01
DAV:   7    -0.130965761113E+04   -0.56622E-04   -0.59443E-03  2320   0.127E-01    0.788E-02
DAV:   8    -0.130965764439E+04   -0.33256E-04   -0.51391E-04  2376   0.533E-02    0.441E-02
DAV:   9    -0.130965764373E+04    0.66026E-06   -0.13651E-04  1952   0.245E-02    0.267E-02
DAV:  10    -0.130965764394E+04   -0.21544E-06   -0.21307E-05  1104   0.156E-02
   43 T=  1427. E= -.13313391E+04 F= -.13096576E+04 E0= -.13096576E+04  EK= 0.34134E+02 SP= -.60E+02 SK= 0.41E+01
       N       E                     dE             d eps       ncg     rms          rms(c)
DAV:   1    -0.131049437424E+04   -0.83673E+00   -0.20632E+00  2280   0.106E+01    0.138E+00
DAV:   2    -0.131070148668E+04   -0.20711E+00   -0.21929E+00  2312   0.321E+00    0.980E-01
DAV:   3    -0.131070560208E+04   -0.41154E-02   -0.10181E-01  2464   0.618E-01    0.685E-01
DAV:   4    -0.131070558514E+04    0.16937E-04   -0.90698E-02  2288   0.501E-01    0.600E-01
DAV:   5    -0.131070754539E+04   -0.19602E-02   -0.16906E-02  2320   0.254E-01    0.519E-01
DAV:   6    -0.131070286105E+04    0.46843E-02   -0.15263E-02  2304   0.219E-01    0.213E-01
DAV:   7    -0.131070312534E+04   -0.26429E-03   -0.89395E-03  2360   0.151E-01    0.979E-02
DAV:   8    -0.131070308281E+04    0.42529E-04   -0.72705E-04  2408   0.647E-02    0.558E-02
DAV:   9    -0.131070307983E+04    0.29774E-05   -0.35018E-04  2144   0.299E-02    0.297E-02
DAV:  10    -0.131070307590E+04    0.39301E-05   -0.25549E-05  1224   0.173E-02
   44 T=  1367. E= -.13313283E+04 F= -.13107031E+04 E0= -.13107031E+04  EK= 0.32698E+02 SP= -.57E+02 SK= 0.39E+01
       N       E                     dE             d eps       ncg     rms          rms(c)
DAV:   1    -0.131139546165E+04   -0.69238E+00   -0.20045E+00  2208   0.105E+01    0.103E+00
DAV:   2    -0.131159788070E+04   -0.20242E+00   -0.21123E+00  2344   0.316E+00    0.773E-01
DAV:   3    -0.131160326639E+04   -0.53857E-02   -0.99453E-02  2512   0.570E-01    0.571E-01
DAV:   4    -0.131160149344E+04    0.17730E-02   -0.48088E-02  2416   0.386E-01    0.420E-01
DAV:   5    -0.131160297135E+04   -0.14779E-02   -0.10954E-02  2416   0.192E-01    0.366E-01
DAV:   6    -0.131160102824E+04    0.19431E-02   -0.53624E-03  2488   0.146E-01    0.186E-01
DAV:   7    -0.131160104163E+04   -0.13397E-04   -0.37646E-03  2344   0.988E-02    0.664E-02
DAV:   8    -0.131160104343E+04   -0.18003E-05   -0.36487E-04  2304   0.463E-02    0.420E-02
DAV:   9    -0.131160105552E+04   -0.12088E-04   -0.14487E-04  2024   0.213E-02    0.314E-02
DAV:  10    -0.131160104459E+04    0.10933E-04   -0.89858E-06  1000   0.143E-02    0.251E-02
DAV:  11    -0.131160104980E+04   -0.52072E-05   -0.17425E-04  1696   0.219E-02    0.163E-02
DAV:  12    -0.131160104864E+04    0.11522E-05   -0.15665E-05  1056   0.140E-02
   45 T=  1308. E= -.13313186E+04 F= -.13116010E+04 E0= -.13116010E+04  EK= 0.31286E+02 SP= -.55E+02 SK= 0.36E+01
       N       E                     dE             d eps       ncg     rms          rms(c)
DAV:   1    -0.131219167690E+04   -0.59063E+00   -0.18995E+00  2208   0.103E+01    0.804E-01
DAV:   2    -0.131238403858E+04   -0.19236E+00   -0.19808E+00  2320   0.313E+00    0.500E-01
DAV:   3    -0.131239109668E+04   -0.70581E-02   -0.93926E-02  2528   0.530E-01    0.385E-01
DAV:   4    -0.131239017103E+04    0.92565E-03   -0.15670E-02  2528   0.255E-01    0.249E-01
DAV:   5    -0.131239019427E+04   -0.23242E-04   -0.38408E-03  2472   0.114E-01    0.167E-01
DAV:   6    -0.131239003035E+04    0.16392E-03   -0.65916E-04  2528   0.641E-02    0.103E-01
DAV:   7    -0.131239001468E+04    0.15674E-04   -0.60894E-04  2328   0.419E-02    0.347E-02
DAV:   8    -0.131239002064E+04   -0.59573E-05   -0.13748E-04  2176   0.269E-02    0.282E-02
DAV:   9    -0.131239002768E+04   -0.70449E-05   -0.40515E-05  1344   0.153E-02
   46 T=  1253. E= -.13313078E+04 F= -.13123900E+04 E0= -.13123900E+04  EK= 0.29958E+02 SP= -.52E+02 SK= 0.33E+01
       N       E                     dE             d eps       ncg     rms          rms(c)
DAV:   1    -0.131295309583E+04   -0.56308E+00   -0.15732E+00  2160   0.980E+00    0.812E-01
DAV:   2    -0.131312919582E+04   -0.17610E+00   -0.18272E+00  2328   0.301E+00    0.443E-01
DAV:   3    -0.131313588413E+04   -0.66883E-02   -0.86795E-02  2536   0.514E-01    0.369E-01
DAV:   4    -0.131313507679E+04    0.80735E-03   -0.12700E-02  2592   0.237E-01    0.239E-01
DAV:   5    -0.131313490491E+04    0.17188E-03   -0.42963E-03  2464   0.114E-01    0.138E-01
DAV:   6    -0.131313483062E+04    0.74282E-04   -0.72622E-04  2512   0.691E-02    0.880E-02
DAV:   7    -0.131313478265E+04    0.47970E-04   -0.57396E-04  2264   0.407E-02    0.323E-02
DAV:   8    -0.131313478371E+04   -0.10579E-05   -0.12966E-04  1944   0.254E-02    0.226E-02
DAV:   9    -0.131313478826E+04   -0.45450E-05   -0.27622E-05  1160   0.151E-02
   47 T=  1204. E= -.13313021E+04 F= -.13131348E+04 E0= -.13131348E+04  EK= 0.28786E+02 SP= -.50E+02 SK= 0.29E+01
       N       E                     dE             d eps       ncg     rms          rms(c)
DAV:   1    -0.131372568069E+04   -0.59090E+00   -0.12296E+00  2216   0.935E+00    0.789E-01
DAV:   2    -0.131388387412E+04   -0.15819E+00   -0.16422E+00  2336   0.280E+00    0.472E-01
DAV:   3    -0.131388905819E+04   -0.51841E-02   -0.73607E-02  2480   0.471E-01    0.373E-01
DAV:   4    -0.131388807696E+04    0.98123E-03   -0.15012E-02  2536   0.232E-01    0.231E-01
DAV:   5    -0.131388820249E+04   -0.12553E-03   -0.48758E-03  2496   0.123E-01    0.159E-01
DAV:   6    -0.131388797237E+04    0.23012E-03   -0.76768E-04  2456   0.732E-02    0.984E-02
DAV:   7    -0.131388793232E+04    0.40049E-04   -0.11215E-03  2192   0.522E-02    0.340E-02
DAV:   8    -0.131388793389E+04   -0.15736E-05   -0.16654E-04  2128   0.315E-02    0.238E-02
DAV:   9    -0.131388794337E+04   -0.94799E-05   -0.67206E-05  1584   0.174E-02
   48 T=  1164. E= -.13312918E+04 F= -.13138879E+04 E0= -.13138879E+04  EK= 0.27831E+02 SP= -.48E+02 SK= 0.24E+01
       N       E                     dE             d eps       ncg     rms          rms(c)
DAV:   1    -0.131455891691E+04   -0.67098E+00   -0.10293E+00  2200   0.919E+00    0.762E-01
DAV:   2    -0.131470567514E+04   -0.14676E+00   -0.15384E+00  2328   0.272E+00    0.514E-01
DAV:   3    -0.131470994687E+04   -0.42717E-02   -0.68467E-02  2472   0.464E-01    0.417E-01
DAV:   4    -0.131470837387E+04    0.15730E-02   -0.17037E-02  2520   0.243E-01    0.256E-01
DAV:   5    -0.131470870464E+04   -0.33077E-03   -0.74068E-03  2448   0.144E-01    0.201E-01
DAV:   6    -0.131470831079E+04    0.39385E-03   -0.11458E-03  2456   0.885E-02    0.134E-01
DAV:   7    -0.131470819397E+04    0.11683E-03   -0.17893E-03  2200   0.645E-02    0.455E-02
DAV:   8    -0.131470820455E+04   -0.10579E-04   -0.22613E-04  2184   0.362E-02    0.331E-02
DAV:   9    -0.131470821578E+04   -0.11232E-04   -0.74560E-05  1632   0.182E-02    0.250E-02
DAV:  10    -0.131470820775E+04    0.80265E-05   -0.72804E-06   984   0.135E-02
   49 T=  1135. E= -.13312737E+04 F= -.13147082E+04 E0= -.13147082E+04  EK= 0.27151E+02 SP= -.46E+02 SK= 0.20E+01
       N       E                     dE             d eps       ncg     rms          rms(c)
DAV:   1    -0.131553145426E+04   -0.82324E+00   -0.88976E-01  2288   0.902E+00    0.715E-01
DAV:   2    -0.131566676356E+04   -0.13531E+00   -0.14196E+00  2336   0.260E+00    0.521E-01
DAV:   3    -0.131567008895E+04   -0.33254E-02   -0.63586E-02  2464   0.448E-01    0.434E-01
DAV:   4    -0.131566822050E+04    0.18684E-02   -0.15965E-02  2480   0.236E-01    0.260E-01
DAV:   5    -0.131566839358E+04   -0.17307E-03   -0.82488E-03  2472   0.149E-01    0.195E-01
DAV:   6    -0.131566811960E+04    0.27397E-03   -0.11039E-03  2448   0.884E-02    0.143E-01
DAV:   7    -0.131566794831E+04    0.17129E-03   -0.16123E-03  2176   0.619E-02    0.521E-02
DAV:   8    -0.131566795867E+04   -0.10361E-04   -0.24414E-04  2272   0.359E-02    0.390E-02
DAV:   9    -0.131566796776E+04   -0.90933E-05   -0.53882E-05  1488   0.170E-02
   50 T=  1120. E= -.13312594E+04 F= -.13156680E+04 E0= -.13156680E+04  EK= 0.26794E+02 SP= -.44E+02 SK= 0.15E+01
       N       E                     dE             d eps       ncg     rms          rms(c)
DAV:   1    -0.131671910333E+04   -0.10511E+01   -0.77846E-01  2304   0.878E+00    0.721E-01
DAV:   2    -0.131684362621E+04   -0.12452E+00   -0.13265E+00  2328   0.248E+00    0.499E-01
DAV:   3    -0.131684747965E+04   -0.38534E-02   -0.63002E-02  2488   0.434E-01    0.414E-01
DAV:   4    -0.131684574702E+04    0.17326E-02   -0.15248E-02  2480   0.234E-01    0.251E-01
DAV:   5    -0.131684602361E+04   -0.27660E-03   -0.77173E-03  2440   0.143E-01    0.199E-01
DAV:   6    -0.131684567387E+04    0.34975E-03   -0.11281E-03  2488   0.868E-02    0.143E-01
DAV:   7    -0.131684551448E+04    0.15939E-03   -0.16691E-03  2120   0.621E-02    0.511E-02
DAV:   8    -0.131684552421E+04   -0.97313E-05   -0.23842E-04  2184   0.351E-02    0.370E-02
DAV:   9    -0.131684553251E+04   -0.82977E-05   -0.57925E-05  1504   0.179E-02
   51 T=  1122. E= -.13312515E+04 F= -.13168455E+04 E0= -.13168455E+04  EK= 0.26823E+02 SP= -.42E+02 SK= 0.12E+01
       N       E                     dE             d eps       ncg     rms          rms(c)
DAV:   1    -0.131816240005E+04   -0.13169E+01   -0.71860E-01  2280   0.875E+00    0.705E-01
DAV:   2    -0.131828538562E+04   -0.12299E+00   -0.12998E+00  2336   0.251E+00    0.510E-01
DAV:   3    -0.131828920666E+04   -0.38210E-02   -0.64094E-02  2496   0.432E-01    0.421E-01
DAV:   4    -0.131828739422E+04    0.18124E-02   -0.15880E-02  2496   0.236E-01    0.255E-01
DAV:   5    -0.131828777485E+04   -0.38063E-03   -0.86417E-03  2448   0.152E-01    0.209E-01
DAV:   6    -0.131828735969E+04    0.41517E-03   -0.12946E-03  2472   0.932E-02    0.148E-01
DAV:   7    -0.131828719089E+04    0.16880E-03   -0.21223E-03  2184   0.691E-02    0.494E-02
DAV:   8    -0.131828720296E+04   -0.12076E-04   -0.25967E-04  2232   0.375E-02    0.347E-02
DAV:   9    -0.131828721381E+04   -0.10843E-04   -0.77838E-05  1568   0.187E-02    0.257E-02
DAV:  10    -0.131828721003E+04    0.37781E-05   -0.91903E-06   960   0.131E-02
   52 T=  1140. E= -.13312527E+04 F= -.13182872E+04 E0= -.13182872E+04  EK= 0.27261E+02 SP= -.41E+02 SK= 0.84E+00
       N       E                     dE             d eps       ncg     rms          rms(c)
DAV:   1    -0.131979755454E+04   -0.15103E+01   -0.64869E-01  2312   0.880E+00    0.685E-01
DAV:   2    -0.131991634432E+04   -0.11879E+00   -0.12522E+00  2336   0.247E+00    0.508E-01
DAV:   3    -0.131991966599E+04   -0.33217E-02   -0.60689E-02  2488   0.424E-01    0.425E-01
DAV:   4    -0.131991776929E+04    0.18967E-02   -0.15032E-02  2480   0.229E-01    0.255E-01
DAV:   5    -0.131991812985E+04   -0.36056E-03   -0.98172E-03  2400   0.160E-01    0.205E-01
DAV:   6    -0.131991771225E+04    0.41760E-03   -0.14832E-03  2456   0.999E-02    0.146E-01
DAV:   7    -0.131991755732E+04    0.15493E-03   -0.22936E-03  2256   0.711E-02    0.500E-02
DAV:   8    -0.131991756483E+04   -0.75152E-05   -0.23615E-04  2248   0.356E-02    0.345E-02
DAV:   9    -0.131991757620E+04   -0.11372E-04   -0.89683E-05  1632   0.187E-02    0.270E-02
DAV:  10    -0.131991757107E+04    0.51301E-05   -0.82875E-06   976   0.127E-02
   53 T=  1172. E= -.13312534E+04 F= -.13199176E+04 E0= -.13199176E+04  EK= 0.28027E+02 SP= -.40E+02 SK= 0.58E+00
       N       E                     dE             d eps       ncg     rms          rms(c)
DAV:   1    -0.132146301590E+04   -0.15454E+01   -0.64364E-01  2320   0.901E+00    0.659E-01
DAV:   2    -0.132157988822E+04   -0.11687E+00   -0.12307E+00  2328   0.245E+00    0.456E-01
DAV:   3    -0.132158356355E+04   -0.36753E-02   -0.60174E-02  2480   0.422E-01    0.384E-01
DAV:   4    -0.132158215921E+04    0.14043E-02   -0.11843E-02  2496   0.212E-01    0.234E-01
DAV:   5    -0.132158218614E+04   -0.26936E-04   -0.72028E-03  2408   0.139E-01    0.160E-01
DAV:   6    -0.132158198218E+04    0.20396E-03   -0.10183E-03  2464   0.859E-02    0.118E-01
DAV:   7    -0.132158187714E+04    0.10504E-03   -0.13237E-03  2200   0.562E-02    0.421E-02
DAV:   8    -0.132158188305E+04   -0.59110E-05   -0.18044E-04  2120   0.306E-02    0.298E-02
DAV:   9    -0.132158188991E+04   -0.68562E-05   -0.63489E-05  1520   0.175E-02
   54 T=  1210. E= -.13312587E+04 F= -.13215819E+04 E0= -.13215819E+04  EK= 0.28946E+02 SP= -.39E+02 SK= 0.40E+00
       N       E                     dE             d eps       ncg     rms          rms(c)
DAV:   1    -0.132298834576E+04   -0.14065E+01   -0.61482E-01  2344   0.917E+00    0.647E-01
DAV:   2    -0.132310418147E+04   -0.11584E+00   -0.12208E+00  2336   0.244E+00    0.418E-01
DAV:   3    -0.132310796011E+04   -0.37786E-02   -0.56563E-02  2456   0.406E-01    0.342E-01
DAV:   4    -0.132310692735E+04    0.10328E-02   -0.99769E-03  2544   0.195E-01    0.217E-01
DAV:   5    -0.132310688020E+04    0.47150E-04   -0.51355E-03  2464   0.120E-01    0.145E-01
DAV:   6    -0.132310673062E+04    0.14959E-03   -0.65139E-04  2440   0.705E-02    0.102E-01
DAV:   7    -0.132310666365E+04    0.66967E-04   -0.96331E-04  2096   0.494E-02    0.386E-02
DAV:   8    -0.132310666856E+04   -0.49087E-05   -0.15273E-04  2000   0.285E-02    0.288E-02
DAV:   9    -0.132310667143E+04   -0.28757E-05   -0.72641E-05  1576   0.179E-02
   55 T=  1248. E= -.13312628E+04 F= -.13231067E+04 E0= -.13231067E+04  EK= 0.29840E+02 SP= -.38E+02 SK= 0.26E+00
       N       E                     dE             d eps       ncg     rms          rms(c)
DAV:   1    -0.132424373427E+04   -0.11371E+01   -0.64549E-01  2280   0.935E+00    0.654E-01
DAV:   2    -0.132436767132E+04   -0.12394E+00   -0.12954E+00  2336   0.251E+00    0.449E-01
DAV:   3    -0.132437161459E+04   -0.39433E-02   -0.59022E-02  2480   0.410E-01    0.355E-01
DAV:   4    -0.132437049401E+04    0.11206E-02   -0.11372E-02  2528   0.208E-01    0.230E-01
DAV:   5    -0.132437061351E+04   -0.11950E-03   -0.55163E-03  2440   0.122E-01    0.167E-01
DAV:   6    -0.132437035970E+04    0.25381E-03   -0.83709E-04  2448   0.766E-02    0.111E-01
DAV:   7    -0.132437031191E+04    0.47793E-04   -0.13129E-03  2256   0.553E-02    0.473E-02
DAV:   8    -0.132437030920E+04    0.27033E-05   -0.14590E-04  2088   0.304E-02    0.317E-02
DAV:   9    -0.132437031751E+04   -0.83031E-05   -0.10237E-04  1672   0.186E-02    0.225E-02
DAV:  10    -0.132437031217E+04    0.53315E-05   -0.82834E-06   968   0.129E-02
   56 T=  1279. E= -.13312657E+04 F= -.13243703E+04 E0= -.13243703E+04  EK= 0.30579E+02 SP= -.38E+02 SK= 0.17E+00
       N       E                     dE             d eps       ncg     rms          rms(c)
DAV:   1    -0.132518460876E+04   -0.81429E+00   -0.67562E-01  2280   0.953E+00    0.676E-01
DAV:   2    -0.132531773999E+04   -0.13313E+00   -0.13891E+00  2336   0.258E+00    0.490E-01
DAV:   3    -0.132532159862E+04   -0.38586E-02   -0.61892E-02  2512   0.422E-01    0.392E-01
DAV:   4    -0.132532011451E+04    0.14841E-02   -0.13115E-02  2496   0.219E-01    0.251E-01
DAV:   5    -0.132532029569E+04   -0.18118E-03   -0.69631E-03  2384   0.134E-01    0.189E-01
DAV:   6    -0.132531995084E+04    0.34484E-03   -0.11319E-03  2448   0.853E-02    0.127E-01
DAV:   7    -0.132531987457E+04    0.76271E-04   -0.16003E-03  2296   0.595E-02    0.494E-02
DAV:   8    -0.132531987797E+04   -0.33977E-05   -0.16303E-04  2104   0.311E-02    0.351E-02
DAV:   9    -0.132531988887E+04   -0.10896E-04   -0.77840E-05  1600   0.172E-02    0.271E-02
DAV:  10    -0.132531988029E+04    0.85756E-05   -0.80716E-06   968   0.129E-02
   57 T=  1301. E= -.13312596E+04 F= -.13253199E+04 E0= -.13253199E+04  EK= 0.31112E+02 SP= -.37E+02 SK= 0.10E+00
       N       E                     dE             d eps       ncg     rms          rms(c)
DAV:   1    -0.132584775440E+04   -0.52787E+00   -0.66655E-01  2304   0.959E+00    0.690E-01
DAV:   2    -0.132598542432E+04   -0.13767E+00   -0.14440E+00  2336   0.263E+00    0.485E-01
DAV:   3    -0.132598946388E+04   -0.40396E-02   -0.63791E-02  2488   0.435E-01    0.398E-01
DAV:   4    -0.132598793908E+04    0.15248E-02   -0.12490E-02  2520   0.214E-01    0.253E-01
DAV:   5    -0.132598796043E+04   -0.21354E-04   -0.77851E-03  2376   0.141E-01    0.177E-01
DAV:   6    -0.132598772450E+04    0.23593E-03   -0.11104E-03  2448   0.846E-02    0.131E-01
DAV:   7    -0.132598760521E+04    0.11929E-03   -0.14502E-03  2232   0.574E-02    0.509E-02
DAV:   8    -0.132598761072E+04   -0.55083E-05   -0.18378E-04  2104   0.306E-02    0.373E-02
DAV:   9    -0.132598761837E+04   -0.76555E-05   -0.62027E-05  1600   0.164E-02
   58 T=  1316. E= -.13312527E+04 F= -.13259876E+04 E0= -.13259876E+04  EK= 0.31459E+02 SP= -.37E+02 SK= 0.58E-01
       N       E                     dE             d eps       ncg     rms          rms(c)
DAV:   1    -0.132628592706E+04   -0.29832E+00   -0.68627E-01  2336   0.971E+00    0.690E-01
DAV:   2    -0.132642573817E+04   -0.13981E+00   -0.14680E+00  2336   0.271E+00    0.463E-01
DAV:   3    -0.132643015872E+04   -0.44205E-02   -0.64323E-02  2472   0.438E-01    0.380E-01
DAV:   4    -0.132642884116E+04    0.13176E-02   -0.11676E-02  2544   0.209E-01    0.242E-01
DAV:   5    -0.132642878384E+04    0.57326E-04   -0.65828E-03  2464   0.133E-01    0.164E-01
DAV:   6    -0.132642861172E+04    0.17212E-03   -0.85985E-04  2456   0.774E-02    0.123E-01
DAV:   7    -0.132642850178E+04    0.10994E-03   -0.10772E-03  2128   0.516E-02    0.469E-02
DAV:   8    -0.132642850956E+04   -0.77817E-05   -0.17489E-04  2016   0.296E-02    0.342E-02
DAV:   9    -0.132642851629E+04   -0.67316E-05   -0.54459E-05  1504   0.172E-02
   59 T=  1324. E= -.13312475E+04 F= -.13264285E+04 E0= -.13264285E+04  EK= 0.31667E+02 SP= -.37E+02 SK= 0.27E-01
       N       E                     dE             d eps       ncg     rms          rms(c)
DAV:   1    -0.132655987996E+04   -0.13137E+00   -0.74287E-01  2296   0.992E+00    0.678E-01
DAV:   2    -0.132670748462E+04   -0.14760E+00   -0.15348E+00  2328   0.287E+00    0.445E-01
DAV:   3    -0.132671235624E+04   -0.48716E-02   -0.69469E-02  2472   0.456E-01    0.361E-01
DAV:   4    -0.132671128747E+04    0.10688E-02   -0.11365E-02  2592   0.208E-01    0.231E-01
DAV:   5    -0.132671110998E+04    0.17749E-03   -0.51495E-03  2480   0.123E-01    0.148E-01
DAV:   6    -0.132671102368E+04    0.86302E-04   -0.70337E-04  2480   0.697E-02    0.111E-01
DAV:   7    -0.132671092669E+04    0.96986E-04   -0.68429E-04  2096   0.438E-02    0.452E-02
DAV:   8    -0.132671093145E+04   -0.47543E-05   -0.15204E-04  2000   0.272E-02    0.314E-02
DAV:   9    -0.132671093689E+04   -0.54483E-05   -0.38970E-05  1296   0.162E-02
   60 T=  1330. E= -.13312415E+04 F= -.13267109E+04 E0= -.13267109E+04  EK= 0.31805E+02 SP= -.36E+02 SK= 0.82E-02
       N       E                     dE             d eps       ncg     rms          rms(c)
DAV:   1    -0.132671012441E+04    0.80703E-03   -0.79607E-01  2280   0.101E+01    0.683E-01
DAV:   2    -0.132686310939E+04   -0.15298E+00   -0.15879E+00  2336   0.299E+00    0.424E-01
DAV:   3    -0.132686868277E+04   -0.55734E-02   -0.75171E-02  2536   0.462E-01    0.348E-01
DAV:   4    -0.132686777396E+04    0.90881E-03   -0.10914E-02  2600   0.212E-01    0.222E-01
DAV:   5    -0.132686757420E+04    0.19976E-03   -0.41831E-03  2424   0.112E-01    0.135E-01
DAV:   6    -0.132686750503E+04    0.69170E-04   -0.68497E-04  2512   0.651E-02    0.100E-01
DAV:   7    -0.132686743089E+04    0.74139E-04   -0.46467E-04  2168   0.375E-02    0.430E-02
DAV:   8    -0.132686743100E+04   -0.10515E-06   -0.12568E-04  1912   0.243E-02    0.294E-02
DAV:   9    -0.132686743428E+04   -0.32758E-05   -0.18380E-05  1024   0.143E-02
   61 T=  1334. E= -.13312372E+04 F= -.13268674E+04 E0= -.13268674E+04  EK= 0.31901E+02 SP= -.36E+02 SK= 0.36E-03
       N       E                     dE             d eps       ncg     rms          rms(c)
DAV:   1    -0.132678701015E+04    0.80421E-01   -0.81555E-01  2328   0.102E+01    0.685E-01
DAV:   2    -0.132693928437E+04   -0.15227E+00   -0.15803E+00  2336   0.296E+00    0.403E-01
DAV:   3    -0.132694450776E+04   -0.52234E-02   -0.72290E-02  2464   0.460E-01    0.336E-01
DAV:   4    -0.132694380137E+04    0.70639E-03   -0.10232E-02  2592   0.200E-01    0.219E-01
DAV:   5    -0.132694348045E+04    0.32093E-03   -0.36361E-03  2464   0.108E-01    0.123E-01
DAV:   6    -0.132694343994E+04    0.40505E-04   -0.73777E-04  2544   0.636E-02    0.883E-02
DAV:   7    -0.132694337466E+04    0.65281E-04   -0.31673E-04  2264   0.341E-02    0.399E-02
DAV:   8    -0.132694337208E+04    0.25778E-05   -0.11871E-04  2048   0.230E-02    0.240E-02
DAV:   9    -0.132694337313E+04   -0.10497E-05   -0.13202E-05   992   0.137E-02
   62 T=  1338. E= -.13312392E+04 F= -.13269434E+04 E0= -.13269434E+04  EK= 0.31994E+02 SP= -.36E+02 SK= 0.26E-02
       N       E                     dE             d eps       ncg     rms          rms(c)
DAV:   1    -0.132683075515E+04    0.11262E+00   -0.86626E-01  2296   0.102E+01    0.692E-01
DAV:   2    -0.132698328892E+04   -0.15253E+00   -0.15866E+00  2336   0.295E+00    0.403E-01
DAV:   3    -0.132698836048E+04   -0.50716E-02   -0.71609E-02  2504   0.465E-01    0.347E-01
DAV:   4    -0.132698760260E+04    0.75787E-03   -0.97183E-03  2592   0.203E-01    0.227E-01
DAV:   5    -0.132698721565E+04    0.38696E-03   -0.35651E-03  2424   0.104E-01    0.123E-01
DAV:   6    -0.132698717807E+04    0.37574E-04   -0.85410E-04  2472   0.656E-02    0.859E-02
DAV:   7    -0.132698712226E+04    0.55815E-04   -0.25128E-04  2224   0.320E-02    0.410E-02
DAV:   8    -0.132698711526E+04    0.69954E-05   -0.12366E-04  2040   0.223E-02    0.233E-02
DAV:   9    -0.132698711671E+04   -0.14474E-05   -0.11153E-05  1008   0.131E-02
   63 T=  1344. E= -.13312361E+04 F= -.13269871E+04 E0= -.13269871E+04  EK= 0.32142E+02 SP= -.36E+02 SK= 0.14E-01
       N       E                     dE             d eps       ncg     rms          rms(c)
DAV:   1    -0.132687442177E+04    0.11269E+00   -0.85516E-01  2304   0.101E+01    0.714E-01
DAV:   2    -0.132702623831E+04   -0.15182E+00   -0.15880E+00  2336   0.290E+00    0.453E-01
DAV:   3    -0.132703067894E+04   -0.44406E-02   -0.69052E-02  2440   0.467E-01    0.383E-01
DAV:   4    -0.132702949345E+04    0.11855E-02   -0.12403E-02  2544   0.212E-01    0.241E-01
DAV:   5    -0.132702925965E+04    0.23381E-03   -0.55995E-03  2464   0.128E-01    0.145E-01
DAV:   6    -0.132702918437E+04    0.75279E-04   -0.76030E-04  2496   0.722E-02    0.104E-01
DAV:   7    -0.132702909548E+04    0.88890E-04   -0.58914E-04  2128   0.418E-02    0.423E-02
DAV:   8    -0.132702909979E+04   -0.43108E-05   -0.15878E-04  1984   0.263E-02    0.295E-02
DAV:   9    -0.132702910221E+04   -0.24218E-05   -0.29821E-05  1216   0.162E-02
   64 T=  1353. E= -.13312355E+04 F= -.13270291E+04 E0= -.13270291E+04  EK= 0.32366E+02 SP= -.37E+02 SK= 0.33E-01
       N       E                     dE             d eps       ncg     rms          rms(c)
DAV:   1    -0.132694536287E+04    0.83737E-01   -0.92444E-01  2256   0.997E+00    0.754E-01
DAV:   2    -0.132710014295E+04   -0.15478E+00   -0.16247E+00  2328   0.290E+00    0.509E-01
DAV:   3    -0.132710478385E+04   -0.46409E-02   -0.71717E-02  2448   0.475E-01    0.417E-01
DAV:   4    -0.132710315141E+04    0.16324E-02   -0.16598E-02  2512   0.240E-01    0.260E-01
DAV:   5    -0.132710343265E+04   -0.28124E-03   -0.78388E-03  2472   0.146E-01    0.201E-01
DAV:   6    -0.132710304690E+04    0.38575E-03   -0.12236E-03  2456   0.898E-02    0.129E-01
DAV:   7    -0.132710297133E+04    0.75572E-04   -0.17106E-03  2248   0.628E-02    0.504E-02
DAV:   8    -0.132710297563E+04   -0.43038E-05   -0.18058E-04  2200   0.341E-02    0.333E-02
DAV:   9    -0.132710298671E+04   -0.11076E-04   -0.92051E-05  1696   0.185E-02    0.250E-02
DAV:  10    -0.132710297945E+04    0.72545E-05   -0.83877E-06   968   0.137E-02
   65 T=  1367. E= -.13312344E+04 F= -.13271030E+04 E0= -.13271030E+04  EK= 0.32698E+02 SP= -.37E+02 SK= 0.59E-01
       N       E                     dE             d eps       ncg     rms          rms(c)
DAV:   1    -0.132711796597E+04   -0.14979E-01   -0.10032E+00  2232   0.100E+01    0.764E-01
DAV:   2    -0.132727641380E+04   -0.15845E+00   -0.16560E+00  2320   0.288E+00    0.528E-01
DAV:   3    -0.132728072309E+04   -0.43093E-02   -0.73157E-02  2496   0.485E-01    0.450E-01
DAV:   4    -0.132727869299E+04    0.20301E-02   -0.17528E-02  2512   0.251E-01    0.274E-01
DAV:   5    -0.132727897444E+04   -0.28146E-03   -0.97650E-03  2480   0.158E-01    0.211E-01
DAV:   6    -0.132727855901E+04    0.41543E-03   -0.15069E-03  2448   0.985E-02    0.140E-01
DAV:   7    -0.132727844728E+04    0.11172E-03   -0.19378E-03  2376   0.662E-02    0.550E-02
DAV:   8    -0.132727845496E+04   -0.76778E-05   -0.19610E-04  2184   0.335E-02    0.379E-02
DAV:   9    -0.132727846610E+04   -0.11133E-04   -0.69454E-05  1608   0.173E-02    0.276E-02
DAV:  10    -0.132727845775E+04    0.83412E-05   -0.75674E-06   968   0.132E-02
   66 T=  1388. E= -.13312344E+04 F= -.13272785E+04 E0= -.13272785E+04  EK= 0.33203E+02 SP= -.37E+02 SK= 0.86E-01
       N       E                     dE             d eps       ncg     rms          rms(c)
DAV:   1    -0.132741479028E+04   -0.13632E+00   -0.10007E+00  2232   0.999E+00    0.763E-01
DAV:   2    -0.132757455543E+04   -0.15977E+00   -0.16715E+00  2312   0.293E+00    0.470E-01
DAV:   3    -0.132757916379E+04   -0.46084E-02   -0.69847E-02  2488   0.477E-01    0.405E-01
DAV:   4    -0.132757768611E+04    0.14777E-02   -0.13516E-02  2528   0.227E-01    0.248E-01
DAV:   5    -0.132757765969E+04    0.26428E-04   -0.69694E-03  2488   0.137E-01    0.163E-01
DAV:   6    -0.132757750967E+04    0.15002E-03   -0.83386E-04  2480   0.795E-02    0.117E-01
DAV:   7    -0.132757740369E+04    0.10598E-03   -0.11508E-03  2144   0.538E-02    0.425E-02
DAV:   8    -0.132757741218E+04   -0.84880E-05   -0.19935E-04  2040   0.318E-02    0.317E-02
DAV:   9    -0.132757741843E+04   -0.62535E-05   -0.68768E-05  1568   0.185E-02
   67 T=  1418. E= -.13312293E+04 F= -.13275774E+04 E0= -.13275774E+04  EK= 0.33899E+02 SP= -.38E+02 SK= 0.11E+00
       N       E                     dE             d eps       ncg     rms          rms(c)
DAV:   1    -0.132779582732E+04   -0.21842E+00   -0.10178E+00  2368   0.997E+00    0.746E-01
DAV:   2    -0.132795282274E+04   -0.15700E+00   -0.16453E+00  2312   0.284E+00    0.416E-01
DAV:   3    -0.132795788334E+04   -0.50606E-02   -0.70914E-02  2520   0.478E-01    0.381E-01
DAV:   4    -0.132795682367E+04    0.10597E-02   -0.98404E-03  2600   0.206E-01    0.254E-01
DAV:   5    -0.132795633023E+04    0.49343E-03   -0.50775E-03  2376   0.117E-01    0.131E-01
DAV:   6    -0.132795633645E+04   -0.62159E-05   -0.99327E-04  2424   0.719E-02    0.102E-01
DAV:   7    -0.132795626712E+04    0.69328E-04   -0.31820E-04  2200   0.350E-02    0.501E-02
DAV:   8    -0.132795625909E+04    0.80308E-05   -0.21675E-04  2128   0.264E-02    0.280E-02
DAV:   9    -0.132795625936E+04   -0.27077E-06   -0.18027E-05  1024   0.170E-02
   68 T=  1452. E= -.13312348E+04 F= -.13279563E+04 E0= -.13279563E+04  EK= 0.34717E+02 SP= -.38E+02 SK= 0.13E+00
       N       E                     dE             d eps       ncg     rms          rms(c)
DAV:   1    -0.132812562791E+04   -0.16937E+00   -0.10667E+00  2448   0.100E+01    0.769E-01
DAV:   2    -0.132828655350E+04   -0.16093E+00   -0.16834E+00  2304   0.283E+00    0.456E-01
DAV:   3    -0.132829197641E+04   -0.54229E-02   -0.76304E-02  2464   0.501E-01    0.395E-01
DAV:   4    -0.132829073219E+04    0.12442E-02   -0.12779E-02  2576   0.237E-01    0.249E-01
DAV:   5    -0.132829052149E+04    0.21070E-03   -0.59172E-03  2456   0.129E-01    0.146E-01
DAV:   6    -0.132829047631E+04    0.45183E-04   -0.86090E-04  2472   0.749E-02    0.111E-01
DAV:   7    -0.132829038072E+04    0.95595E-04   -0.65672E-04  2176   0.453E-02    0.455E-02
DAV:   8    -0.132829038318E+04   -0.24628E-05   -0.22026E-04  2120   0.293E-02    0.315E-02
DAV:   9    -0.132829038472E+04   -0.15409E-05   -0.25536E-05  1048   0.179E-02
   69 T=  1485. E= -.13312448E+04 F= -.13282904E+04 E0= -.13282904E+04  EK= 0.35520E+02 SP= -.39E+02 SK= 0.14E+00
       N       E                     dE             d eps       ncg     rms          rms(c)
DAV:   1    -0.132829602743E+04   -0.56443E-02   -0.11191E+00  2352   0.102E+01    0.803E-01
DAV:   2    -0.132846764818E+04   -0.17162E+00   -0.17973E+00  2328   0.297E+00    0.518E-01
DAV:   3    -0.132847342647E+04   -0.57783E-02   -0.81743E-02  2536   0.497E-01    0.429E-01
DAV:   4    -0.132847173174E+04    0.16947E-02   -0.16102E-02  2536   0.255E-01    0.268E-01
DAV:   5    -0.132847192903E+04   -0.19729E-03   -0.78045E-03  2424   0.145E-01    0.192E-01
DAV:   6    -0.132847159023E+04    0.33880E-03   -0.11792E-03  2488   0.916E-02    0.131E-01
[...]
DAV:   7    -0.133279531168E+04    0.13736E-03   -0.15003E-03  2368   0.606E-02    0.518E-02
DAV:   8    -0.133279531474E+04   -0.30598E-05   -0.21959E-04  2144   0.325E-02    0.333E-02
DAV:   9    -0.133279532029E+04   -0.55474E-05   -0.25998E-05  1104   0.162E-02
 2993 T=  1436. E= -.13326753E+04 F= -.13327953E+04 E0= -.13327953E+04  EK= 0.34328E+02 SP= -.35E+02 SK= 0.32E+00
       N       E                     dE             d eps       ncg     rms          rms(c)
DAV:   1    -0.133279937607E+04   -0.40613E-02   -0.12110E+00  2336   0.102E+01    0.817E-01
DAV:   2    -0.133296950926E+04   -0.17013E+00   -0.17944E+00  2320   0.284E+00    0.528E-01
DAV:   3    -0.133297383051E+04   -0.43212E-02   -0.75292E-02  2520   0.501E-01    0.457E-01
DAV:   4    -0.133297179039E+04    0.20401E-02   -0.14051E-02  2504   0.236E-01    0.281E-01
DAV:   5    -0.133297143900E+04    0.35139E-03   -0.74758E-03  2432   0.143E-01    0.162E-01
DAV:   6    -0.133297138075E+04    0.58250E-04   -0.12251E-03  2472   0.865E-02    0.122E-01
DAV:   7    -0.133297127516E+04    0.10559E-03   -0.62068E-04  2400   0.432E-02    0.602E-02
DAV:   8    -0.133297126200E+04    0.13161E-04   -0.21734E-04  2224   0.287E-02    0.360E-02
DAV:   9    -0.133297126509E+04   -0.30946E-05   -0.19132E-05  1040   0.146E-02
 2994 T=  1473. E= -.13326904E+04 F= -.13329713E+04 E0= -.13329713E+04  EK= 0.35232E+02 SP= -.35E+02 SK= 0.33E+00
       N       E                     dE             d eps       ncg     rms          rms(c)
DAV:   1    -0.133251538528E+04    0.45588E+00   -0.13073E+00  2256   0.102E+01    0.819E-01
DAV:   2    -0.133269007756E+04   -0.17469E+00   -0.18349E+00  2312   0.288E+00    0.585E-01
DAV:   3    -0.133269462563E+04   -0.45481E-02   -0.77570E-02  2552   0.509E-01    0.480E-01
DAV:   4    -0.133269232156E+04    0.23041E-02   -0.19411E-02  2504   0.266E-01    0.282E-01
DAV:   5    -0.133269246825E+04   -0.14669E-03   -0.79602E-03  2480   0.153E-01    0.203E-01
DAV:   6    -0.133269219099E+04    0.27726E-03   -0.10803E-03  2504   0.861E-02    0.143E-01
DAV:   7    -0.133269203153E+04    0.15946E-03   -0.12315E-03  2272   0.559E-02    0.513E-02
DAV:   8    -0.133269204579E+04   -0.14263E-04   -0.22484E-04  2224   0.335E-02    0.380E-02
DAV:   9    -0.133269204553E+04    0.26883E-06   -0.16132E-05  1040   0.144E-02
 2995 T=  1494. E= -.13326855E+04 F= -.13326920E+04 E0= -.13326920E+04  EK= 0.35726E+02 SP= -.36E+02 SK= 0.34E+00
       N       E                     dE             d eps       ncg     rms          rms(c)
DAV:   1    -0.133186699007E+04    0.82506E+00   -0.14251E+00  2320   0.102E+01    0.891E-01
DAV:   2    -0.133204643301E+04   -0.17944E+00   -0.18776E+00  2312   0.294E+00    0.642E-01
DAV:   3    -0.133205146674E+04   -0.50337E-02   -0.81907E-02  2520   0.523E-01    0.501E-01
DAV:   4    -0.133204934562E+04    0.21211E-02   -0.28907E-02  2496   0.313E-01    0.308E-01
DAV:   5    -0.133205016811E+04   -0.82250E-03   -0.88247E-03  2464   0.168E-01    0.271E-01
DAV:   6    -0.133204928079E+04    0.88732E-03   -0.21929E-03  2480   0.107E-01    0.154E-01
DAV:   7    -0.133204914494E+04    0.13585E-03   -0.21225E-03  2360   0.724E-02    0.429E-02
DAV:   8    -0.133204916876E+04   -0.23817E-04   -0.19315E-04  2216   0.359E-02    0.336E-02
DAV:   9    -0.133204916897E+04   -0.21524E-06   -0.13052E-05  1024   0.132E-02
 2996 T=  1500. E= -.13326631E+04 F= -.13320492E+04 E0= -.13320492E+04  EK= 0.35879E+02 SP= -.37E+02 SK= 0.33E+00
       N       E                     dE             d eps       ncg     rms          rms(c)
DAV:   1    -0.133115236318E+04    0.89681E+00   -0.15390E+00  2264   0.993E+00    0.930E-01
DAV:   2    -0.133133118467E+04   -0.17882E+00   -0.18667E+00  2312   0.297E+00    0.620E-01
DAV:   3    -0.133133730266E+04   -0.61180E-02   -0.89138E-02  2544   0.546E-01    0.479E-01
DAV:   4    -0.133133579950E+04    0.15032E-02   -0.30765E-02  2480   0.327E-01    0.307E-01
DAV:   5    -0.133133674997E+04   -0.95048E-03   -0.83511E-03  2448   0.165E-01    0.278E-01
DAV:   6    -0.133133562148E+04    0.11285E-02   -0.32046E-03  2456   0.119E-01    0.133E-01
DAV:   7    -0.133133558535E+04    0.36122E-04   -0.20638E-03  2368   0.749E-02    0.371E-02
DAV:   8    -0.133133560076E+04   -0.15407E-04   -0.16665E-04  2176   0.341E-02    0.259E-02
DAV:   9    -0.133133560489E+04   -0.41262E-05   -0.18234E-05  1040   0.140E-02
 2997 T=  1504. E= -.13326431E+04 F= -.13313356E+04 E0= -.13313356E+04  EK= 0.35955E+02 SP= -.38E+02 SK= 0.33E+00
       N       E                     dE             d eps       ncg     rms          rms(c)
DAV:   1    -0.133067666057E+04    0.65894E+00   -0.14067E+00  2224   0.980E+00    0.827E-01
DAV:   2    -0.133084781863E+04   -0.17116E+00   -0.17801E+00  2328   0.292E+00    0.495E-01
DAV:   3    -0.133085392331E+04   -0.61047E-02   -0.83230E-02  2520   0.514E-01    0.408E-01
DAV:   4    -0.133085261477E+04    0.13085E-02   -0.18389E-02  2504   0.261E-01    0.243E-01
DAV:   5    -0.133085303427E+04   -0.41950E-03   -0.67574E-03  2464   0.142E-01    0.195E-01
DAV:   6    -0.133085259470E+04    0.43958E-03   -0.13324E-03  2488   0.898E-02    0.114E-01
DAV:   7    -0.133085254683E+04    0.47862E-04   -0.17150E-03  2352   0.633E-02    0.387E-02
DAV:   8    -0.133085255168E+04   -0.48442E-05   -0.21455E-04  2144   0.358E-02    0.228E-02
DAV:   9    -0.133085256058E+04   -0.88966E-05   -0.56916E-05  1528   0.172E-02
 2998 T=  1516. E= -.13326304E+04 F= -.13308526E+04 E0= -.13308526E+04  EK= 0.36249E+02 SP= -.38E+02 SK= 0.32E+00
       N       E                     dE             d eps       ncg     rms          rms(c)
DAV:   1    -0.133058669452E+04    0.26586E+00   -0.11921E+00  2232   0.972E+00    0.752E-01
DAV:   2    -0.133075192805E+04   -0.16523E+00   -0.17095E+00  2328   0.292E+00    0.462E-01
DAV:   3    -0.133075738451E+04   -0.54565E-02   -0.76774E-02  2560   0.493E-01    0.389E-01
DAV:   4    -0.133075619143E+04    0.11931E-02   -0.14500E-02  2560   0.237E-01    0.229E-01
DAV:   5    -0.133075626878E+04   -0.77349E-04   -0.47826E-03  2472   0.119E-01    0.155E-01
DAV:   6    -0.133075611029E+04    0.15848E-03   -0.66724E-04  2432   0.687E-02    0.105E-01
DAV:   7    -0.133075604226E+04    0.68028E-04   -0.88387E-04  2144   0.475E-02    0.365E-02
DAV:   8    -0.133075605025E+04   -0.79828E-05   -0.17629E-04  2112   0.302E-02    0.271E-02
DAV:   9    -0.133075605665E+04   -0.63977E-05   -0.27760E-05  1144   0.159E-02
 2999 T=  1543. E= -.13326332E+04 F= -.13307561E+04 E0= -.13307561E+04  EK= 0.36909E+02 SP= -.39E+02 SK= 0.30E+00
       N       E                     dE             d eps       ncg     rms          rms(c)
DAV:   1    -0.133085210171E+04   -0.96051E-01   -0.11420E+00  2208   0.982E+00    0.835E-01
DAV:   2    -0.133101328754E+04   -0.16119E+00   -0.16778E+00  2328   0.287E+00    0.564E-01
DAV:   3    -0.133101855408E+04   -0.52665E-02   -0.74952E-02  2536   0.491E-01    0.426E-01
DAV:   4    -0.133101726927E+04    0.12848E-02   -0.22650E-02  2488   0.281E-01    0.294E-01
DAV:   5    -0.133101798377E+04   -0.71449E-03   -0.64319E-03  2440   0.141E-01    0.246E-01
DAV:   6    -0.133101716578E+04    0.81799E-03   -0.23229E-03  2440   0.104E-01    0.137E-01
DAV:   7    -0.133101715324E+04    0.12534E-04   -0.17794E-03  2304   0.671E-02    0.521E-02
DAV:   8    -0.133101716128E+04   -0.80346E-05   -0.17883E-04  2168   0.346E-02    0.331E-02
DAV:   9    -0.133101717219E+04   -0.10917E-04   -0.72155E-05  1632   0.164E-02    0.267E-02
DAV:  10    -0.133101716226E+04    0.99355E-05   -0.79582E-06   992   0.141E-02
 3000 T=  1585. E= -.13326461E+04 F= -.13310172E+04 E0= -.13310172E+04  EK= 0.37902E+02 SP= -.40E+02 SK= 0.27E+00
       N       E                     dE             d eps       ncg     rms          rms(c)
DAV:   1    -0.133132521214E+04   -0.30804E+00   -0.11933E+00  2192   0.100E+01    0.872E-01
DAV:   2    -0.133149761777E+04   -0.17241E+00   -0.17954E+00  2328   0.300E+00    0.651E-01
DAV:   3    -0.133150193908E+04   -0.43213E-02   -0.75703E-02  2536   0.509E-01    0.493E-01
DAV:   4    -0.133150000244E+04    0.19366E-02   -0.30464E-02  2456   0.314E-01    0.346E-01
DAV:   5    -0.133150112610E+04   -0.11237E-02   -0.87287E-03  2440   0.163E-01    0.306E-01
DAV:   6    -0.133149982368E+04    0.13024E-02   -0.35537E-03  2448   0.124E-01    0.164E-01
DAV:   7    -0.133149980018E+04    0.23503E-04   -0.23446E-03  2240   0.779E-02    0.612E-02
DAV:   8    -0.133149981622E+04   -0.16040E-04   -0.21468E-04  2240   0.378E-02    0.381E-02
DAV:   9    -0.133149982753E+04   -0.11308E-04   -0.77813E-05  1632   0.174E-02    0.303E-02
DAV:  10    -0.133149981918E+04    0.83510E-05   -0.76287E-06   976   0.137E-02
 3001 T=  1634. E= -.13326680E+04 F= -.13314998E+04 E0= -.13314998E+04  EK= 0.39068E+02 SP= -.40E+02 SK= 0.22E+00
       N       E                     dE             d eps       ncg     rms          rms(c)
DAV:   1    -0.133178151221E+04   -0.28168E+00   -0.13239E+00  2192   0.104E+01    0.865E-01
DAV:   2    -0.133197010989E+04   -0.18860E+00   -0.19754E+00  2320   0.323E+00    0.596E-01
DAV:   3    -0.133197584087E+04   -0.57310E-02   -0.90560E-02  2544   0.570E-01    0.471E-01
DAV:   4    -0.133197387236E+04    0.19685E-02   -0.23884E-02  2520   0.301E-01    0.290E-01
DAV:   5    -0.133197445841E+04   -0.58605E-03   -0.75846E-03  2488   0.149E-01    0.238E-01
DAV:   6    -0.133197383235E+04    0.62606E-03   -0.15764E-03  2480   0.982E-02    0.141E-01
DAV:   7    -0.133197377338E+04    0.58966E-04   -0.18492E-03  2280   0.667E-02    0.447E-02
DAV:   8    -0.133197378828E+04   -0.14900E-04   -0.20093E-04  2208   0.365E-02    0.317E-02
DAV:   9    -0.133197380066E+04   -0.12381E-04   -0.59013E-05  1528   0.165E-02    0.280E-02
DAV:  10    -0.133197378791E+04    0.12755E-04   -0.90069E-06   992   0.151E-02    0.208E-02
DAV:  11    -0.133197378812E+04   -0.21662E-06   -0.11902E-04  1632   0.185E-02    0.923E-03
DAV:  12    -0.133197378864E+04   -0.51447E-06   -0.79035E-06   960   0.107E-02
 3002 T=  1680. E= -.13326795E+04 F= -.13319738E+04 E0= -.13319738E+04  EK= 0.40165E+02 SP= -.41E+02 SK= 0.15E+00
       N       E                     dE             d eps       ncg     rms          rms(c)
DAV:   1    -0.133202212276E+04   -0.48335E-01   -0.14381E+00  2176   0.108E+01    0.834E-01
DAV:   2    -0.133222694071E+04   -0.20482E+00   -0.21359E+00  2328   0.348E+00    0.538E-01
DAV:   3    -0.133223296782E+04   -0.60271E-02   -0.93275E-02  2552   0.560E-01    0.444E-01
DAV:   4    -0.133223133864E+04    0.16292E-02   -0.16027E-02  2560   0.258E-01    0.273E-01
DAV:   5    -0.133223113978E+04    0.19886E-03   -0.56254E-03  2448   0.128E-01    0.167E-01
DAV:   6    -0.133223103189E+04    0.10789E-03   -0.82977E-04  2536   0.761E-02    0.109E-01
DAV:   7    -0.133223096865E+04    0.63239E-04   -0.60845E-04  2280   0.419E-02    0.390E-02
DAV:   8    -0.133223097130E+04   -0.26527E-05   -0.16007E-04  2024   0.269E-02    0.305E-02
DAV:   9    -0.133223097610E+04   -0.47939E-05   -0.15206E-05   992   0.143E-02
 3003 T=  1712. E= -.13326866E+04 F= -.13322310E+04 E0= -.13322310E+04  EK= 0.40939E+02 SP= -.41E+02 SK= 0.90E-01
       N       E                     dE             d eps       ncg     rms          rms(c)
DAV:   1    -0.133192000045E+04    0.31097E+00   -0.14027E+00  2208   0.110E+01    0.886E-01
DAV:   2    -0.133212591631E+04   -0.20592E+00   -0.21799E+00  2304   0.350E+00    0.538E-01
DAV:   3    -0.133213221697E+04   -0.63007E-02   -0.98796E-02  2496   0.598E-01    0.476E-01
DAV:   4    -0.133213024538E+04    0.19716E-02   -0.16141E-02  2600   0.266E-01    0.302E-01
DAV:   5    -0.133212972444E+04    0.52094E-03   -0.89247E-03  2432   0.156E-01    0.164E-01
DAV:   6    -0.133212971514E+04    0.93043E-05   -0.14427E-03  2432   0.939E-02    0.129E-01
DAV:   7    -0.133212960135E+04    0.11379E-03   -0.65751E-04  2312   0.459E-02    0.611E-02
DAV:   8    -0.133212959247E+04    0.88761E-05   -0.30741E-04  2256   0.317E-02    0.381E-02
DAV:   9    -0.133212959717E+04   -0.46966E-05   -0.41184E-05  1296   0.201E-02
 3004 T=  1724. E= -.13326895E+04 F= -.13321296E+04 E0= -.13321296E+04  EK= 0.41215E+02 SP= -.42E+02 SK= 0.39E-01
       N       E                     dE             d eps       ncg     rms          rms(c)
DAV:   1    -0.133149514680E+04    0.63445E+00   -0.13809E+00  2280   0.111E+01    0.879E-01
DAV:   2    -0.133169743388E+04   -0.20229E+00   -0.21292E+00  2320   0.335E+00    0.569E-01
DAV:   3    -0.133170341927E+04   -0.59854E-02   -0.94038E-02  2496   0.564E-01    0.487E-01
DAV:   4    -0.133170111449E+04    0.23048E-02   -0.18387E-02  2544   0.271E-01    0.305E-01
DAV:   5    -0.133170115947E+04   -0.44981E-04   -0.11131E-02  2440   0.170E-01    0.208E-01
DAV:   6    -0.133170086939E+04    0.29008E-03   -0.15223E-03  2456   0.104E-01    0.153E-01
DAV:   7    -0.133170072971E+04    0.13968E-03   -0.19805E-03  2232   0.690E-02    0.590E-02
DAV:   8    -0.133170073643E+04   -0.67259E-05   -0.27413E-04  2264   0.375E-02    0.446E-02
DAV:   9    -0.133170074974E+04   -0.13306E-04   -0.12117E-04  1720   0.218E-02    0.291E-02
DAV:  10    -0.133170074185E+04    0.78879E-05   -0.10801E-05   992   0.153E-02
 3005 T=  1716. E= -.13326736E+04 F= -.13317007E+04 E0= -.13317007E+04  EK= 0.41025E+02 SP= -.42E+02 SK= 0.88E-02
       N       E                     dE             d eps       ncg     rms          rms(c)
DAV:   1    -0.133096811828E+04    0.73263E+00   -0.14005E+00  2256   0.113E+01    0.857E-01
DAV:   2    -0.133117433392E+04   -0.20622E+00   -0.21479E+00  2304   0.337E+00    0.592E-01
DAV:   3    -0.133117988352E+04   -0.55496E-02   -0.93959E-02  2504   0.559E-01    0.503E-01
DAV:   4    -0.133117743000E+04    0.24535E-02   -0.20858E-02  2504   0.276E-01    0.310E-01
DAV:   5    -0.133117769469E+04   -0.26469E-03   -0.11732E-02  2456   0.174E-01    0.226E-01
DAV:   6    -0.133117728773E+04    0.40696E-03   -0.16123E-03  2400   0.107E-01    0.158E-01
DAV:   7    -0.133117716741E+04    0.12032E-03   -0.24413E-03  2288   0.749E-02    0.630E-02
DAV:   8    -0.133117717093E+04   -0.35160E-05   -0.30331E-04  2272   0.401E-02    0.456E-02
DAV:   9    -0.133117718687E+04   -0.15947E-04   -0.11580E-04  1824   0.206E-02    0.326E-02
DAV:  10    -0.133117717375E+04    0.13121E-04   -0.84127E-06   984   0.145E-02    0.253E-02
DAV:  11    -0.133117717277E+04    0.98304E-06   -0.14614E-04  1616   0.205E-02    0.108E-02
DAV:  12    -0.133117717254E+04    0.22844E-06   -0.10417E-05   944   0.129E-02
 3006 T=  1697. E= -.13326574E+04 F= -.13311772E+04 E0= -.13311772E+04  EK= 0.40587E+02 SP= -.42E+02 SK= 0.56E-05
       N       E                     dE             d eps       ncg     rms          rms(c)
DAV:   1    -0.133057436443E+04    0.60281E+00   -0.14885E+00  2200   0.117E+01    0.838E-01
DAV:   2    -0.133078669692E+04   -0.21233E+00   -0.21936E+00  2328   0.354E+00    0.538E-01
DAV:   3    -0.133079330175E+04   -0.66048E-02   -0.91149E-02  2456   0.542E-01    0.423E-01
DAV:   4    -0.133079200484E+04    0.12969E-02   -0.18883E-02  2528   0.258E-01    0.269E-01
DAV:   5    -0.133079225237E+04   -0.24753E-03   -0.58483E-03  2496   0.136E-01    0.193E-01
DAV:   6    -0.133079198504E+04    0.26733E-03   -0.85400E-04  2504   0.761E-02    0.129E-01
DAV:   7    -0.133079192558E+04    0.59461E-04   -0.13301E-03  2208   0.571E-02    0.497E-02
DAV:   8    -0.133079192544E+04    0.14434E-06   -0.21744E-04  2144   0.355E-02    0.335E-02
DAV:   9    -0.133079193539E+04   -0.99488E-05   -0.78389E-05  1688   0.187E-02
 3007 T=  1679. E= -.13326437E+04 F= -.13307919E+04 E0= -.13307919E+04  EK= 0.40147E+02 SP= -.42E+02 SK= 0.80E-02
       N       E                     dE             d eps       ncg     rms          rms(c)
DAV:   1    -0.133044666431E+04    0.34526E+00   -0.13972E+00  2184   0.115E+01    0.831E-01
DAV:   2    -0.133065081149E+04   -0.20415E+00   -0.21250E+00  2312   0.342E+00    0.509E-01
DAV:   3    -0.133065686014E+04   -0.60487E-02   -0.86256E-02  2472   0.538E-01    0.428E-01
DAV:   4    -0.133065536375E+04    0.14964E-02   -0.15948E-02  2544   0.244E-01    0.266E-01
DAV:   5    -0.133065535994E+04    0.38173E-05   -0.67294E-03  2488   0.138E-01    0.172E-01
DAV:   6    -0.133065523369E+04    0.12625E-03   -0.78846E-04  2416   0.751E-02    0.126E-01
DAV:   7    -0.133065512301E+04    0.11068E-03   -0.11471E-03  2144   0.550E-02    0.469E-02
DAV:   8    -0.133065512727E+04   -0.42599E-05   -0.21867E-04  2144   0.331E-02    0.351E-02
DAV:   9    -0.133065513235E+04   -0.50755E-05   -0.76024E-05  1520   0.189E-02
 3008 T=  1665. E= -.13326445E+04 F= -.13306551E+04 E0= -.13306551E+04  EK= 0.39816E+02 SP= -.42E+02 SK= 0.29E-01
       N       E                     dE             d eps       ncg     rms          rms(c)
DAV:   1    -0.133050675799E+04    0.14837E+00   -0.12639E+00  2216   0.112E+01    0.807E-01
DAV:   2    -0.133070117791E+04   -0.19442E+00   -0.20201E+00  2312   0.325E+00    0.487E-01
DAV:   3    -0.133070633115E+04   -0.51532E-02   -0.76907E-02  2448   0.508E-01    0.406E-01
DAV:   4    -0.133070503540E+04    0.12957E-02   -0.13656E-02  2544   0.228E-01    0.257E-01
DAV:   5    -0.133070480624E+04    0.22916E-03   -0.50649E-03  2488   0.123E-01    0.153E-01
DAV:   6    -0.133070474152E+04    0.64722E-04   -0.73830E-04  2488   0.673E-02    0.114E-01
DAV:   7    -0.133070465446E+04    0.87053E-04   -0.58737E-04  2096   0.434E-02    0.447E-02
DAV:   8    -0.133070465696E+04   -0.24933E-05   -0.22694E-04  2192   0.289E-02    0.329E-02
DAV:   9    -0.133070465785E+04   -0.89189E-06   -0.40295E-05  1288   0.181E-02
 3009 T=  1654. E= -.13326448E+04 F= -.13307047E+04 E0= -.13307047E+04  EK= 0.39559E+02 SP= -.42E+02 SK= 0.60E-01
       N       E                     dE             d eps       ncg     rms          rms(c)
DAV:   1    -0.133065191455E+04    0.52742E-01   -0.12958E+00  2232   0.110E+01    0.829E-01
DAV:   2    -0.133085219543E+04   -0.20028E+00   -0.20851E+00  2328   0.330E+00    0.528E-01
DAV:   3    -0.133085770799E+04   -0.55126E-02   -0.83041E-02  2560   0.524E-01    0.436E-01
DAV:   4    -0.133085597457E+04    0.17334E-02   -0.15947E-02  2536   0.252E-01    0.270E-01
DAV:   5    -0.133085594147E+04    0.33094E-04   -0.60742E-03  2448   0.132E-01    0.185E-01
DAV:   6    -0.133085574808E+04    0.19340E-03   -0.81346E-04  2488   0.766E-02    0.130E-01
DAV:   7    -0.133085564915E+04    0.98927E-04   -0.10700E-03  2112   0.529E-02    0.463E-02
DAV:   8    -0.133085565709E+04   -0.79422E-05   -0.22442E-04  2160   0.332E-02    0.361E-02
DAV:   9    -0.133085566836E+04   -0.11271E-04   -0.63872E-05  1504   0.182E-02    0.258E-02
DAV:  10    -0.133085566101E+04    0.73526E-05   -0.80659E-06   944   0.139E-02
 3010 T=  1643. E= -.13326487E+04 F= -.13308557E+04 E0= -.13308557E+04  EK= 0.39295E+02 SP= -.41E+02 SK= 0.99E-01
       N       E                     dE             d eps       ncg     rms          rms(c)
DAV:   1    -0.133077934142E+04    0.76327E-01   -0.13536E+00  2240   0.110E+01    0.859E-01
DAV:   2    -0.133099185904E+04   -0.21252E+00   -0.22084E+00  2336   0.340E+00    0.581E-01
DAV:   3    -0.133099749510E+04   -0.56361E-02   -0.92258E-02  2528   0.552E-01    0.475E-01
DAV:   4    -0.133099539905E+04    0.20961E-02   -0.20708E-02  2512   0.280E-01    0.290E-01
DAV:   5    -0.133099556636E+04   -0.16731E-03   -0.78309E-03  2496   0.150E-01    0.212E-01
DAV:   6    -0.133099523480E+04    0.33156E-03   -0.10404E-03  2520   0.893E-02    0.142E-01
DAV:   7    -0.133099514312E+04    0.91677E-04   -0.15461E-03  2248   0.606E-02    0.476E-02
DAV:   8    -0.133099515766E+04   -0.14535E-04   -0.21921E-04  2232   0.353E-02    0.385E-02
DAV:   9    -0.133099517364E+04   -0.15985E-04   -0.79060E-05  1640   0.175E-02    0.326E-02
DAV:  10    -0.133099515592E+04    0.17724E-04   -0.11358E-05   984   0.160E-02    0.245E-02
DAV:  11    -0.133099515910E+04   -0.31823E-05   -0.18450E-04  1696   0.219E-02    0.131E-02
