 188 188   0   0
  0.1159222E+02  0.1296520E-08  0.1296500E-08  0.1296500E-08  0.2000000E-14
   1500.00000000000     
  CAR 
 unknown system                          
     12.80178135    -45.75301351  301      6.36685337      1.00000000
    -45.753  0.0000E+00  0.0000E+00
    -45.558  0.0000E+00  0.0000E+00
    -45.363  0.0000E+00  0.0000E+00
    -45.167  0.0000E+00  0.0000E+00
    -44.972  0.0000E+00  0.0000E+00
    -44.777  0.0000E+00  0.0000E+00
    -44.582  0.0000E+00  0.0000E+00
    -44.387  0.0000E+00  0.0000E+00
    -44.192  0.4576E-13  0.8909E-14
    -43.996  0.9527E-09  0.1855E-09
    -43.801  0.3138E-05  0.6114E-06
    -43.606  0.1675E-02  0.3269E-03
    -43.411  0.1520E+00  0.2994E-01
    -43.216  0.2580E+01  0.5324E+00
    -43.020  0.1005E+02  0.2488E+01
    -42.825  0.1486E+02  0.5379E+01
    -42.630  0.1831E+02  0.8943E+01
    -42.435  0.2244E+02  0.1331E+02
    -42.240  0.2441E+02  0.1807E+02
    -42.045  0.2305E+02  0.2256E+02
    -41.849  0.1872E+02  0.2622E+02
    -41.654  0.1333E+02  0.2882E+02
    -41.459  0.8315E+01  0.3045E+02
    -41.264  0.4455E+01  0.3132E+02
    -41.069  0.2102E+01  0.3173E+02
    -40.873  0.8973E+00  0.3191E+02
    -40.678  0.3402E+00  0.3197E+02
    -40.483  0.1049E+00  0.3199E+02
    -40.288  0.2354E-01  0.3200E+02
    -40.093  0.3418E-02  0.3200E+02
    -39.898  0.1931E-03  0.3200E+02
    -39.702  0.2435E-05  0.3200E+02
    -39.507  0.5420E-08  0.3200E+02
    -39.312  0.1942E-11  0.3200E+02
    -39.117  0.1067E-15  0.3200E+02
    -38.922  0.0000E+00  0.3200E+02
    -38.726  0.0000E+00  0.3200E+02
    -38.531  0.0000E+00  0.3200E+02
    -38.336  0.0000E+00  0.3200E+02
    -38.141  0.0000E+00  0.3200E+02
    -37.946  0.0000E+00  0.3200E+02
    -37.751  0.0000E+00  0.3200E+02
    -37.555  0.0000E+00  0.3200E+02
    -37.360  0.0000E+00  0.3200E+02
    -37.165  0.0000E+00  0.3200E+02
    -36.970  0.0000E+00  0.3200E+02
    -36.775  0.0000E+00  0.3200E+02
    -36.579  0.0000E+00  0.3200E+02
    -36.384  0.0000E+00  0.3200E+02
    -36.189  0.0000E+00  0.3200E+02
    -35.994  0.0000E+00  0.3200E+02
    -35.799  0.0000E+00  0.3200E+02
    -35.604  0.0000E+00  0.3200E+02
    -35.408  0.0000E+00  0.3200E+02
    -35.213  0.0000E+00  0.3200E+02
    -35.018  0.0000E+00  0.3200E+02
    -34.823  0.0000E+00  0.3200E+02
    -34.628  0.0000E+00  0.3200E+02
    -34.432  0.0000E+00  0.3200E+02
    -34.237  0.0000E+00  0.3200E+02
    -34.042  0.0000E+00  0.3200E+02
    -33.847  0.0000E+00  0.3200E+02
    -33.652  0.0000E+00  0.3200E+02
    -33.457  0.0000E+00  0.3200E+02
    -33.261  0.0000E+00  0.3200E+02
    -33.066  0.0000E+00  0.3200E+02
    -32.871  0.0000E+00  0.3200E+02
    -32.676  0.0000E+00  0.3200E+02
    -32.481  0.0000E+00  0.3200E+02
    -32.285  0.0000E+00  0.3200E+02
    -32.090  0.0000E+00  0.3200E+02
    -31.895  0.0000E+00  0.3200E+02
    -31.700  0.0000E+00  0.3200E+02
    -31.505  0.0000E+00  0.3200E+02
    -31.309  0.0000E+00  0.3200E+02
    -31.114  0.0000E+00  0.3200E+02
    -30.919  0.0000E+00  0.3200E+02
    -30.724  0.0000E+00  0.3200E+02
    -30.529  0.0000E+00  0.3200E+02
    -30.334  0.0000E+00  0.3200E+02
    -30.138  0.0000E+00  0.3200E+02
    -29.943  0.0000E+00  0.3200E+02
    -29.748  0.0000E+00  0.3200E+02
    -29.553  0.0000E+00  0.3200E+02
    -29.358  0.0000E+00  0.3200E+02
    -29.162  0.0000E+00  0.3200E+02
    -28.967  0.0000E+00  0.3200E+02
    -28.772  0.0000E+00  0.3200E+02
    -28.577  0.0000E+00  0.3200E+02
    -28.382  0.0000E+00  0.3200E+02
    -28.187  0.0000E+00  0.3200E+02
    -27.991  0.0000E+00  0.3200E+02
    -27.796  0.1223E-15  0.3200E+02
    -27.601  0.1883E-11  0.3200E+02
    -27.406  0.4801E-08  0.3200E+02
    -27.211  0.2163E-05  0.3200E+02
    -27.015  0.1989E-03  0.3200E+02
    -26.820  0.4817E-02  0.3200E+02
    -26.625  0.4179E-01  0.3201E+02
    -26.430  0.1861E+00  0.3205E+02
    -26.235  0.6352E+00  0.3217E+02
    -26.040  0.1908E+01  0.3254E+02
    -25.844  0.4921E+01  0.3350E+02
    -25.649  0.1041E+02  0.3552E+02
    -25.454  0.1839E+02  0.3910E+02
    -25.259  0.2813E+02  0.4458E+02
    -25.064  0.3613E+02  0.5162E+02
    -24.868  0.3907E+02  0.5923E+02
    -24.673  0.3633E+02  0.6632E+02
    -24.478  0.2914E+02  0.7201E+02
    -24.283  0.2006E+02  0.7592E+02
    -24.088  0.1160E+02  0.7819E+02
    -23.893  0.5648E+01  0.7929E+02
    -23.697  0.2384E+01  0.7976E+02
    -23.502  0.8631E+00  0.7993E+02
    -23.307  0.2739E+00  0.7998E+02
    -23.112  0.8112E-01  0.8000E+02
    -22.917  0.1609E-01  0.8000E+02
    -22.721  0.1568E-02  0.8000E+02
    -22.526  0.5739E-04  0.8000E+02
    -22.331  0.7263E-04  0.8000E+02
    -22.136  0.2736E-02  0.8000E+02
    -21.941  0.4343E-01  0.8001E+02
    -21.746  0.4634E+00  0.8010E+02
    -21.550  0.3422E+01  0.8077E+02
    -21.355  0.1461E+02  0.8362E+02
    -21.160  0.3462E+02  0.9036E+02
    -20.965  0.5482E+02  0.1010E+03
    -20.770  0.7270E+02  0.1152E+03
    -20.574  0.8360E+02  0.1315E+03
    -20.379  0.8063E+02  0.1472E+03
    -20.184  0.6496E+02  0.1599E+03
    -19.989  0.4308E+02  0.1683E+03
    -19.794  0.2329E+02  0.1728E+03
    -19.599  0.1053E+02  0.1749E+03
    -19.403  0.4027E+01  0.1757E+03
    -19.208  0.1270E+01  0.1759E+03
    -19.013  0.3270E+00  0.1760E+03
    -18.818  0.6072E-01  0.1760E+03
    -18.623  0.7361E-02  0.1760E+03
    -18.427  0.4416E-03  0.1760E+03
    -18.232  0.7546E-05  0.1760E+03
    -18.037  0.2545E-07  0.1760E+03
    -17.842  0.1463E-10  0.1760E+03
    -17.647  0.1347E-14  0.1760E+03
    -17.452  0.0000E+00  0.1760E+03
    -17.256  0.0000E+00  0.1760E+03
    -17.061  0.0000E+00  0.1760E+03
    -16.866  0.0000E+00  0.1760E+03
    -16.671  0.0000E+00  0.1760E+03
    -16.476  0.0000E+00  0.1760E+03
    -16.280  0.0000E+00  0.1760E+03
    -16.085  0.0000E+00  0.1760E+03
    -15.890  0.0000E+00  0.1760E+03
    -15.695  0.5731E-18  0.1760E+03
    -15.500  0.2047E-13  0.1760E+03
    -15.305  0.1201E-09  0.1760E+03
    -15.109  0.1164E-06  0.1760E+03
    -14.914  0.1962E-04  0.1760E+03
    -14.719  0.6455E-03  0.1760E+03
    -14.524  0.5521E-02  0.1760E+03
    -14.329  0.2386E-01  0.1760E+03
    -14.133  0.9155E-01  0.1760E+03
    -13.938  0.2943E+00  0.1761E+03
    -13.743  0.7930E+00  0.1762E+03
    -13.548  0.1873E+01  0.1766E+03
    -13.353  0.4081E+01  0.1774E+03
    -13.158  0.8005E+01  0.1790E+03
    -12.962  0.1448E+02  0.1818E+03
    -12.767  0.2406E+02  0.1865E+03
    -12.572  0.3585E+02  0.1934E+03
    -12.377  0.4848E+02  0.2029E+03
    -12.182  0.6039E+02  0.2147E+03
    -11.986  0.7052E+02  0.2284E+03
    -11.791  0.7838E+02  0.2437E+03
    -11.596  0.8361E+02  0.2600E+03
    -11.401  0.8638E+02  0.2768E+03
    -11.206  0.8682E+02  0.2937E+03
    -11.011  0.8478E+02  0.3103E+03
    -10.815  0.7955E+02  0.3258E+03
    -10.620  0.7022E+02  0.3395E+03
    -10.425  0.5698E+02  0.3506E+03
    -10.230  0.4110E+02  0.3586E+03
    -10.035  0.2558E+02  0.3636E+03
     -9.839  0.1370E+02  0.3663E+03
     -9.644  0.7139E+01  0.3677E+03
     -9.449  0.6500E+01  0.3689E+03
     -9.254  0.1262E+02  0.3714E+03
     -9.059  0.2621E+02  0.3765E+03
     -8.863  0.4519E+02  0.3853E+03
     -8.668  0.6374E+02  0.3977E+03
     -8.473  0.7620E+02  0.4126E+03
     -8.278  0.8195E+02  0.4285E+03
     -8.083  0.8271E+02  0.4447E+03
     -7.888  0.7981E+02  0.4602E+03
     -7.692  0.7342E+02  0.4745E+03
     -7.497  0.6333E+02  0.4869E+03
     -7.302  0.5046E+02  0.4967E+03
     -7.107  0.3614E+02  0.5038E+03
     -6.912  0.2245E+02  0.5081E+03
     -6.716  0.1183E+02  0.5105E+03
     -6.521  0.5221E+01  0.5115E+03
     -6.326  0.1886E+01  0.5118E+03
     -6.131  0.5553E+00  0.5120E+03
     -5.936  0.1590E+00  0.5120E+03
     -5.741  0.5372E-01  0.5120E+03
     -5.545  0.1644E-01  0.5120E+03
     -5.350  0.3041E-02  0.5120E+03
     -5.155  0.2033E-03  0.5120E+03
     -4.960  0.3181E-05  0.5120E+03
     -4.765  0.9214E-08  0.5120E+03
     -4.569  0.4454E-11  0.5120E+03
     -4.374  0.3429E-15  0.5120E+03
     -4.179  0.0000E+00  0.5120E+03
     -3.984  0.0000E+00  0.5120E+03
     -3.789  0.0000E+00  0.5120E+03
     -3.594  0.0000E+00  0.5120E+03
     -3.398  0.0000E+00  0.5120E+03
     -3.203  0.0000E+00  0.5120E+03
     -3.008  0.0000E+00  0.5120E+03
     -2.813  0.0000E+00  0.5120E+03
     -2.618  0.0000E+00  0.5120E+03
     -2.422  0.1827E-16  0.5120E+03
     -2.227  0.4401E-12  0.5120E+03
     -2.032  0.1742E-08  0.5120E+03
     -1.837  0.1191E-05  0.5120E+03
     -1.642  0.1519E-03  0.5120E+03
     -1.447  0.4221E-02  0.5120E+03
     -1.251  0.3549E-01  0.5120E+03
     -1.056  0.1675E+00  0.5120E+03
     -0.861  0.6401E+00  0.5122E+03
     -0.666  0.1639E+01  0.5125E+03
     -0.471  0.2911E+01  0.5131E+03
     -0.275  0.3969E+01  0.5138E+03
     -0.080  0.4314E+01  0.5147E+03
      0.115  0.3887E+01  0.5154E+03
      0.310  0.3888E+01  0.5162E+03
      0.505  0.6815E+01  0.5175E+03
      0.700  0.1495E+02  0.5204E+03
      0.896  0.2929E+02  0.5261E+03
      1.091  0.4974E+02  0.5358E+03
      1.286  0.7530E+02  0.5505E+03
      1.481  0.1014E+03  0.5703E+03
      1.676  0.1236E+03  0.5944E+03
      1.872  0.1400E+03  0.6216E+03
      2.067  0.1503E+03  0.6509E+03
      2.262  0.1552E+03  0.6812E+03
      2.457  0.1548E+03  0.7114E+03
      2.652  0.1514E+03  0.7409E+03
      2.847  0.1489E+03  0.7699E+03
      3.043  0.1490E+03  0.7989E+03
      3.238  0.1504E+03  0.8283E+03
      3.433  0.1525E+03  0.8580E+03
      3.628  0.1562E+03  0.8885E+03
      3.823  0.1605E+03  0.9197E+03
      4.019  0.1622E+03  0.9514E+03
      4.214  0.1592E+03  0.9824E+03
      4.409  0.1500E+03  0.1012E+04
      4.604  0.1330E+03  0.1038E+04
      4.799  0.1073E+03  0.1058E+04
      4.994  0.7531E+02  0.1073E+04
      5.190  0.4382E+02  0.1082E+04
      5.385  0.2061E+02  0.1086E+04
      5.580  0.8030E+01  0.1087E+04
      5.775  0.2663E+01  0.1088E+04
      5.970  0.7521E+00  0.1088E+04
      6.166  0.2131E+00  0.1088E+04
      6.361  0.5994E-01  0.1088E+04
      6.556  0.1017E-01  0.1088E+04
      6.751  0.6137E-03  0.1088E+04
      6.946  0.1144E-04  0.1088E+04
      7.141  0.1766E-03  0.1088E+04
      7.337  0.3457E-02  0.1088E+04
      7.532  0.2580E-01  0.1088E+04
      7.727  0.1375E+00  0.1088E+04
      7.922  0.6684E+00  0.1088E+04
      8.117  0.2614E+01  0.1089E+04
      8.313  0.7746E+01  0.1090E+04
      8.508  0.1816E+02  0.1094E+04
      8.703  0.3454E+02  0.1100E+04
      8.898  0.5603E+02  0.1111E+04
      9.093  0.8136E+02  0.1127E+04
      9.288  0.1097E+03  0.1149E+04
      9.484  0.1413E+03  0.1176E+04
      9.679  0.1774E+03  0.1211E+04
      9.874  0.2116E+03  0.1252E+04
     10.069  0.1977E+03  0.1291E+04
     10.264  0.9438E+02  0.1309E+04
     10.460  0.1501E+02  0.1312E+04
     10.655  0.5947E+00  0.1312E+04
     10.850  0.4871E-02  0.1312E+04
     11.045  0.7332E-05  0.1312E+04
     11.240  0.1892E-08  0.1312E+04
     11.436  0.7905E-13  0.1312E+04
     11.631  0.0000E+00  0.1312E+04
     11.826  0.0000E+00  0.1312E+04
     12.021  0.0000E+00  0.1312E+04
     12.216  0.0000E+00  0.1312E+04
     12.411  0.0000E+00  0.1312E+04
     12.607  0.0000E+00  0.1312E+04
     12.802  0.0000E+00  0.1312E+04
     12.93038861    -45.85141576  301      6.27457388      1.00000000
    -45.851  0.0000E+00  0.0000E+00
    -45.655  0.0000E+00  0.0000E+00
    -45.460  0.0000E+00  0.0000E+00
    -45.264  0.0000E+00  0.0000E+00
    -45.068  0.0000E+00  0.0000E+00
    -44.872  0.0000E+00  0.0000E+00
    -44.676  0.0000E+00  0.0000E+00
    -44.480  0.0000E+00  0.0000E+00
    -44.284  0.5893E-17  0.1155E-17
    -44.088  0.1358E-12  0.2660E-13
    -43.892  0.4796E-09  0.9399E-10
    -43.696  0.2644E-06  0.5190E-07
    -43.500  0.2360E-04  0.4676E-05
    -43.304  0.3628E-03  0.7577E-04
    -43.108  0.1097E-02  0.2908E-03
    -42.912  0.1523E-02  0.5891E-03
    -42.716  0.3052E-02  0.1187E-02
    -42.520  0.3765E-02  0.1925E-02
    -42.325  0.4817E-02  0.2869E-02
    -42.129  0.5669E-02  0.3979E-02
    -41.933  0.6100E-02  0.5175E-02
    -41.737  0.4038E-02  0.5966E-02
    -41.541  0.1643E-02  0.6288E-02
    -41.345  0.5259E-03  0.6391E-02
    -41.149  0.4617E-04  0.6400E-02
    -40.953  0.7316E-06  0.6400E-02
    -40.757  0.1899E-08  0.6400E-02
    -40.561  0.7739E-12  0.6400E-02
    -40.365  0.4850E-16  0.6400E-02
    -40.169  0.0000E+00  0.6400E-02
    -39.973  0.0000E+00  0.6400E-02
    -39.777  0.0000E+00  0.6400E-02
    -39.581  0.0000E+00  0.6400E-02
    -39.385  0.0000E+00  0.6400E-02
    -39.189  0.0000E+00  0.6400E-02
    -38.994  0.0000E+00  0.6400E-02
    -38.798  0.0000E+00  0.6400E-02
    -38.602  0.0000E+00  0.6400E-02
    -38.406  0.0000E+00  0.6400E-02
    -38.210  0.0000E+00  0.6400E-02
    -38.014  0.0000E+00  0.6400E-02
    -37.818  0.0000E+00  0.6400E-02
    -37.622  0.0000E+00  0.6400E-02
    -37.426  0.0000E+00  0.6400E-02
    -37.230  0.0000E+00  0.6400E-02
    -37.034  0.0000E+00  0.6400E-02
    -36.838  0.0000E+00  0.6400E-02
    -36.642  0.0000E+00  0.6400E-02
    -36.446  0.0000E+00  0.6400E-02
    -36.250  0.0000E+00  0.6400E-02
    -36.054  0.0000E+00  0.6400E-02
    -35.859  0.0000E+00  0.6400E-02
    -35.663  0.0000E+00  0.6400E-02
    -35.467  0.0000E+00  0.6400E-02
    -35.271  0.0000E+00  0.6400E-02
    -35.075  0.0000E+00  0.6400E-02
    -34.879  0.0000E+00  0.6400E-02
    -34.683  0.0000E+00  0.6400E-02
    -34.487  0.0000E+00  0.6400E-02
    -34.291  0.0000E+00  0.6400E-02
    -34.095  0.0000E+00  0.6400E-02
    -33.899  0.0000E+00  0.6400E-02
    -33.703  0.0000E+00  0.6400E-02
    -33.507  0.0000E+00  0.6400E-02
    -33.311  0.0000E+00  0.6400E-02
    -33.115  0.0000E+00  0.6400E-02
    -32.919  0.0000E+00  0.6400E-02
    -32.723  0.0000E+00  0.6400E-02
    -32.528  0.0000E+00  0.6400E-02
    -32.332  0.0000E+00  0.6400E-02
    -32.136  0.0000E+00  0.6400E-02
    -31.940  0.0000E+00  0.6400E-02
    -31.744  0.0000E+00  0.6400E-02
    -31.548  0.0000E+00  0.6400E-02
    -31.352  0.0000E+00  0.6400E-02
    -31.156  0.0000E+00  0.6400E-02
    -30.960  0.0000E+00  0.6400E-02
    -30.764  0.0000E+00  0.6400E-02
    -30.568  0.0000E+00  0.6400E-02
    -30.372  0.0000E+00  0.6400E-02
    -30.176  0.0000E+00  0.6400E-02
    -29.980  0.0000E+00  0.6400E-02
    -29.784  0.0000E+00  0.6400E-02
    -29.588  0.0000E+00  0.6400E-02
    -29.393  0.0000E+00  0.6400E-02
    -29.197  0.0000E+00  0.6400E-02
    -29.001  0.0000E+00  0.6400E-02
    -28.805  0.0000E+00  0.6400E-02
    -28.609  0.0000E+00  0.6400E-02
    -28.413  0.0000E+00  0.6400E-02
    -28.217  0.0000E+00  0.6400E-02
    -28.021  0.0000E+00  0.6400E-02
    -27.825  0.0000E+00  0.6400E-02
    -27.629  0.0000E+00  0.6400E-02
    -27.433  0.0000E+00  0.6400E-02
    -27.237  0.0000E+00  0.6400E-02
    -27.041  0.0000E+00  0.6400E-02
    -26.845  0.0000E+00  0.6400E-02
    -26.649  0.0000E+00  0.6400E-02
    -26.453  0.3626E-17  0.6400E-02
    -26.257  0.1021E-12  0.6400E-02
    -26.062  0.4557E-09  0.6400E-02
    -25.866  0.3262E-06  0.6400E-02
    -25.670  0.3953E-04  0.6408E-02
    -25.474  0.9094E-03  0.6586E-02
    -25.278  0.5000E-02  0.7566E-02
    -25.082  0.9701E-02  0.9467E-02
    -24.886  0.1047E-01  0.1152E-01
    -24.690  0.8459E-02  0.1318E-01
    -24.494  0.5471E-02  0.1425E-01
    -24.298  0.4147E-02  0.1506E-01
    -24.102  0.2992E-02  0.1565E-01
    -23.906  0.1485E-02  0.1594E-01
    -23.710  0.3047E-03  0.1600E-01
    -23.514  0.1461E-04  0.1600E-01
    -23.318  0.1265E-06  0.1600E-01
    -23.122  0.1784E-09  0.1600E-01
    -22.927  0.3924E-13  0.1600E-01
    -22.731  0.1360E-17  0.1600E-01
    -22.535  0.2686E-16  0.1600E-01
    -22.339  0.4808E-12  0.1600E-01
    -22.143  0.1333E-08  0.1600E-01
    -21.947  0.5959E-06  0.1600E-01
    -21.751  0.4653E-04  0.1601E-01
    -21.555  0.7269E-03  0.1615E-01
    -21.359  0.2796E-02  0.1670E-01
    -21.163  0.5052E-02  0.1769E-01
    -20.967  0.1023E-01  0.1969E-01
    -20.771  0.1570E-01  0.2277E-01
    -20.575  0.1929E-01  0.2655E-01
    -20.379  0.1777E-01  0.3003E-01
    -20.183  0.1510E-01  0.3299E-01
    -19.987  0.9069E-02  0.3477E-01
    -19.791  0.2067E-02  0.3517E-01
    -19.596  0.1383E-03  0.3520E-01
    -19.400  0.2329E-05  0.3520E-01
    -19.204  0.7878E-08  0.3520E-01
    -19.008  0.4542E-11  0.3520E-01
    -18.812  0.4132E-15  0.3520E-01
    -18.616  0.0000E+00  0.3520E-01
    -18.420  0.0000E+00  0.3520E-01
    -18.224  0.0000E+00  0.3520E-01
    -18.028  0.0000E+00  0.3520E-01
    -17.832  0.0000E+00  0.3520E-01
    -17.636  0.0000E+00  0.3520E-01
    -17.440  0.0000E+00  0.3520E-01
    -17.244  0.0000E+00  0.3520E-01
    -17.048  0.0000E+00  0.3520E-01
    -16.852  0.0000E+00  0.3520E-01
    -16.656  0.0000E+00  0.3520E-01
    -16.461  0.0000E+00  0.3520E-01
    -16.265  0.0000E+00  0.3520E-01
    -16.069  0.0000E+00  0.3520E-01
    -15.873  0.0000E+00  0.3520E-01
    -15.677  0.0000E+00  0.3520E-01
    -15.481  0.0000E+00  0.3520E-01
    -15.285  0.0000E+00  0.3520E-01
    -15.089  0.0000E+00  0.3520E-01
    -14.893  0.0000E+00  0.3520E-01
    -14.697  0.0000E+00  0.3520E-01
    -14.501  0.6221E-16  0.3520E-01
    -14.305  0.9518E-12  0.3520E-01
    -14.109  0.2235E-08  0.3520E-01
    -13.913  0.8257E-06  0.3520E-01
    -13.717  0.5042E-04  0.3521E-01
    -13.521  0.5686E-03  0.3532E-01
    -13.325  0.1563E-02  0.3563E-01
    -13.130  0.1976E-02  0.3601E-01
    -12.934  0.2910E-02  0.3658E-01
    -12.738  0.5322E-02  0.3763E-01
    -12.542  0.8286E-02  0.3925E-01
    -12.346  0.1069E-01  0.4135E-01
    -12.150  0.1289E-01  0.4387E-01
    -11.954  0.1414E-01  0.4664E-01
    -11.758  0.1560E-01  0.4970E-01
    -11.562  0.1679E-01  0.5299E-01
    -11.366  0.1829E-01  0.5657E-01
    -11.170  0.1727E-01  0.5996E-01
    -10.974  0.1587E-01  0.6307E-01
    -10.778  0.1609E-01  0.6622E-01
    -10.582  0.1355E-01  0.6887E-01
    -10.386  0.9707E-02  0.7078E-01
    -10.190  0.7770E-02  0.7230E-01
     -9.995  0.5232E-02  0.7332E-01
     -9.799  0.1325E-02  0.7358E-01
     -9.603  0.8287E-04  0.7360E-01
     -9.407  0.1993E-05  0.7360E-01
     -9.211  0.7847E-04  0.7362E-01
     -9.015  0.1440E-02  0.7390E-01
     -8.819  0.7501E-02  0.7537E-01
     -8.623  0.1548E-01  0.7840E-01
     -8.427  0.1825E-01  0.8198E-01
     -8.231  0.1883E-01  0.8567E-01
     -8.035  0.1906E-01  0.8940E-01
     -7.839  0.1673E-01  0.9268E-01
     -7.643  0.1404E-01  0.9543E-01
     -7.447  0.1192E-01  0.9777E-01
     -7.251  0.9030E-02  0.9954E-01
     -7.055  0.5744E-02  0.1007E+00
     -6.859  0.3591E-02  0.1014E+00
     -6.664  0.2797E-02  0.1019E+00
     -6.468  0.1727E-02  0.1023E+00
     -6.272  0.6831E-03  0.1024E+00
     -6.076  0.7678E-04  0.1024E+00
     -5.880  0.1614E-05  0.1024E+00
     -5.684  0.5631E-08  0.1024E+00
     -5.488  0.3101E-11  0.1024E+00
     -5.292  0.2627E-15  0.1024E+00
     -5.096  0.0000E+00  0.1024E+00
     -4.900  0.0000E+00  0.1024E+00
     -4.704  0.0000E+00  0.1024E+00
     -4.508  0.0000E+00  0.1024E+00
     -4.312  0.0000E+00  0.1024E+00
     -4.116  0.0000E+00  0.1024E+00
     -3.920  0.0000E+00  0.1024E+00
     -3.724  0.0000E+00  0.1024E+00
     -3.529  0.0000E+00  0.1024E+00
     -3.333  0.0000E+00  0.1024E+00
     -3.137  0.0000E+00  0.1024E+00
     -2.941  0.0000E+00  0.1024E+00
     -2.745  0.0000E+00  0.1024E+00
     -2.549  0.0000E+00  0.1024E+00
     -2.353  0.0000E+00  0.1024E+00
     -2.157  0.0000E+00  0.1024E+00
     -1.961  0.0000E+00  0.1024E+00
     -1.765  0.3400E-18  0.1024E+00
     -1.569  0.1370E-13  0.1024E+00
     -1.373  0.7665E-10  0.1024E+00
     -1.177  0.6652E-07  0.1024E+00
     -0.981  0.9243E-05  0.1024E+00
     -0.785  0.2172E-03  0.1024E+00
     -0.589  0.9442E-03  0.1026E+00
     -0.393  0.1070E-02  0.1028E+00
     -0.198  0.1124E-02  0.1031E+00
     -0.002  0.6406E-03  0.1032E+00
      0.194  0.1197E-03  0.1032E+00
      0.390  0.6904E-03  0.1033E+00
      0.586  0.2994E-02  0.1039E+00
      0.782  0.5425E-02  0.1050E+00
      0.978  0.8573E-02  0.1067E+00
      1.174  0.1338E-01  0.1093E+00
      1.370  0.1846E-01  0.1129E+00
      1.566  0.2214E-01  0.1172E+00
      1.762  0.2571E-01  0.1223E+00
      1.958  0.2963E-01  0.1281E+00
      2.154  0.3063E-01  0.1341E+00
      2.350  0.3093E-01  0.1402E+00
      2.546  0.3076E-01  0.1462E+00
      2.742  0.2991E-01  0.1520E+00
      2.937  0.2876E-01  0.1577E+00
      3.133  0.2946E-01  0.1634E+00
      3.329  0.3020E-01  0.1694E+00
      3.525  0.3055E-01  0.1754E+00
      3.721  0.3138E-01  0.1815E+00
      3.917  0.3149E-01  0.1877E+00
      4.113  0.3065E-01  0.1937E+00
      4.309  0.2926E-01  0.1994E+00
      4.505  0.2827E-01  0.2049E+00
      4.701  0.2648E-01  0.2101E+00
      4.897  0.2059E-01  0.2142E+00
      5.093  0.1142E-01  0.2164E+00
      5.289  0.4617E-02  0.2173E+00
      5.485  0.1289E-02  0.2176E+00
      5.681  0.1545E-03  0.2176E+00
      5.877  0.4380E-05  0.2176E+00
      6.073  0.2218E-07  0.2176E+00
      6.268  0.1811E-10  0.2176E+00
      6.464  0.2292E-14  0.2176E+00
      6.660  0.0000E+00  0.2176E+00
      6.856  0.0000E+00  0.2176E+00
      7.052  0.0000E+00  0.2176E+00
      7.248  0.5779E-17  0.2176E+00
      7.444  0.1345E-12  0.2176E+00
      7.640  0.4804E-09  0.2176E+00
      7.836  0.2719E-06  0.2176E+00
      8.032  0.2586E-04  0.2176E+00
      8.228  0.4606E-03  0.2177E+00
      8.424  0.1879E-02  0.2181E+00
      8.620  0.3354E-02  0.2187E+00
      8.816  0.6981E-02  0.2201E+00
      9.012  0.1195E-01  0.2224E+00
      9.208  0.1650E-01  0.2257E+00
      9.403  0.2172E-01  0.2299E+00
      9.599  0.2882E-01  0.2356E+00
      9.795  0.3939E-01  0.2433E+00
      9.991  0.4661E-01  0.2524E+00
     10.187  0.3626E-01  0.2595E+00
     10.383  0.1300E-01  0.2621E+00
     10.579  0.1647E-02  0.2624E+00
     10.775  0.5849E-04  0.2624E+00
     10.971  0.4614E-06  0.2624E+00
     11.167  0.6803E-09  0.2624E+00
     11.363  0.1697E-12  0.2624E+00
     11.559  0.6573E-17  0.2624E+00
     11.755  0.0000E+00  0.2624E+00
     11.951  0.0000E+00  0.2624E+00
     12.147  0.0000E+00  0.2624E+00
     12.343  0.0000E+00  0.2624E+00
     12.539  0.0000E+00  0.2624E+00
     12.734  0.0000E+00  0.2624E+00
     12.930  0.0000E+00  0.2624E+00
