 vasp.5.4.4.18Apr17-6-g9f103f2a35 (build May 01 2020 14:22:42) gamma-only       
  
 executed on             LinuxIFC date 2022.02.23  05:55:17
 running on  160 total cores
 distrk:  each k-point on  160 cores,    1 groups
 distr:  one band on NCORES_PER_BAND=  20 cores,    8 groups


--------------------------------------------------------------------------------------------------------


 INCAR:
 POTCAR:    PAW_PBE O 08Apr2002                   
 POTCAR:    PAW_PBE La 06Sep2000                  
 POTCAR:    PAW_PBE Zr_sv 04Jan2005               
 POTCAR:    PAW_PBE Li 17Jan2003                  
 POTCAR:    PAW_PBE Al 04Jan2001                  
 POTCAR:    PAW_PBE O 08Apr2002                   
   VRHFIN =O: s2p4                                                              
   LEXCH  = PE                                                                  
   EATOM  =   432.3788 eV,   31.7789 Ry                                         
                                                                                
   TITEL  = PAW_PBE O 08Apr2002                                                 
   LULTRA =        F    use ultrasoft PP ?                                      
   IUNSCR =        1    unscreen: 0-lin 1-nonlin 2-no                           
   RPACOR =    1.200    partial core radius                                     
   POMASS =   16.000; ZVAL   =    6.000    mass and valenz                      
   RCORE  =    1.520    outmost cutoff radius                                   
   RWIGS  =    1.550; RWIGS  =    0.820    wigner-seitz radius (au A)           
   ENMAX  =  400.000; ENMIN  =  300.000 eV                                      
   ICORE  =        2    local potential                                         
   LCOR   =        T    correct aug charges                                     
   LPAW   =        T    paw PP                                                  
   EAUG   =  605.392                                                            
   DEXC   =    0.000                                                            
   RMAX   =    1.553    core radius for proj-oper                               
   RAUG   =    1.300    factor for augmentation sphere                          
   RDEP   =    1.550    radius for radial grids                                 
   RDEPT  =    1.329    core radius for aug-charge                              
                                                                                
   Atomic configuration                                                         
    4 entries                                                                   
     n  l   j            E        occ.                                          
     1  0  0.50      -514.6923   2.0000                                         
     2  0  0.50       -23.9615   2.0000                                         
     2  1  0.50        -9.0305   4.0000                                         
     3  2  1.50        -9.5241   0.0000                                         
   Description                                                                  
     l       E           TYP  RCUT    TYP  RCUT                                 
     0    -23.9615318     23  1.200                                             
     0     -9.5240782     23  1.200                                             
     1     -9.0304911     23  1.520                                             
     1      8.1634956     23  1.520                                             
     2     -9.5240782      7  1.500                                             
  local pseudopotential read in
  partial core-charges read in
  partial kinetic energy density read in
  kinetic energy density of atom read in
  atomic valenz-charges read in
  non local Contribution for L=           0  read in
    real space projection operators read in
  non local Contribution for L=           0  read in
    real space projection operators read in
  non local Contribution for L=           1  read in
    real space projection operators read in
  non local Contribution for L=           1  read in
    real space projection operators read in
    PAW grid and wavefunctions read in
 
   number of l-projection  operators is LMAX  =           4
   number of lm-projection operators is LMMAX =           8
 
 POTCAR:    PAW_PBE La 06Sep2000                  
   VRHFIN =La : [core=Kr4d]                                                     
   LEXCH  = PE                                                                  
   EATOM  =   865.9763 eV,   63.6475 Ry                                         
                                                                                
   TITEL  = PAW_PBE La 06Sep2000                                                
   LULTRA =        F    use ultrasoft PP ?                                      
   IUNSCR =        1    unscreen: 0-lin 1-nonlin 2-no                           
   RPACOR =    2.300    partial core radius                                     
   POMASS =  138.900; ZVAL   =   11.000    mass and valenz                      
   RCORE  =    2.800    outmost cutoff radius                                   
   RWIGS  =    2.900; RWIGS  =    1.535    wigner-seitz radius (au A)           
   ENMAX  =  219.292; ENMIN  =  164.469 eV                                      
   RCLOC  =    1.601    cutoff for local pot                                    
   LCOR   =        T    correct aug charges                                     
   LPAW   =        T    paw PP                                                  
   EAUG   =  583.575                                                            
   DEXC   =    0.000                                                            
   RMAX   =    2.853    core radius for proj-oper                               
   RAUG   =    1.300    factor for augmentation sphere                          
   RDEP   =    2.802    radius for radial grids                                 
   RDEPT  =    2.156    core radius for aug-charge                              
                                                                                
   Atomic configuration                                                         
   14 entries                                                                   
     n  l   j            E        occ.                                          
     1  0  0.50    -38741.0879   2.0000                                         
     2  0  0.50     -6166.6801   2.0000                                         
     2  1  1.50     -5526.1593   6.0000                                         
     3  0  0.50     -1319.0200   2.0000                                         
     3  1  1.50     -1114.5963   6.0000                                         
     3  2  2.50      -821.1793  10.0000                                         
     4  0  0.50      -266.3851   2.0000                                         
     4  1  1.50      -199.9276   6.0000                                         
     4  2  2.50      -103.8239  10.0000                                         
     5  0  0.50       -38.9172   2.0000                                         
     6  0  0.50        -3.6792   2.0000                                         
     5  1  1.50       -22.3948   6.0000                                         
     5  2  2.50        -3.0911   0.9999                                         
     4  3  2.50        -4.3603   0.0001                                         
   Description                                                                  
     l       E           TYP  RCUT    TYP  RCUT                                 
     0    -38.9171645     23  2.800                                             
     0     -3.6792381     23  2.800                                             
     1    -22.3948300     23  2.500                                             
     1     27.2116520     23  2.500                                             
     2     -3.0910934     23  2.500                                             
     2      1.0119135     23  2.500                                             
     3     -4.3602911     23  2.800                                             
     3     -5.7208737     23  2.800                                             
  local pseudopotential read in
  partial core-charges read in
  partial kinetic energy density read in
  atomic valenz-charges read in
  non local Contribution for L=           0  read in
    real space projection operators read in
  non local Contribution for L=           0  read in
    real space projection operators read in
  non local Contribution for L=           1  read in
    real space projection operators read in
  non local Contribution for L=           1  read in
    real space projection operators read in
  non local Contribution for L=           2  read in
    real space projection operators read in
  non local Contribution for L=           2  read in
    real space projection operators read in
  non local Contribution for L=           3  read in
    real space projection operators read in
  non local Contribution for L=           3  read in
    real space projection operators read in
    PAW grid and wavefunctions read in
 
   number of l-projection  operators is LMAX  =           8
   number of lm-projection operators is LMMAX =          32
 
 POTCAR:    PAW_PBE Zr_sv 04Jan2005               
   VRHFIN =Zr: 4s4p5s4d                                                         
   LEXCH  = PE                                                                  
   EATOM  =  1284.2219 eV,   94.3876 Ry                                         
                                                                                
   TITEL  = PAW_PBE Zr_sv 04Jan2005                                             
   LULTRA =        F    use ultrasoft PP ?                                      
   IUNSCR =        1    unscreen: 0-lin 1-nonlin 2-no                           
   RPACOR =    2.200    partial core radius                                     
   POMASS =   91.224; ZVAL   =   12.000    mass and valenz                      
   RCORE  =    2.500    outmost cutoff radius                                   
   RWIGS  =    3.070; RWIGS  =    1.625    wigner-seitz radius (au A)           
   ENMAX  =  229.898; ENMIN  =  172.424 eV                                      
   ICORE  =        3    local potential                                         
   LCOR   =        T    correct aug charges                                     
   LPAW   =        T    paw PP                                                  
   EAUG   =  461.257                                                            
   DEXC   =    0.000                                                            
   RMAX   =    2.561    core radius for proj-oper                               
   RAUG   =    1.300    factor for augmentation sphere                          
   RDEP   =    2.597    radius for radial grids                                 
   RDEPT  =    2.007    core radius for aug-charge                              
                                                                                
   Atomic configuration                                                         
   11 entries                                                                   
     n  l   j            E        occ.                                          
     1  0  0.50    -17820.0161   2.0000                                         
     2  0  0.50     -2467.0882   2.0000                                         
     2  1  1.50     -2199.6095   6.0000                                         
     3  0  0.50      -402.4863   2.0000                                         
     3  1  1.50      -315.3675   6.0000                                         
     3  2  2.50      -172.4472  10.0000                                         
     4  0  0.50       -52.4146   2.0000                                         
     5  0  0.50        -3.8421   1.0000                                         
     4  1  1.50       -30.5054   6.0000                                         
     4  2  2.50        -2.3341   3.0000                                         
     4  3  2.50        -1.3606   0.0000                                         
   Description                                                                  
     l       E           TYP  RCUT    TYP  RCUT                                 
     0    -52.4145962     23  2.200                                             
     0     -3.8421270     23  2.500                                             
     1    -30.5053914     23  2.200                                             
     1     20.4087390     23  2.200                                             
     2     -2.3340816     23  2.500                                             
     2     -0.6120942     23  2.500                                             
     3     -4.0817478     23  2.500                                             
  local pseudopotential read in
  partial core-charges read in
  partial kinetic energy density read in
  atomic valenz-charges read in
  non local Contribution for L=           0  read in
    real space projection operators read in
  non local Contribution for L=           0  read in
    real space projection operators read in
  non local Contribution for L=           1  read in
    real space projection operators read in
  non local Contribution for L=           1  read in
    real space projection operators read in
  non local Contribution for L=           2  read in
    real space projection operators read in
  non local Contribution for L=           2  read in
    real space projection operators read in
    PAW grid and wavefunctions read in
 
   number of l-projection  operators is LMAX  =           6
   number of lm-projection operators is LMMAX =          18
 
 POTCAR:    PAW_PBE Li 17Jan2003                  
   VRHFIN =Li: s1p0                                                             
   LEXCH  = PE                                                                  
   EATOM  =     5.3001 eV,    0.3895 Ry                                         
                                                                                
   TITEL  = PAW_PBE Li 17Jan2003                                                
   LULTRA =        F    use ultrasoft PP ?                                      
   IUNSCR =        1    unscreen: 0-lin 1-nonlin 2-no                           
   RPACOR =    1.500    partial core radius                                     
   POMASS =    7.010; ZVAL   =    1.000    mass and valenz                      
   RCORE  =    2.050    outmost cutoff radius                                   
   RWIGS  =    2.600; RWIGS  =    1.376    wigner-seitz radius (au A)           
   ENMAX  =  140.000; ENMIN  =  100.000 eV                                      
   ICORE  =        2    local potential                                         
   LCOR   =        T    correct aug charges                                     
   LPAW   =        T    paw PP                                                  
   EAUG   =  331.638                                                            
   DEXC   =    0.000                                                            
   RMAX   =    2.098    core radius for proj-oper                               
   RAUG   =    1.300    factor for augmentation sphere                          
   RDEP   =    2.094    radius for radial grids                                 
   RDEPT  =    1.810    core radius for aug-charge                              
                                                                                
   Atomic configuration                                                         
    4 entries                                                                   
     n  l   j            E        occ.                                          
     1  0  0.50       -51.8549   2.0000                                         
     2  0  0.50        -2.8742   1.0000                                         
     2  1  0.50        -1.3606   0.0000                                         
     3  2  1.50        -1.3606   0.0000                                         
   Description                                                                  
     l       E           TYP  RCUT    TYP  RCUT                                 
     0     -2.8742052     23  2.050                                             
     0     27.2116520     23  2.050                                             
     1     -1.3605826     23  2.050                                             
     2     -1.3605826     23  2.050                                             
  local pseudopotential read in
  partial core-charges read in
  partial kinetic energy density read in
  atomic valenz-charges read in
  non local Contribution for L=           0  read in
    real space projection operators read in
  non local Contribution for L=           0  read in
    real space projection operators read in
  non local Contribution for L=           1  read in
    real space projection operators read in
    PAW grid and wavefunctions read in
 
   number of l-projection  operators is LMAX  =           3
   number of lm-projection operators is LMMAX =           5
 
 POTCAR:    PAW_PBE Al 04Jan2001                  
   VRHFIN =Al: s2p1                                                             
   LEXCH  = PE                                                                  
   EATOM  =    53.5387 eV,    3.9350 Ry                                         
                                                                                
   TITEL  = PAW_PBE Al 04Jan2001                                                
   LULTRA =        F    use ultrasoft PP ?                                      
   IUNSCR =        1    unscreen: 0-lin 1-nonlin 2-no                           
   RPACOR =    1.500    partial core radius                                     
   POMASS =   26.981; ZVAL   =    3.000    mass and valenz                      
   RCORE  =    1.900    outmost cutoff radius                                   
   RWIGS  =    2.650; RWIGS  =    1.402    wigner-seitz radius (au A)           
   ENMAX  =  240.300; ENMIN  =  180.225 eV                                      
   ICORE  =        2    local potential                                         
   LCOR   =        T    correct aug charges                                     
   LPAW   =        T    paw PP                                                  
   EAUG   =  291.052                                                            
   DEXC   =    0.000                                                            
   RMAX   =    1.939    core radius for proj-oper                               
   RAUG   =    1.300    factor for augmentation sphere                          
   RDEP   =    1.966    radius for radial grids                                 
   RDEPT  =    1.856    core radius for aug-charge                              
                                                                                
   Atomic configuration                                                         
    6 entries                                                                   
     n  l   j            E        occ.                                          
     1  0  0.50     -1511.1048   2.0000                                         
     2  0  0.50      -108.1629   2.0000                                         
     2  1  1.50       -69.6402   6.0000                                         
     3  0  0.50        -7.7528   2.0000                                         
     3  1  1.50        -2.7121   1.0000                                         
     3  2  2.50        -2.7212   0.0000                                         
   Description                                                                  
     l       E           TYP  RCUT    TYP  RCUT                                 
     0     -7.7528455     23  1.900                                             
     0     -3.3096929     23  1.900                                             
     1     -2.7120682     23  1.900                                             
     1     13.6058260     23  1.900                                             
     2     -2.7211652      7  1.900                                             
  local pseudopotential read in
  partial core-charges read in
  partial kinetic energy density read in
  atomic valenz-charges read in
  non local Contribution for L=           0  read in
    real space projection operators read in
  non local Contribution for L=           0  read in
    real space projection operators read in
  non local Contribution for L=           1  read in
    real space projection operators read in
  non local Contribution for L=           1  read in
    real space projection operators read in
    PAW grid and wavefunctions read in
 
   number of l-projection  operators is LMAX  =           4
   number of lm-projection operators is LMMAX =           8
 
 Optimization of the real space projectors (new method)

 maximal supplied QI-value         = 24.76
 optimisation between [QCUT,QGAM] = [ 11.39, 22.77] = [ 36.31,145.25] Ry 
 Optimized for a Real-space Cutoff    1.10 Angstroem

   l    n(q)    QCUT    max X(q) W(low)/X(q) W(high)/X(q)  e(spline) 
   0      7    11.387    20.381    0.22E-03    0.48E-03    0.18E-06
   0      7    11.387    15.268    0.22E-03    0.52E-03    0.19E-06
   1      7    11.387     5.964    0.22E-03    0.73E-03    0.24E-06
   1      7    11.387     5.382    0.19E-03    0.60E-03    0.21E-06
 Optimization of the real space projectors (new method)

 maximal supplied QI-value         = 13.42
 optimisation between [QCUT,QGAM] = [ 11.40, 22.81] = [ 36.42,145.68] Ry 
 Optimized for a Real-space Cutoff    1.66 Angstroem

   l    n(q)    QCUT    max X(q) W(low)/X(q) W(high)/X(q)  e(spline) 
   0     11    11.404    13.882    0.31E-04    0.82E-05    0.60E-07
   0     11    11.404    12.184    0.45E-04    0.14E-04    0.98E-07
   1     11    11.404     4.523    0.47E-05    0.18E-04    0.12E-06
   1     11    11.404     4.424    0.66E-05    0.26E-04    0.18E-06
   2     10    11.404    52.481    0.10E-03    0.52E-04    0.18E-06
   2     10    11.404    38.501    0.97E-04    0.49E-04    0.18E-06
   3     10    11.404    65.631    0.11E-03    0.47E-04    0.67E-06
   3     10    11.404    56.854    0.11E-03    0.44E-04    0.68E-06
 Optimization of the real space projectors (new method)

 maximal supplied QI-value         = 15.12
 optimisation between [QCUT,QGAM] = [ 11.34, 22.83] = [ 36.00,145.93] Ry 
 Optimized for a Real-space Cutoff    1.52 Angstroem

   l    n(q)    QCUT    max X(q) W(low)/X(q) W(high)/X(q)  e(spline) 
   0     10    11.338    12.107    0.25E-04    0.17E-04    0.51E-07
   0     10    11.338     9.948    0.49E-04    0.35E-04    0.12E-06
   1     10    11.338     3.563    0.20E-04    0.52E-05    0.48E-07
   1     10    11.338     4.524    0.21E-03    0.12E-03    0.44E-06
   2      9    11.338    87.261    0.14E-03    0.22E-04    0.23E-06
   2      9    11.338    70.950    0.14E-03    0.22E-04    0.23E-06
 Optimization of the real space projectors (new method)

 maximal supplied QI-value         = 18.33
 optimisation between [QCUT,QGAM] = [ 11.36, 22.73] = [ 36.17,144.67] Ry 
 Optimized for a Real-space Cutoff    1.23 Angstroem

   l    n(q)    QCUT    max X(q) W(low)/X(q) W(high)/X(q)  e(spline) 
   0      8    11.365    33.825    0.48E-04    0.18E-03    0.59E-07
   0      8    11.365     8.944    0.37E-04    0.13E-03    0.44E-07
   1      8    11.365     4.214    0.24E-03    0.13E-03    0.38E-07
 Optimization of the real space projectors (new method)

 maximal supplied QI-value         = 19.84
 optimisation between [QCUT,QGAM] = [ 11.31, 22.82] = [ 35.82,145.81] Ry 
 Optimized for a Real-space Cutoff    1.16 Angstroem

   l    n(q)    QCUT    max X(q) W(low)/X(q) W(high)/X(q)  e(spline) 
   0      8    11.310   176.870    0.22E-03    0.22E-03    0.34E-07
   0      8    11.310   105.762    0.21E-03    0.22E-03    0.33E-07
   1      7    11.310    55.370    0.19E-03    0.26E-03    0.72E-07
   1      7    11.310    20.208    0.18E-03    0.24E-03    0.66E-07
  PAW_PBE O 08Apr2002                   :
 energy of atom  1       EATOM= -432.3788
 kinetic energy error for atom=    0.0224 (will be added to EATOM!!)
  PAW_PBE La 06Sep2000                  :
 energy of atom  2       EATOM= -865.9763
 kinetic energy error for atom=    0.0011 (will be added to EATOM!!)
  PAW_PBE Zr_sv 04Jan2005               :
 energy of atom  3       EATOM=-1284.2219
 kinetic energy error for atom=    0.0049 (will be added to EATOM!!)
  PAW_PBE Li 17Jan2003                  :
 energy of atom  4       EATOM=   -5.3001
 kinetic energy error for atom=    0.0000 (will be added to EATOM!!)
  PAW_PBE Al 04Jan2001                  :
 energy of atom  5       EATOM=  -53.5387
 kinetic energy error for atom=    0.0003 (will be added to EATOM!!)
 
 
 POSCAR: LLZO_Ia3d_Al30_partial_99               
  positions in direct lattice
  No initial velocities read in
 exchange correlation table for  LEXCH =        8
   RHO(1)=    0.500       N(1)  =     2000
   RHO(2)=  100.500       N(2)  =     4000
 


--------------------------------------------------------------------------------------------------------


 ion  position               nearest neighbor table
   1  0.100  0.196  0.282- 128 2.11 113 2.51  97 2.59
   2  0.900  0.804  0.718- 176 1.91 127 2.11 137 2.14 158 2.25 114 2.51  98 2.59
   3  0.400  0.804  0.782- 184 1.91 126 2.11 143 2.14 164 2.25 119 2.51  99 2.59
   4  0.600  0.196  0.218- 182 1.91 125 2.11 120 2.51 100 2.59 159 2.61
   5  0.900  0.696  0.218- 130 2.11 140 2.12 168 2.14 115 2.51 101 2.59 160 2.61
   6  0.100  0.304  0.782- 165 1.87 169 1.91 129 2.11 152 2.12 139 2.25 116 2.51 102 2.59
   7  0.600  0.304  0.718- 178 1.91 132 2.11 157 2.25 117 2.51 103 2.59
   8  0.400  0.696  0.282- 153 1.87 185 1.91 131 2.11 144 2.25 118 2.51 104 2.59
   9  0.282  0.100  0.196- 159 1.88 128 2.11  97 2.51 105 2.59 150 2.61
  10  0.718  0.900  0.804- 181 1.91 127 2.11 164 2.14  98 2.51 106 2.59 162 2.61
  11  0.782  0.400  0.804- 175 1.91 132 2.11 139 2.14 103 2.51 107 2.59 151 2.61
  12  0.218  0.600  0.196- 160 1.88 186 1.91 131 2.11 104 2.51 108 2.59 142 2.61
  13  0.218  0.900  0.696- 174 1.91 126 2.11 158 2.14  99 2.51 109 2.59 167 2.61
  14  0.782  0.100  0.304- 180 1.91 125 2.11 100 2.51 110 2.59 163 2.61
  15  0.718  0.600  0.304- 177 1.91 130 2.11 144 2.14 101 2.51 111 2.59
  16  0.282  0.400  0.696- 171 1.91 129 2.11 157 2.14 149 2.25 102 2.51 112 2.59
  17  0.196  0.282  0.100- 142 1.87 128 2.11 105 2.51 113 2.59 165 2.61
  18  0.804  0.718  0.900- 151 1.87 172 1.91 127 2.11 141 2.12 168 2.25 106 2.51 114 2.59
  19  0.804  0.782  0.400- 163 1.87 173 1.91 130 2.11 137 2.25 111 2.51 115 2.59
  20  0.196  0.218  0.600- 167 1.87 170 1.91 129 2.11 112 2.51 116 2.59
  21  0.696  0.218  0.900- 162 1.87 179 1.91 132 2.11 107 2.51 117 2.59
  22  0.304  0.782  0.100- 150 1.87 131 2.11 138 2.12 143 2.25 108 2.51 118 2.59
  23  0.304  0.718  0.600- 126 2.11 149 2.14 109 2.51 119 2.59 153 2.61
  24  0.696  0.282  0.400- 183 1.91 125 2.11 148 2.12 110 2.51 120 2.59
  25  0.946  0.350  0.968- 139 1.87 169 1.91 134 2.11 165 2.12 113 2.51 107 2.59
  26  0.054  0.650  0.032- 134 2.11 160 2.14 114 2.51 108 2.59 138 2.61
  27  0.554  0.650  0.468- 144 1.87 185 1.91 133 2.11 153 2.12 119 2.51 111 2.59
  28  0.446  0.350  0.532- 157 1.87 178 1.91 133 2.11 120 2.51 112 2.59
  29  0.446  0.150  0.032- 182 1.91 135 2.11 159 2.14 156 2.25 117 2.51 105 2.59
  30  0.554  0.850  0.968- 164 1.87 184 1.91 135 2.11 118 2.51 106 2.59 141 2.61
  31  0.054  0.850  0.532- 158 1.87 176 1.91 136 2.11 115 2.51 109 2.59
  32  0.946  0.150  0.468- 136 2.11 116 2.51 110 2.59 148 2.61
  33  0.850  0.532  0.054- 168 1.87 172 1.91 134 2.11 151 2.12 154 2.25 107 2.51 101 2.59
  34  0.150  0.468  0.946- 134 2.11 142 2.12 165 2.14 155 2.25 108 2.51 102 2.59
  35  0.150  0.032  0.446- 170 1.91 136 2.11 167 2.12 109 2.51  97 2.59
  36  0.850  0.968  0.554- 137 1.87 173 1.91 136 2.11 163 2.12 110 2.51  98 2.59
  37  0.650  0.468  0.554- 183 1.91 133 2.11 111 2.51 103 2.59
  38  0.350  0.532  0.446- 133 2.11 153 2.14 147 2.25 112 2.51 104 2.59
  39  0.350  0.968  0.946- 143 1.87 135 2.11 150 2.12 166 2.25 105 2.51  99 2.59
  40  0.650  0.032  0.054- 179 1.91 135 2.11 162 2.12 106 2.51 100 2.59
  41  0.032  0.446  0.150- 186 1.91 134 2.11 160 2.12 142 2.14 161 2.25 101 2.51 113 2.59
  42  0.968  0.554  0.850- 175 1.91 134 2.11 151 2.14 102 2.51 114 2.59
  43  0.532  0.054  0.850- 181 1.91 135 2.11 162 2.14  99 2.51 117 2.59
  44  0.468  0.946  0.150- 135 2.11 159 2.12 150 2.14 100 2.51 118 2.59
  45  0.968  0.946  0.350- 180 1.91 136 2.11 163 2.14  97 2.51 115 2.59 140 2.61
  46  0.032  0.054  0.650- 174 1.91 136 2.11 167 2.14  98 2.51 116 2.59 152 2.61
  47  0.468  0.554  0.650- 149 1.88 171 1.91 133 2.11 146 2.25 103 2.51 119 2.59
  48  0.532  0.446  0.350- 177 1.91 133 2.11 145 2.25 104 2.51 120 2.59
  49  0.600  0.696  0.782- 184 1.91 127 2.11 164 2.12 141 2.14 119 2.51 103 2.59 146 2.61
  50  0.400  0.304  0.218- 156 1.87 182 1.91 128 2.11 120 2.51 104 2.59 145 2.61
  51  0.900  0.304  0.282- 125 2.11 148 2.14 113 2.51 101 2.59 161 2.61
  52  0.100  0.696  0.718- 176 1.91 126 2.11 158 2.12 114 2.51 102 2.59
  53  0.400  0.196  0.718- 178 1.91 129 2.11 157 2.12 117 2.51  99 2.59
  54  0.600  0.804  0.282- 185 1.91 130 2.11 144 2.12 118 2.51 100 2.59
  55  0.100  0.804  0.218- 131 2.11 138 2.14 140 2.25 115 2.51  97 2.59
  56  0.900  0.196  0.782- 169 1.91 132 2.11 139 2.12 152 2.25 116 2.51  98 2.59
  57  0.782  0.600  0.696- 175 1.91 127 2.11 103 2.51 111 2.59
  58  0.218  0.400  0.304- 161 1.88 186 1.91 128 2.11 104 2.51 112 2.59 147 2.61
  59  0.282  0.900  0.304- 131 2.11  97 2.51 109 2.59
  60  0.718  0.100  0.696- 181 1.91 132 2.11  98 2.51 110 2.59
  61  0.718  0.400  0.196- 145 1.88 177 1.91 125 2.11 101 2.51 107 2.59 154 2.61
  62  0.282  0.600  0.804- 146 1.88 171 1.91 126 2.11 149 2.12 102 2.51 108 2.59 155 2.61
  63  0.218  0.100  0.804- 174 1.91 129 2.11 152 2.14  99 2.51 105 2.59 166 2.61
  64  0.782  0.900  0.196- 180 1.91 130 2.11 140 2.14 100 2.51 106 2.59
  65  0.696  0.782  0.600- 173 1.91 127 2.11 137 2.12 111 2.51 119 2.59
  66  0.304  0.218  0.400- 170 1.91 128 2.11 112 2.51 120 2.59
  67  0.304  0.282  0.900- 155 1.87 129 2.11 105 2.51 117 2.59 156 2.61
  68  0.696  0.718  0.100- 154 1.87 172 1.91 130 2.11 168 2.12 141 2.25 106 2.51 118 2.59
  69  0.196  0.718  0.400- 147 1.87 131 2.11 109 2.51 115 2.59
  70  0.804  0.282  0.600- 183 1.91 132 2.11 148 2.25 110 2.51 116 2.59
  71  0.804  0.218  0.100- 179 1.91 125 2.11 107 2.51 113 2.59
  72  0.196  0.782  0.900- 166 1.87 126 2.11 143 2.12 138 2.25 108 2.51 114 2.59
  73  0.446  0.850  0.468- 185 1.91 122 2.11 153 2.25 119 2.51 109 2.59
  74  0.554  0.150  0.532- 178 1.91 122 2.11 120 2.51 110 2.59
  75  0.054  0.150  0.968- 152 1.87 169 1.91 121 2.11 165 2.25 113 2.51 105 2.59
  76  0.946  0.850  0.032- 140 1.87 121 2.11 114 2.51 106 2.59 168 2.61
  77  0.946  0.650  0.532- 176 1.91 123 2.11 115 2.51 111 2.59 137 2.61
  78  0.054  0.350  0.468- 123 2.11 161 2.14 116 2.51 112 2.59
  79  0.554  0.350  0.032- 182 1.91 124 2.11 156 2.12 145 2.14 117 2.51 107 2.59
  80  0.446  0.650  0.968- 184 1.91 124 2.11 146 2.14 118 2.51 108 2.59 143 2.61
  81  0.350  0.032  0.554- 170 1.91 122 2.11 167 2.25 109 2.51  99 2.59
  82  0.650  0.968  0.446- 173 1.91 122 2.11 163 2.25 110 2.51 100 2.59
  83  0.650  0.532  0.946- 141 1.87 172 1.91 124 2.11 154 2.12 151 2.25 107 2.51 103 2.59
  84  0.350  0.468  0.054- 124 2.11 155 2.12 156 2.14 142 2.25 108 2.51 104 2.59
  85  0.150  0.968  0.054- 138 1.87 121 2.11 166 2.12 150 2.25 105 2.51  97 2.59
  86  0.850  0.032  0.946- 179 1.91 121 2.11 162 2.25 106 2.51  98 2.59
  87  0.850  0.468  0.446- 148 1.87 183 1.91 123 2.11 111 2.51 101 2.59
  88  0.150  0.532  0.554- 123 2.11 147 2.12 112 2.51 102 2.59 149 2.61
  89  0.532  0.946  0.650- 181 1.91 122 2.11  99 2.51 119 2.59 164 2.61
  90  0.468  0.054  0.350- 122 2.11 159 2.25 100 2.51 120 2.59
  91  0.032  0.554  0.350- 186 1.91 123 2.11 161 2.12 147 2.14 160 2.25 101 2.51 115 2.59
  92  0.968  0.446  0.650- 175 1.91 123 2.11 102 2.51 116 2.59 139 2.61
  93  0.468  0.446  0.850- 171 1.91 124 2.11 146 2.12 155 2.14 103 2.51 117 2.59 157 2.61
  94  0.532  0.554  0.150- 177 1.91 124 2.11 145 2.12 154 2.14 104 2.51 118 2.59 144 2.61
  95  0.968  0.054  0.150- 180 1.91 121 2.11  97 2.51 113 2.59
  96  0.032  0.946  0.850- 174 1.91 121 2.11 166 2.14  98 2.51 114 2.59 158 2.61
  97  0.125  0.000  0.250-  45 2.51  95 2.51   9 2.51  59 2.51   1 2.59  85 2.59  35 2.59  55 2.59
                           180 3.24 140 3.26 150 3.26 138 3.35 121 3.62 128 3.62 131 3.62 136 3.62
  98  0.875  0.000  0.750-  60 2.51  10 2.51  96 2.51  46 2.51  56 2.59   2 2.59  86 2.59  36 2.59
                           174 3.24 181 3.24 162 3.26 158 3.26 152 3.26 137 3.35 132 3.62 136 3.62
  99  0.375  0.000  0.750-  63 2.51  13 2.51  89 2.51  43 2.51  53 2.59   3 2.59  81 2.59  39 2.59
                           174 3.24 181 3.24 164 3.26 166 3.26 167 3.26 143 3.35 129 3.62 135 3.62
 100  0.625  0.000  0.250-  44 2.51  90 2.51  14 2.51  64 2.51  40 2.59  82 2.59   4 2.59  54 2.59
                           159 2.99 180 3.24 163 3.26 135 3.62 122 3.62 125 3.62 130 3.62
 101  0.875  0.500  0.250-  91 2.51  61 2.51  41 2.51  15 2.51  33 2.59  87 2.59  51 2.59   5 2.59
                           160 2.99 161 2.99 177 3.24 186 3.24 154 3.26 148 3.35 168 3.35 134 3.62
 102  0.125  0.500  0.750-  16 2.51  42 2.51  62 2.51  92 2.51   6 2.59  52 2.59  88 2.59  34 2.59
                           149 2.99 171 3.24 175 3.24 139 3.26 155 3.26 165 3.35 129 3.62 134 3.62
 103  0.625  0.500  0.750-  11 2.51  47 2.51  57 2.51  93 2.51   7 2.59  37 2.59  83 2.59  49 2.59
                           146 2.99 171 3.24 175 3.24 151 3.26 157 3.26 141 3.35 132 3.62 133 3.62
 104  0.375  0.500  0.250-  94 2.51  58 2.51  48 2.51  12 2.51  38 2.59  84 2.59  50 2.59   8 2.59
                           145 2.99 177 3.24 186 3.24 144 3.26 142 3.26 147 3.26 156 3.35 153 3.35
 105  0.250  0.125  0.000-  17 2.51  67 2.51  39 2.51  85 2.51   9 2.59  63 2.59  75 2.59  29 2.59
                           166 2.99 150 2.99 165 3.26 156 3.26 159 3.35 152 3.35 128 3.62 129 3.62
 106  0.750  0.875  0.000-  68 2.51  18 2.51  86 2.51  40 2.51  64 2.59  10 2.59  76 2.59  30 2.59
                           162 2.99 141 2.99 168 2.99 172 3.24 179 3.24 164 3.35 140 3.35 130 3.62
 107  0.750  0.375  0.000-  71 2.51  21 2.51  83 2.51  33 2.51  61 2.59  11 2.59  79 2.59  25 2.59
                           151 2.99 154 2.99 172 3.24 179 3.24 145 3.35 139 3.35 125 3.62 132 3.62
 108  0.250  0.625  0.000-  22 2.51  72 2.51  34 2.51  84 2.51  12 2.59  62 2.59  80 2.59  26 2.59
                           155 2.99 142 2.99 143 2.99 138 2.99 160 3.35 146 3.35 126 3.62 131 3.62
 109  0.250  0.875  0.500-  69 2.51  23 2.51  81 2.51  35 2.51  59 2.59  13 2.59  73 2.59  31 2.59
                           167 2.99 170 3.24 153 3.26 158 3.35 126 3.62 131 3.62 122 3.62 136 3.62
 110  0.750  0.125  0.500-  24 2.51  70 2.51  36 2.51  82 2.51  14 2.59  60 2.59  74 2.59  32 2.59
                           163 2.99 148 2.99 173 3.24 183 3.24 125 3.62 132 3.62 122 3.62 136 3.62
 111  0.750  0.625  0.500-  19 2.51  65 2.51  37 2.51  87 2.51  15 2.59  57 2.59  77 2.59  27 2.59
                           137 2.99 173 3.24 183 3.24 144 3.35 127 3.62 130 3.62 123 3.62 133 3.62
 112  0.250  0.375  0.500-  66 2.51  20 2.51  88 2.51  38 2.51  58 2.59  16 2.59  78 2.59  28 2.59
                           147 2.99 170 3.24 149 3.26 161 3.35 157 3.35 129 3.62 128 3.62 133 3.62
 113  0.000  0.250  0.125-  25 2.51  75 2.51   1 2.51  51 2.51  41 2.59  95 2.59  17 2.59  71 2.59
                           165 2.99 169 3.24 161 3.26 142 3.35 121 3.62 134 3.62 128 3.62 125 3.62
 114  0.000  0.750  0.875-  76 2.51  26 2.51  52 2.51   2 2.51  42 2.59  96 2.59  72 2.59  18 2.59
                           158 2.99 176 3.24 168 3.26 138 3.26 166 3.35 151 3.35 121 3.62 134 3.62
 115  0.000  0.750  0.375-  77 2.51  31 2.51  55 2.51   5 2.51  45 2.59  91 2.59  69 2.59  19 2.59
                           140 2.99 176 3.24 160 3.26 137 3.26 147 3.35 163 3.35 123 3.62 136 3.62
 116  0.000  0.250  0.625-  32 2.51  78 2.51   6 2.51  56 2.51  46 2.59  92 2.59  20 2.59  70 2.59
                           139 2.99 152 2.99 169 3.24 148 3.26 167 3.35 136 3.62 123 3.62 129 3.62
 117  0.500  0.250  0.875-  79 2.51  29 2.51  53 2.51   7 2.51  43 2.59  93 2.59  67 2.59  21 2.59
                           157 2.99 156 2.99 178 3.24 182 3.24 155 3.35 162 3.35 124 3.62 135 3.62
 118  0.500  0.750  0.125-  30 2.51  80 2.51   8 2.51  54 2.51  44 2.59  94 2.59  22 2.59  68 2.59
                           144 2.99 184 3.24 185 3.24 143 3.26 141 3.26 150 3.35 154 3.35 135 3.62
 119  0.500  0.750  0.625-  27 2.51  73 2.51   3 2.51  49 2.51  47 2.59  89 2.59  23 2.59  65 2.59
                           164 2.99 153 2.99 184 3.24 185 3.24 146 3.26 149 3.35 122 3.62 133 3.62
 120  0.500  0.250  0.375-  74 2.51  28 2.51  50 2.51   4 2.51  48 2.59  90 2.59  66 2.59  24 2.59
                           178 3.24 182 3.24 159 3.26 145 3.26 122 3.62 133 3.62 128 3.62 125 3.62
 121  0.000  0.000  0.000-  96 2.11  95 2.11  76 2.11  75 2.11  86 2.11  85 2.11 166 2.91 140 3.11
                           152 3.11 138 3.11 113 3.62 114 3.62  97 3.62  98 3.62 105 3.62 106 3.62
 122  0.500  0.000  0.500-  89 2.11  90 2.11  73 2.11  74 2.11  82 2.11  81 2.11 119 3.62 120 3.62
                           185 3.62 100 3.62  99 3.62 110 3.62 109 3.62
 123  0.000  0.500  0.500-  92 2.11  91 2.11  77 2.11  78 2.11  87 2.11  88 2.11 161 2.91 147 2.91
                           148 3.11 116 3.62 115 3.62 102 3.62 101 3.62 186 3.62 111 3.62 112 3.62
 124  0.500  0.500  0.000-  93 2.11  94 2.11  80 2.11  79 2.11  83 2.11  84 2.11 145 2.91 146 2.91
                           156 2.91 155 2.91 154 2.91 141 3.11 117 3.62 118 3.62 184 3.62 104 3.62
 125  0.750  0.250  0.250-  14 2.11  61 2.11  71 2.11  24 2.11   4 2.11  51 2.11 148 2.91 145 3.11
                           107 3.62 110 3.62 100 3.62 101 3.62 113 3.62 120 3.62
 126  0.250  0.750  0.750-  13 2.11  62 2.11  23 2.11  72 2.11  52 2.11   3 2.11 149 2.91 143 2.91
                           158 2.91 166 3.11 146 3.11 109 3.62 108 3.62 102 3.62  99 3.62 119 3.62
 127  0.750  0.750  0.750-  10 2.11  57 2.11  18 2.11  65 2.11   2 2.11  49 2.11 137 2.91 141 2.91
                           164 2.91 151 3.11 106 3.62 111 3.62  98 3.62 103 3.62 114 3.62 119 3.62
 128  0.250  0.250  0.250-   9 2.11  58 2.11  17 2.11  66 2.11   1 2.11  50 2.11 142 3.11 156 3.11
                           159 3.11 161 3.11 105 3.62 112 3.62  97 3.62 104 3.62 186 3.62 120 3.62
 129  0.250  0.250  0.750-  63 2.11  16 2.11  20 2.11  67 2.11   6 2.11  53 2.11 152 2.91 157 2.91
                           155 3.11 167 3.11 165 3.11 112 3.62 105 3.62 102 3.62  99 3.62 117 3.62
 130  0.750  0.750  0.250-  15 2.11  64 2.11  68 2.11  19 2.11   5 2.11  54 2.11 168 2.91 144 2.91
                           140 2.91 154 3.11 163 3.11 111 3.62 106 3.62 101 3.62 100 3.62 118 3.62
 131  0.250  0.750  0.250-  12 2.11  59 2.11  22 2.11  69 2.11  55 2.11   8 2.11 138 2.91 150 3.11
                           147 3.11 153 3.11 160 3.11 109 3.62 108 3.62 104 3.62  97 3.62 186 3.62
 132  0.750  0.250  0.750-  60 2.11  11 2.11  21 2.11  70 2.11   7 2.11  56 2.11 139 2.91 162 3.11
                           107 3.62 110 3.62  98 3.62 103 3.62 116 3.62 117 3.62
 133  0.500  0.500  0.500-  47 2.11  48 2.11  27 2.11  28 2.11  37 2.11  38 2.11 153 2.91 144 3.11
                           157 3.11 149 3.11 119 3.62 120 3.62 185 3.62 104 3.62 103 3.62 112 3.62
 134  0.000  0.500  0.000-  42 2.11  41 2.11  26 2.11  25 2.11  33 2.11  34 2.11 160 2.91 165 2.91
                           142 2.91 151 2.91 139 3.11 168 3.11 113 3.62 114 3.62 101 3.62 102 3.62
 135  0.500  0.000  0.000-  43 2.11  44 2.11  30 2.11  29 2.11  40 2.11  39 2.11 159 2.91 150 2.91
                           162 2.91 164 3.11 143 3.11 118 3.62 117 3.62 184 3.62  99 3.62 100 3.62
 136  0.000  0.000  0.500-  46 2.11  45 2.11  31 2.11  32 2.11  36 2.11  35 2.11 167 2.91 163 2.91
                           158 3.11 137 3.11 115 3.62 116 3.62  97 3.62  98 3.62 109 3.62 110 3.62
 137  0.849  0.824  0.562- 173 1.66  36 1.87  65 2.12   2 2.14  19 2.25 176 2.33 163 2.52  77 2.61
                           127 2.91 111 2.99 136 3.11 158 3.15 115 3.26  98 3.35
 138  0.151  0.824  0.062-  85 1.87  22 2.12  55 2.14  72 2.25 166 2.52 150 2.52  26 2.61 131 2.91
                           108 2.99 143 3.04 121 3.11 140 3.15 114 3.26  97 3.35
 139  0.938  0.349  0.824- 169 1.66  25 1.87  56 2.12  11 2.14   6 2.25 175 2.33 165 2.52  92 2.61
                           132 2.91 116 2.99 152 3.04 134 3.11 102 3.26 107 3.35
 140  0.938  0.849  0.176-  76 1.87   5 2.12  64 2.14  55 2.25 180 2.33  45 2.61 130 2.91 168 2.92
                           115 2.99 121 3.11 138 3.15  97 3.26 106 3.35
 141  0.651  0.676  0.938- 172 1.66  83 1.87  18 2.12  49 2.14  68 2.25 184 2.33 154 2.52 151 2.52
                            30 2.61 127 2.91 164 2.92 106 2.99 168 3.04 124 3.11 118 3.26 103 3.35
 142  0.188  0.426  0.099-  17 1.87  34 2.12  41 2.14  84 2.25 186 2.33  12 2.61 134 2.91 165 2.92
                           160 2.92 108 2.99 155 3.04 128 3.11 161 3.15 156 3.15 104 3.26 113 3.35
 143  0.349  0.824  0.938-  39 1.87  72 2.12   3 2.14  22 2.25 184 2.33 150 2.52 166 2.52  80 2.61
                           126 2.91 108 2.99 138 3.04 135 3.11 164 3.15 118 3.26  99 3.35
 144  0.562  0.651  0.324- 185 1.66  27 1.87  54 2.12  15 2.14   8 2.25 177 2.33 153 2.52  94 2.61
                           130 2.91 118 2.99 133 3.11 104 3.26 111 3.35
 145  0.574  0.401  0.188- 177 1.66  61 1.88  94 2.12  79 2.14  48 2.25 182 2.33  50 2.61 124 2.91
                           154 2.92 156 2.92 104 2.99 125 3.11 120 3.26 107 3.35
 146  0.426  0.599  0.812- 171 1.66  62 1.88  93 2.12  80 2.14  47 2.25 184 2.33 149 2.52  49 2.61
                           124 2.91 155 2.92 103 2.99 126 3.11 119 3.26 108 3.35
 147  0.188  0.574  0.401-  69 1.87  88 2.12  91 2.14  38 2.25 186 2.33  58 2.61 123 2.91 161 2.92
                           112 2.99 131 3.11 160 3.15 153 3.15 104 3.26 115 3.35
 148  0.849  0.324  0.438- 183 1.66  87 1.87  24 2.12  51 2.14  70 2.25  32 2.61 125 2.91 110 2.99
                           123 3.11 116 3.26 101 3.35
 149  0.324  0.562  0.651- 171 1.66  47 1.88  62 2.12  23 2.14  16 2.25 146 2.52  88 2.61 126 2.91
                           102 2.99 133 3.11 157 3.15 112 3.26 119 3.35
 150  0.312  0.926  0.099-  22 1.87  39 2.12  44 2.14  85 2.25 143 2.52 138 2.52   9 2.61 135 2.91
                           159 2.92 105 2.99 166 3.04 131 3.11  97 3.26 118 3.35
 151  0.812  0.574  0.901- 172 1.66  18 1.87  33 2.12  42 2.14  83 2.25 175 2.33 168 2.52 141 2.52
                            11 2.61 134 2.91 107 2.99 154 3.04 127 3.11 103 3.26 114 3.35
 152  0.062  0.151  0.824- 169 1.66  75 1.87   6 2.12  63 2.14  56 2.25 174 2.33 165 2.52  46 2.61
                           129 2.91 116 2.99 139 3.04 121 3.11  98 3.26 105 3.35
 153  0.401  0.688  0.426- 185 1.66   8 1.87  27 2.12  38 2.14  73 2.25 144 2.52  23 2.61 133 2.91
                           119 2.99 131 3.11 147 3.15 109 3.26 104 3.35
 154  0.688  0.574  0.099- 172 1.66  68 1.87  83 2.12  94 2.14  33 2.25 177 2.33 141 2.52 168 2.52
                            61 2.61 124 2.91 145 2.92 107 2.99 151 3.04 130 3.11 101 3.26 118 3.35
 155  0.312  0.426  0.901-  67 1.87  84 2.12  93 2.14  34 2.25 171 2.33  62 2.61 124 2.91 156 2.92
                           146 2.92 108 2.99 142 3.04 129 3.11 165 3.15 102 3.26 117 3.35
 156  0.401  0.312  0.074- 182 1.66  50 1.87  79 2.12  84 2.14  29 2.25  67 2.61 124 2.91 155 2.92
                           145 2.92 117 2.99 128 3.11 159 3.15 142 3.15 105 3.26 104 3.35
 157  0.438  0.349  0.676- 178 1.66  28 1.87  53 2.12  16 2.14   7 2.25 171 2.33  93 2.61 129 2.91
                           117 2.99 133 3.11 149 3.15 103 3.26 112 3.35
 158  0.062  0.849  0.676- 176 1.66  31 1.87  52 2.12  13 2.14   2 2.25 174 2.33  96 2.61 126 2.91
                           114 2.99 136 3.11 137 3.15  98 3.26 109 3.35
 159  0.426  0.099  0.188-   9 1.88  44 2.12  29 2.14  90 2.25 182 2.33   4 2.61 135 2.91 150 2.92
                           100 2.99 128 3.11 156 3.15 120 3.26 105 3.35
 160  0.074  0.599  0.188- 186 1.66  12 1.88  41 2.12  26 2.14  91 2.25   5 2.61 134 2.91 142 2.92
                           101 2.99 161 3.04 131 3.11 147 3.15 115 3.26 108 3.35
 161  0.074  0.401  0.312- 186 1.66  58 1.88  91 2.12  78 2.14  41 2.25  51 2.61 123 2.91 147 2.92
                           101 2.99 160 3.04 128 3.11 142 3.15 113 3.26 112 3.35
 162  0.688  0.074  0.901- 179 1.66  21 1.87  40 2.12  43 2.14  86 2.25 181 2.33  10 2.61 135 2.91
                           106 2.99 132 3.11  98 3.26 117 3.35
 163  0.812  0.926  0.401- 173 1.66  19 1.87  36 2.12  45 2.14  82 2.25 180 2.33 137 2.52  14 2.61
                           136 2.91 110 2.99 130 3.11 100 3.26 115 3.35
 164  0.562  0.849  0.824- 184 1.66  30 1.87  49 2.12  10 2.14   3 2.25 181 2.33  89 2.61 127 2.91
                           141 2.92 119 2.99 135 3.11 143 3.15  99 3.26 106 3.35
 165  0.099  0.312  0.926- 169 1.66   6 1.87  25 2.12  34 2.14  75 2.25 152 2.52 139 2.52  17 2.61
                           134 2.91 142 2.92 113 2.99 129 3.11 155 3.15 105 3.26 102 3.35
 166  0.188  0.926  0.901-  72 1.87  85 2.12  96 2.14  39 2.25 174 2.33 138 2.52 143 2.52  63 2.61
                           121 2.91 105 2.99 150 3.04 126 3.11  99 3.26 114 3.35
 167  0.188  0.074  0.599- 170 1.66  20 1.87  35 2.12  46 2.14  81 2.25 174 2.33  13 2.61 136 2.91
                           109 2.99 129 3.11  99 3.26 116 3.35
 168  0.849  0.676  0.062- 172 1.66  33 1.87  68 2.12   5 2.14  18 2.25 151 2.52 154 2.52  76 2.61
                           130 2.91 140 2.92 106 2.99 141 3.04 134 3.11 114 3.26 101 3.35
 169  0.000  0.250  0.875- 139 1.66 152 1.66 165 1.66  25 1.91  75 1.91   6 1.91  56 1.91 116 3.24
                           113 3.24
 170  0.250  0.125  0.500- 167 1.66  66 1.91  20 1.91  81 1.91  35 1.91 112 3.24 109 3.24
 171  0.375  0.500  0.750- 146 1.66 149 1.66  16 1.91  47 1.91  62 1.91  93 1.91 155 2.33 157 2.33
                           102 3.24 103 3.24
 172  0.750  0.625  0.000- 151 1.66 154 1.66 141 1.66 168 1.66  68 1.91  18 1.91  83 1.91  33 1.91
                           106 3.24 107 3.24
 173  0.750  0.875  0.500- 163 1.66 137 1.66  19 1.91  65 1.91  36 1.91  82 1.91 110 3.24 111 3.24

 174  0.125  0.000  0.750-  63 1.91  13 1.91  96 1.91  46 1.91 152 2.33 158 2.33 166 2.33 167 2.33
                            98 3.24  99 3.24
 175  0.875  0.500  0.750-  11 1.91  42 1.91  57 1.91  92 1.91 139 2.33 151 2.33 102 3.24 103 3.24

 176  0.000  0.750  0.625- 158 1.66  77 1.91  31 1.91  52 1.91   2 1.91 137 2.33 114 3.24 115 3.24

 177  0.625  0.500  0.250- 145 1.66  94 1.91  48 1.91  61 1.91  15 1.91 154 2.33 144 2.33 104 3.24
                           101 3.24
 178  0.500  0.250  0.625- 157 1.66  74 1.91  28 1.91  53 1.91   7 1.91 120 3.24 117 3.24
 179  0.750  0.125  0.000- 162 1.66  71 1.91  21 1.91  86 1.91  40 1.91 107 3.24 106 3.24
 180  0.875  0.000  0.250-  45 1.91  95 1.91  14 1.91  64 1.91 140 2.33 163 2.33  97 3.24 100 3.24

 181  0.625  0.000  0.750-  60 1.91  10 1.91  89 1.91  43 1.91 162 2.33 164 2.33  98 3.24  99 3.24

 182  0.500  0.250  0.125- 156 1.66  79 1.91  29 1.91  50 1.91   4 1.91 159 2.33 145 2.33 120 3.24
                           117 3.24
 183  0.750  0.375  0.500- 148 1.66  24 1.91  70 1.91  37 1.91  87 1.91 111 3.24 110 3.24
 184  0.500  0.750  0.875- 164 1.66  30 1.91  80 1.91   3 1.91  49 1.91 146 2.33 141 2.33 143 2.33
                           118 3.24 119 3.24 124 3.62 135 3.62 127 3.62 126 3.62
 185  0.500  0.750  0.375- 144 1.66 153 1.66  27 1.91  73 1.91   8 1.91  54 1.91 118 3.24 119 3.24
                           122 3.62 133 3.62 131 3.62 130 3.62
 186  0.125  0.500  0.250- 160 1.66 161 1.66  91 1.91  58 1.91  41 1.91  12 1.91 142 2.33 147 2.33
                           101 3.24 104 3.24 123 3.62 128 3.62 131 3.62 134 3.62
 

IMPORTANT INFORMATION: All symmetrisations will be switched off!
NOSYMM: (Re-)initialisation of all symmetry stuff for point group C_1.

 
 
 KPOINTS: K-Points                                

Automatic generation of k-mesh.
Space group operators:
 irot       det(A)        alpha          n_x          n_y          n_z        tau_x        tau_y        tau_z
    1     1.000000     0.000000     1.000000     0.000000     0.000000     0.000000     0.000000     0.000000
 
 Subroutine IBZKPT returns following result:
 ===========================================
 
 Found      1 irreducible k-points:
 
 Following reciprocal coordinates:
            Coordinates               Weight
  0.000000  0.000000  0.000000      1.000000
 
 Following cartesian coordinates:
            Coordinates               Weight
  0.000000  0.000000  0.000000      1.000000
 


--------------------------------------------------------------------------------------------------------




 Dimension of arrays:
   k-points           NKPTS =      1   k-points in BZ     NKDIM =      1   number of bands    NBANDS=    656
   number of dos      NEDOS =    301   number of ions     NIONS =    186
   non local maximal  LDIM  =      8   non local SUM 2l+1 LMDIM =     32
   total plane-waves  NPLWV = 884736
   max r-space proj   IRMAX =   7820   max aug-charges    IRDMAX=  21410
   dimension x,y,z NGX =    96 NGY =   96 NGZ =   96
   dimension x,y,z NGXF=   192 NGYF=  192 NGZF=  192
   support grid    NGXF=   192 NGYF=  192 NGZF=  192
   ions per type =              96  24  16  47   3
   NGX,Y,Z   is equivalent  to a cutoff of  12.31, 12.31, 12.31 a.u.
   NGXF,Y,Z  is equivalent  to a cutoff of  24.62, 24.62, 24.62 a.u.

 SYSTEM =  unknown system                          
 POSCAR =  LLZO_Ia3d_Al30_partial_99               

 Startparameter for this run:
   NWRITE =      2    write-flag & timer
   PREC   = accura    normal or accurate (medium, high low for compatibility)
   ISTART =      0    job   : 0-new  1-cont  2-samecut
   ICHARG =      2    charge: 1-file 2-atom 10-const
   ISPIN  =      1    spin polarized calculation?
   LNONCOLLINEAR =      F non collinear calculations
   LSORBIT =      F    spin-orbit coupling
   INIWAV =      1    electr: 0-lowe 1-rand  2-diag
   LASPH  =      F    aspherical Exc in radial PAW
   METAGGA=      F    non-selfconsistent MetaGGA calc.

 Electronic Relaxation 1
   ENCUT  =  500.0 eV  36.75 Ry    6.06 a.u.  23.64 23.64 23.64*2*pi/ulx,y,z
   ENINI  =  500.0     initial cutoff
   ENAUG  =  605.4 eV  augmentation charge cutoff
   NELM   =     60;   NELMIN=  2; NELMDL=  0     # of ELM steps 
   EDIFF  = 0.1E-05   stopping-criterion for ELM
   LREAL  =      T    real-space projection
   NLSPLINE    = F    spline interpolate recip. space projectors
   LCOMPAT=      F    compatible to vasp.4.4
   GGA_COMPAT  = T    GGA compatible to vasp.4.4-vasp.4.6
   LMAXPAW     = -100 max onsite density
   LMAXMIX     =    2 max onsite mixed and CHGCAR
   VOSKOWN=      0    Vosko Wilk Nusair interpolation
   ROPT   =   -0.00025  -0.00025  -0.00025  -0.00025
   ROPT   =   -0.00025
 Ionic relaxation
   EDIFFG = -.1E-01   stopping-criterion for IOM
   NSW    =     20    number of steps for IOM
   NBLOCK =      1;   KBLOCK =     20    inner block; outer block 
   IBRION =      1    ionic relax: 0-MD 1-quasi-New 2-CG
   NFREE  =      0    steps in history (QN), initial steepest desc. (CG)
   ISIF   =      2    stress and relaxation
   IWAVPR =     11    prediction:  0-non 1-charg 2-wave 3-comb
   ISYM   =      0    0-nonsym 1-usesym 2-fastsym
   LCORR  =      T    Harris-Foulkes like correction to forces

   POTIM  = 0.5000    time-step for ionic-motion
   TEIN   =    0.0    initial temperature
   TEBEG  =    0.0;   TEEND  =   0.0 temperature during run
   SMASS  =  -3.00    Nose mass-parameter (am)
   estimated Nose-frequenzy (Omega)   =  0.10E-29 period in steps =****** mass=  -0.384E-26a.u.
   SCALEE = 1.0000    scale energy and forces
   NPACO  =    256;   APACO  = 16.0  distance and # of slots for P.C.
   PSTRESS=    0.0 pullay stress

  Mass of Ions in am
   POMASS =  16.00138.90 91.22  7.01 26.98
  Ionic Valenz
   ZVAL   =   6.00 11.00 12.00  1.00  3.00
  Atomic Wigner-Seitz radii
   RWIGS  =  -1.00 -1.00 -1.00 -1.00 -1.00
  virtual crystal weights 
   VCA    =   1.00  1.00  1.00  1.00  1.00
   NELECT =    1088.0000    total number of electrons
   NUPDOWN=      -1.0000    fix difference up-down

 DOS related values:
   EMIN   =  10.00;   EMAX   =-10.00  energy-range for DOS
   EFERMI =   0.00
   ISMEAR =     0;   SIGMA  =   0.20  broadening in eV -4-tet -1-fermi 0-gaus

 Electronic relaxation 2 (details)
   IALGO  =     38    algorithm
   LDIAG  =      T    sub-space diagonalisation (order eigenvalues)
   LSUBROT=      F    optimize rotation matrix (better conditioning)
   TURBO    =      0    0=normal 1=particle mesh
   IRESTART =      0    0=no restart 2=restart with 2 vectors
   NREBOOT  =      0    no. of reboots
   NMIN     =      0    reboot dimension
   EREF     =   0.00    reference energy to select bands
   IMIX   =      4    mixing-type and parameters
     AMIX     =   0.40;   BMIX     =  1.00
     AMIX_MAG =   1.60;   BMIX_MAG =  1.00
     AMIN     =   0.10
     WC   =   100.;   INIMIX=   1;  MIXPRE=   1;  MAXMIX= -45

 Intra band minimization:
   WEIMIN = 0.0010     energy-eigenvalue tresh-hold
   EBREAK =  0.38E-09  absolut break condition
   DEPER  =   0.30     relativ break condition  

   TIME   =   0.40     timestep for ELM

  volume/ion in A,a.u.               =      11.72        79.07
  Fermi-wavevector in a.u.,A,eV,Ry     =   1.298703  2.454192 22.947972  1.686628
  Thomas-Fermi vector in A             =   2.430014
 
 Write flags
   LWAVE        =      F    write WAVECAR
   LDOWNSAMPLE  =      F    k-point downsampling of WAVECAR
   LCHARG       =      F    write CHGCAR
   LVTOT        =      F    write LOCPOT, total local potential
   LVHAR        =      F    write LOCPOT, Hartree potential only
   LELF         =      F    write electronic localiz. function (ELF)
   LORBIT       =      0    0 simple, 1 ext, 2 COOP (PROOUT), +10 PAW based schemes


 Dipole corrections
   LMONO  =      F    monopole corrections only (constant potential shift)
   LDIPOL =      F    correct potential (dipole corrections)
   IDIPOL =      0    1-x, 2-y, 3-z, 4-all directions 
   EPSILON=  1.0000000 bulk dielectric constant

 Exchange correlation treatment:
   GGA     =    --    GGA type
   LEXCH   =     8    internal setting for exchange type
   VOSKOWN=      0    Vosko Wilk Nusair interpolation
   LHFCALC =     F    Hartree Fock is set to
   LHFONE  =     F    Hartree Fock one center treatment
   AEXX    =    0.0000 exact exchange contribution

 Linear response parameters
   LEPSILON=     F    determine dielectric tensor
   LRPA    =     F    only Hartree local field effects (RPA)
   LNABLA  =     F    use nabla operator in PAW spheres
   LVEL    =     F    velocity operator in full k-point grid
   LINTERFAST=   F  fast interpolation
   KINTER  =     0    interpolate to denser k-point grid
   CSHIFT  =0.1000    complex shift for real part using Kramers Kronig
   OMEGAMAX=  -1.0    maximum frequency
   DEG_THRESHOLD= 0.2000000E-02 threshold for treating states as degnerate
   RTIME   =   -0.100 relaxation time in fs
  (WPLASMAI=    0.000 imaginary part of plasma frequency in eV, 0.658/RTIME)
   DFIELD  = 0.0000000 0.0000000 0.0000000 field for delta impulse in time
 
 Orbital magnetization related:
   ORBITALMAG=     F  switch on orbital magnetization
   LCHIMAG   =     F  perturbation theory with respect to B field
   DQ        =  0.001000  dq finite difference perturbation B field
   LLRAUG    =     F  two centre corrections for induced B field



--------------------------------------------------------------------------------------------------------


 quasi-Newton-method for relaxation of ions
 charge density and potential will be updated during run
 non-spin polarized calculation
 Variant of blocked Davidson
 Davidson routine will perform the subspace rotation
 perform sub-space diagonalisation
    after iterative eigenvector-optimisation
 modified Broyden-mixing scheme, WC =      100.0
 initial mixing is a Kerker type mixing with AMIX =  0.4000 and BMIX =      1.0000
 Hartree-type preconditioning will be used
 using additional bands          112
 real space projection scheme for non local part
 use partial core corrections
 calculate Harris-corrections to forces 
   (improved forces if not selfconsistent)
 use gradient corrections 
 use of overlap-Matrix (Vanderbilt PP)
 Gauss-broadening in eV      SIGMA  =   0.20


--------------------------------------------------------------------------------------------------------


  energy-cutoff  :      500.00
  volume of cell :     2179.34
      direct lattice vectors                 reciprocal lattice vectors
    12.965200424  0.000000000  0.000000000     0.077129544  0.000000000  0.000000000
     0.000000000 12.965000153  0.000000000     0.000000000  0.077130736  0.000000000
     0.000000000  0.000000000 12.965000153     0.000000000  0.000000000  0.077130736

  length of vectors
    12.965200424 12.965000153 12.965000153     0.077129544  0.077130736  0.077130736


 
 k-points in units of 2pi/SCALE and weight: K-Points                                
   0.00000000  0.00000000  0.00000000       1.000
 
 k-points in reciprocal lattice and weights: K-Points                                
   0.00000000  0.00000000  0.00000000       1.000
 
 position of ions in fractional coordinates (direct lattice) 
   0.10000000  0.19560000  0.28160000
   0.89999998  0.80439997  0.71840000
   0.40000001  0.80439997  0.78160000
   0.60000002  0.19560000  0.21840000
   0.89999998  0.69560003  0.21840000
   0.10000000  0.30440000  0.78160000
   0.60000002  0.30440000  0.71840000
   0.40000001  0.69560003  0.28160000
   0.28160000  0.10000000  0.19560000
   0.71840000  0.89999998  0.80439997
   0.78160000  0.40000001  0.80439997
   0.21840000  0.60000002  0.19560000
   0.21840000  0.89999998  0.69560003
   0.78160000  0.10000000  0.30440000
   0.71840000  0.60000002  0.30440000
   0.28160000  0.40000001  0.69560003
   0.19560000  0.28160000  0.10000000
   0.80439997  0.71840000  0.89999998
   0.80439997  0.78160000  0.40000001
   0.19560000  0.21840000  0.60000002
   0.69560003  0.21840000  0.89999998
   0.30440000  0.78160000  0.10000000
   0.30440000  0.71840000  0.60000002
   0.69560003  0.28160000  0.40000001
   0.94560003  0.34999999  0.96840000
   0.05440000  0.64999998  0.03160000
   0.55439997  0.64999998  0.46840000
   0.44560000  0.34999999  0.53160000
   0.44560000  0.15000001  0.03160000
   0.55439997  0.85000002  0.96840000
   0.05440000  0.85000002  0.53160000
   0.94560003  0.15000001  0.46840000
   0.85000002  0.53160000  0.05440000
   0.15000001  0.46840000  0.94560003
   0.15000001  0.03160000  0.44560000
   0.85000002  0.96840000  0.55439997
   0.64999998  0.46840000  0.55439997
   0.34999999  0.53160000  0.44560000
   0.34999999  0.96840000  0.94560003
   0.64999998  0.03160000  0.05440000
   0.03160000  0.44560000  0.15000001
   0.96840000  0.55439997  0.85000002
   0.53160000  0.05440000  0.85000002
   0.46840000  0.94560003  0.15000001
   0.96840000  0.94560003  0.34999999
   0.03160000  0.05440000  0.64999998
   0.46840000  0.55439997  0.64999998
   0.53160000  0.44560000  0.34999999
   0.60000002  0.69560003  0.78160000
   0.40000001  0.30440000  0.21840000
   0.89999998  0.30440000  0.28160000
   0.10000000  0.69560003  0.71840000
   0.40000001  0.19560000  0.71840000
   0.60000002  0.80439997  0.28160000
   0.10000000  0.80439997  0.21840000
   0.89999998  0.19560000  0.78160000
   0.78160000  0.60000002  0.69560003
   0.21840000  0.40000001  0.30440000
   0.28160000  0.89999998  0.30440000
   0.71840000  0.10000000  0.69560003
   0.71840000  0.40000001  0.19560000
   0.28160000  0.60000002  0.80439997
   0.21840000  0.10000000  0.80439997
   0.78160000  0.89999998  0.19560000
   0.69560003  0.78160000  0.60000002
   0.30440000  0.21840000  0.40000001
   0.30440000  0.28160000  0.89999998
   0.69560003  0.71840000  0.10000000
   0.19560000  0.71840000  0.40000001
   0.80439997  0.28160000  0.60000002
   0.80439997  0.21840000  0.10000000
   0.19560000  0.78160000  0.89999998
   0.44560000  0.85000002  0.46840000
   0.55439997  0.15000001  0.53160000
   0.05440000  0.15000001  0.96840000
   0.94560003  0.85000002  0.03160000
   0.94560003  0.64999998  0.53160000
   0.05440000  0.34999999  0.46840000
   0.55439997  0.34999999  0.03160000
   0.44560000  0.64999998  0.96840000
   0.34999999  0.03160000  0.55439997
   0.64999998  0.96840000  0.44560000
   0.64999998  0.53160000  0.94560003
   0.34999999  0.46840000  0.05440000
   0.15000001  0.96840000  0.05440000
   0.85000002  0.03160000  0.94560003
   0.85000002  0.46840000  0.44560000
   0.15000001  0.53160000  0.55439997
   0.53160000  0.94560003  0.64999998
   0.46840000  0.05440000  0.34999999
   0.03160000  0.55439997  0.34999999
   0.96840000  0.44560000  0.64999998
   0.46840000  0.44560000  0.85000002
   0.53160000  0.55439997  0.15000001
   0.96840000  0.05440000  0.15000001
   0.03160000  0.94560003  0.85000002
   0.12500000  0.00000000  0.25000000
   0.87500000  0.00000000  0.75000000
   0.37500000  0.00000000  0.75000000
   0.62500000  0.00000000  0.25000000
   0.87500000  0.50000000  0.25000000
   0.12500000  0.50000000  0.75000000
   0.62500000  0.50000000  0.75000000
   0.37500000  0.50000000  0.25000000
   0.25000000  0.12500000  0.00000000
   0.75000000  0.87500000  0.00000000
   0.75000000  0.37500000  0.00000000
   0.25000000  0.62500000  0.00000000
   0.25000000  0.87500000  0.50000000
   0.75000000  0.12500000  0.50000000
   0.75000000  0.62500000  0.50000000
   0.25000000  0.37500000  0.50000000
   0.00000000  0.25000000  0.12500000
   0.00000000  0.75000000  0.87500000
   0.00000000  0.75000000  0.37500000
   0.00000000  0.25000000  0.62500000
   0.50000000  0.25000000  0.87500000
   0.50000000  0.75000000  0.12500000
   0.50000000  0.75000000  0.62500000
   0.50000000  0.25000000  0.37500000
   0.00000000  0.00000000  0.00000000
   0.50000000  0.00000000  0.50000000
   0.00000000  0.50000000  0.50000000
   0.50000000  0.50000000  0.00000000
   0.75000000  0.25000000  0.25000000
   0.25000000  0.75000000  0.75000000
   0.75000000  0.75000000  0.75000000
   0.25000000  0.25000000  0.25000000
   0.25000000  0.25000000  0.75000000
   0.75000000  0.75000000  0.25000000
   0.25000000  0.75000000  0.25000000
   0.75000000  0.25000000  0.75000000
   0.50000000  0.50000000  0.50000000
   0.00000000  0.50000000  0.00000000
   0.50000000  0.00000000  0.00000000
   0.00000000  0.00000000  0.50000000
   0.84909999  0.82400000  0.56229997
   0.15090001  0.82400000  0.06230000
   0.93770003  0.34909999  0.82400000
   0.93770003  0.84909999  0.17600000
   0.65090001  0.67600000  0.93770003
   0.18770000  0.42600000  0.09910000
   0.34909999  0.82400000  0.93770003
   0.56229997  0.65090001  0.32400000
   0.57400000  0.40090001  0.18770000
   0.42600000  0.59909999  0.81229997
   0.18770000  0.57400000  0.40090001
   0.84909999  0.32400000  0.43770000
   0.32400000  0.56229997  0.65090001
   0.31230000  0.92600000  0.09910000
   0.81229997  0.57400000  0.90090001
   0.06230000  0.15090001  0.82400000
   0.40090001  0.68770003  0.42600000
   0.68770003  0.57400000  0.09910000
   0.31230000  0.42600000  0.90090001
   0.40090001  0.31230000  0.07400000
   0.43770000  0.34909999  0.67600000
   0.06230000  0.84909999  0.67600000
   0.42600000  0.09910000  0.18770000
   0.07400000  0.59909999  0.18770000
   0.07400000  0.40090001  0.31230000
   0.68770003  0.07400000  0.90090001
   0.81229997  0.92600000  0.40090001
   0.56229997  0.84909999  0.82400000
   0.09910000  0.31230000  0.92600000
   0.18770000  0.92600000  0.90090001
   0.18770000  0.07400000  0.59909999
   0.84909999  0.67600000  0.06230000
   0.00000000  0.25000000  0.87500000
   0.25000000  0.12500000  0.50000000
   0.37500000  0.50000000  0.75000000
   0.75000000  0.62500000  0.00000000
   0.75000000  0.87500000  0.50000000
   0.12500000  0.00000000  0.75000000
   0.87500000  0.50000000  0.75000000
   0.00000000  0.75000000  0.62500000
   0.62500000  0.50000000  0.25000000
   0.50000000  0.25000000  0.62500000
   0.75000000  0.12500000  0.00000000
   0.87500000  0.00000000  0.25000000
   0.62500000  0.00000000  0.75000000
   0.50000000  0.25000000  0.12500000
   0.75000000  0.37500000  0.50000000
   0.50000000  0.75000000  0.87500000
   0.50000000  0.75000000  0.37500000
   0.12500000  0.50000000  0.25000000
 
 position of ions in cartesian coordinates  (Angst):
   1.29652006  2.53595407  3.65094402
  11.66868007 10.42904569  9.31405614
   5.18608025 10.42904569 10.13344409
   7.77912057  2.53595407  2.83155606
  11.66868007  9.01845453  2.83155606
   1.29652006  3.94654601 10.13344409
   7.77912057  3.94654601  9.31405614
   5.18608025  9.01845453  3.65094402
   3.65100041  1.29650003  2.53595407
   9.31420001 11.66849983 10.42904569
  10.13360063  5.18600014 10.42904569
   2.83159980  7.77900040  2.53595407
   2.83159980 11.66849983  9.01845453
  10.13360063  1.29650003  3.94654601
   9.31420001  7.77900040  3.94654601
   3.65100041  5.18600014  9.01845453
   2.53599324  3.65094402  1.29650003
  10.42920679  9.31405614 11.66849983
  10.42920679 10.13344409  5.18600014
   2.53599324  2.83155606  7.77900040
   9.01859384  2.83155606 11.66849983
   3.94660697 10.13344409  1.29650003
   3.94660697  9.31405614  7.77900040
   9.01859384  3.65094402  5.18600014
  12.25989395  4.53774998 12.55530617
   0.70530686  8.42724979  0.40969398
   7.18790669  8.42724979  6.07280610
   5.77729335  4.53774998  6.89219406
   5.77729335  1.94475010  0.40969398
   7.18790669 11.02025044 12.55530617
   0.70530686 11.02025044  6.89219406
  12.25989395  1.94475010  6.07280610
  11.02042067  6.89219406  0.70529597
   1.94478014  6.07280610 12.25970457
   1.94478014  0.40969398  5.77720411
  11.02042067 12.55530617  7.18779566
   8.42737996  6.07280610  7.18779566
   4.53782007  6.89219406  5.77720411
   4.53782007 12.55530617 12.25970457
   8.42737996  0.40969398  0.70529597
   0.40970031  5.77720411  1.94475010
  12.55550012  7.18779566 11.02025044
   6.89230052  0.70529597 11.02025044
   6.07289990 12.25970457  1.94475010
  12.55550012 12.25970457  4.53774998
   0.40970031  0.70529597  8.42724979
   6.07289990  7.18779566  8.42724979
   6.89230052  5.77720411  4.53774998
   7.77912057  9.01845453 10.13344409
   5.18608025  3.94654601  2.83155606
  11.66868007  3.94654601  3.65094402
   1.29652006  9.01845453  9.31405614
   5.18608025  2.53595407  9.31405614
   7.77912057 10.42904569  3.65094402
   1.29652006 10.42904569  2.83155606
  11.66868007  2.53595407 10.13344409
  10.13360063  7.77900040  9.01845453
   2.83159980  5.18600014  3.94654601
   3.65100041 11.66849983  3.94654601
   9.31420001  1.29650003  9.01845453
   9.31420001  5.18600014  2.53595407
   3.65100041  7.77900040 10.42904569
   2.83159980  1.29650003 10.42904569
  10.13360063 11.66849983  2.53595407
   9.01859384 10.13344409  7.77900040
   3.94660697  2.83155606  5.18600014
   3.94660697  3.65094402 11.66849983
   9.01859384  9.31405614  1.29650003
   2.53599324  9.31405614  5.18600014
  10.42920679  3.65094402  7.77900040
  10.42920679  2.83155606  1.29650003
   2.53599324 10.13344409 11.66849983
   5.77729335 11.02025044  6.07280610
   7.18790669  1.94475010  6.89219406
   0.70530686  1.94475010 12.55530617
  12.25989395 11.02025044  0.40969398
  12.25989395  8.42724979  6.89219406
   0.70530686  4.53774998  6.07280610
   7.18790669  4.53774998  0.40969398
   5.77729335  8.42724979 12.55530617
   4.53782007  0.40969398  7.18779566
   8.42737996 12.55530617  5.77720411
   8.42737996  6.89219406 12.25970457
   4.53782007  6.07280610  0.70529597
   1.94478014 12.55530617  0.70529597
  11.02042067  0.40969398 12.25970457
  11.02042067  6.07280610  5.77720411
   1.94478014  6.89219406  7.18779566
   6.89230052 12.25970457  8.42724979
   6.07289990  0.70529597  4.53774998
   0.40970031  7.18779566  4.53774998
  12.55550012  5.77720411  8.42724979
   6.07289990  5.77720411 11.02025044
   6.89230052  7.18779566  1.94475010
  12.55550012  0.70529597  1.94475010
   0.40970031 12.25970457 11.02025044
   1.62065005  0.00000000  3.24125004
  11.34455037  0.00000000  9.72375011
   4.86195016  0.00000000  9.72375011
   8.10325027  0.00000000  3.24125004
  11.34455037  6.48250008  3.24125004
   1.62065005  6.48250008  9.72375011
   8.10325027  6.48250008  9.72375011
   4.86195016  6.48250008  3.24125004
   3.24130011  1.62062502  0.00000000
   9.72390032 11.34437513  0.00000000
   9.72390032  4.86187506  0.00000000
   3.24130011  8.10312510  0.00000000
   3.24130011 11.34437513  6.48250008
   9.72390032  1.62062502  6.48250008
   9.72390032  8.10312510  6.48250008
   3.24130011  4.86187506  6.48250008
   0.00000000  3.24125004  1.62062502
   0.00000000  9.72375011 11.34437513
   0.00000000  9.72375011  4.86187506
   0.00000000  3.24125004  8.10312510
   6.48260021  3.24125004 11.34437513
   6.48260021  9.72375011  1.62062502
   6.48260021  9.72375011  8.10312510
   6.48260021  3.24125004  4.86187506
   0.00000000  0.00000000  0.00000000
   6.48260021  0.00000000  6.48250008
   0.00000000  6.48250008  6.48250008
   6.48260021  6.48250008  0.00000000
   9.72390032  3.24125004  3.24125004
   3.24130011  9.72375011  9.72375011
   9.72390032  9.72375011  9.72375011
   3.24130011  3.24125004  3.24125004
   3.24130011  3.24125004  9.72375011
   9.72390032  9.72375011  3.24125004
   3.24130011  9.72375011  3.24125004
   9.72390032  3.24125004  9.72375011
   6.48260021  6.48250008  6.48250008
   0.00000000  6.48250008  0.00000000
   6.48260021  0.00000000  0.00000000
   0.00000000  0.00000000  6.48250008
  11.00875160 10.68316014  7.29021916
   1.95644882 10.68316014  0.80771947
  12.15746887  4.52608148 10.68316014
  12.15746887 11.00858155  2.28184001
   8.43904903  8.76434009 12.15728107
   2.43356816  5.52309005  1.28483153
   4.52615139 10.68316014 12.15728107
   7.29033177  8.43891868  4.20066006
   7.44202506  5.19766864  2.43353057
   5.52317537  7.76733151 10.53146920
   2.43356816  7.44191010  5.19766864
  11.00875160  4.20066006  5.67478061
   4.20072495  7.29021916  8.43891868
   4.04903205 12.00559013  1.28483153
  10.53163188  7.44191010 11.68016872
   0.80773195  1.95641860 10.68316014
   5.19774893  8.91603103  5.52309005
   8.91616876  7.44191010  1.28483153
   4.04903205  5.52309005 11.68016872
   5.19774893  4.04896951  0.95941002
   5.67486826  4.52608148  8.76434009
   0.80773195 11.00858155  8.76434009
   5.52317537  1.28483153  2.43353057
   0.95942484  7.76733151  2.43353057
   0.95942484  5.19766864  4.04896951
   8.91616876  0.95941002 11.68016872
  10.53163188 12.00559013  5.19766864
   7.29033177 11.00858155 10.68316014
   1.28485138  4.04896951 12.00559013
   2.43356816 12.00559013 11.68016872
   2.43356816  0.95941002  7.76733151
  11.00875160  8.76434009  0.80771947
   0.00000000  3.24125004 11.34437513
   3.24130011  1.62062502  6.48250008
   4.86195016  6.48250008  9.72375011
   9.72390032  8.10312510  0.00000000
   9.72390032 11.34437513  6.48250008
   1.62065005  0.00000000  9.72375011
  11.34455037  6.48250008  9.72375011
   0.00000000  9.72375011  8.10312510
   8.10325027  6.48250008  3.24125004
   6.48260021  3.24125004  8.10312510
   9.72390032  1.62062502  0.00000000
  11.34455037  0.00000000  3.24125004
   8.10325027  0.00000000  9.72375011
   6.48260021  3.24125004  1.62062502
   9.72390032  4.86187506  6.48250008
   6.48260021  9.72375011 11.34437513
   6.48260021  9.72375011  4.86187506
   1.62065005  6.48250008  3.24125004
 


--------------------------------------------------------------------------------------------------------


 use parallel FFT for orbitals z direction half grid
 k-point  1 :   0.0000 0.0000 0.0000  plane waves:   27734

 maximum and minimum number of plane-waves per node :      1394     1380

 maximum number of plane-waves:     27734
 maximum index in each direction: 
   IXMAX=   23   IYMAX=   23   IZMAX=   23
   IXMIN=  -23   IYMIN=  -23   IZMIN=    0


 real space projection operators:
  total allocation   :      77099.85 KBytes
  max/ min on nodes  :       4352.24       2970.84


 parallel 3D FFT for wavefunctions:
    minimum data exchange during FFTs selected (reduces bandwidth)
 parallel 3D FFT for charge:
    minimum data exchange during FFTs selected (reduces bandwidth)


 total amount of memory used by VASP MPI-rank0    47905. kBytes
=======================================================================

   base      :      30000. kBytes
   nonlr-proj:       4713. kBytes
   fftplans  :       3250. kBytes
   grid      :       7798. kBytes
   one-center:        245. kBytes
   wavefun   :       1899. kBytes
 
     INWAV:  cpu time    0.0000: real time    0.0000
 Broyden mixing: mesh for mixing (old mesh)
   NGX = 47   NGY = 47   NGZ = 47
  (NGX  =192   NGY  =192   NGZ  =192)
  gives a total of 103823 points

 initial charge density was supplied:
 charge density of overlapping atoms calculated
 number of electron    1088.0000000 magnetization 
 keeping initial charge density in first step


--------------------------------------------------------------------------------------------------------


 Maximum index for non-local projection operator          465
 Maximum index for augmentation-charges          901 (set IRDMAX)


--------------------------------------------------------------------------------------------------------


 First call to EWALD:  gamma=   0.137
 Maximum number of real-space cells 3x 3x 3
 Maximum number of reciprocal cells 3x 3x 3

    FEWALD:  cpu time    0.0057: real time    0.0058


--------------------------------------- Iteration      1(   1)  ---------------------------------------


    POTLOK:  cpu time    0.0613: real time    0.0633
    SETDIJ:  cpu time    0.0170: real time    0.0172
     EDDAV:  cpu time    1.6946: real time    1.7109
       DOS:  cpu time    0.0009: real time    0.0009
    --------------------------------------------
      LOOP:  cpu time    1.7738: real time    1.7923

 eigenvalue-minimisations  :  1584
 total energy-change (2. order) : 0.2532221E+05  (-0.4205294E+05)
 number of electron    1088.0000000 magnetization 
 augmentation part     1088.0000000 magnetization 

 Free energy of the ion-electron system (eV)
  ---------------------------------------------------
  alpha Z        PSCENC =      3508.59650130
  Ewald energy   TEWEN  =    -65642.91765314
  -Hartree energ DENC   =    -19483.22389258
  -exchange      EXHF   =         0.00000000
  -V(xc)+E(xc)   XCENC  =      3949.68730814
  PAW double counting   =     65346.33952494   -64842.35312598
  entropy T*S    EENTRO =        -0.10250663
  eigenvalues    EBANDS =     19239.36507356
  atomic energy  EATOM  =     83246.81458859
  Solvation  Ediel_sol  =         0.00000000
  ---------------------------------------------------
  free energy    TOTEN  =     25322.20581820 eV

  energy without entropy =    25322.30832483  energy(sigma->0) =    25322.25707152


--------------------------------------------------------------------------------------------------------




--------------------------------------- Iteration      1(   2)  ---------------------------------------


     EDDAV:  cpu time    1.5706: real time    1.5844
       DOS:  cpu time    0.0006: real time    0.0006
    --------------------------------------------
      LOOP:  cpu time    1.5712: real time    1.5850

 eigenvalue-minimisations  :  1424
 total energy-change (2. order) :-0.1586877E+05  (-0.1462395E+05)
 number of electron    1088.0000000 magnetization 
 augmentation part     1088.0000000 magnetization 

 Free energy of the ion-electron system (eV)
  ---------------------------------------------------
  alpha Z        PSCENC =      3508.59650130
  Ewald energy   TEWEN  =    -65642.91765314
  -Hartree energ DENC   =    -19483.22389258
  -exchange      EXHF   =         0.00000000
  -V(xc)+E(xc)   XCENC  =      3949.68730814
  PAW double counting   =     65346.33952494   -64842.35312598
  entropy T*S    EENTRO =        -0.39142879
  eigenvalues    EBANDS =      3370.87899981
  atomic energy  EATOM  =     83246.81458859
  Solvation  Ediel_sol  =         0.00000000
  ---------------------------------------------------
  free energy    TOTEN  =      9453.43082229 eV

  energy without entropy =     9453.82225109  energy(sigma->0) =     9453.62653669


--------------------------------------------------------------------------------------------------------




--------------------------------------- Iteration      1(   3)  ---------------------------------------


     EDDAV:  cpu time    1.6176: real time    1.6349
       DOS:  cpu time    0.0008: real time    0.0008
    --------------------------------------------
      LOOP:  cpu time    1.6185: real time    1.6357

 eigenvalue-minimisations  :  1528
 total energy-change (2. order) :-0.6793171E+04  (-0.6191630E+04)
 number of electron    1088.0000000 magnetization 
 augmentation part     1088.0000000 magnetization 

 Free energy of the ion-electron system (eV)
  ---------------------------------------------------
  alpha Z        PSCENC =      3508.59650130
  Ewald energy   TEWEN  =    -65642.91765314
  -Hartree energ DENC   =    -19483.22389258
  -exchange      EXHF   =         0.00000000
  -V(xc)+E(xc)   XCENC  =      3949.68730814
  PAW double counting   =     65346.33952494   -64842.35312598
  entropy T*S    EENTRO =        -1.72543820
  eigenvalues    EBANDS =     -3420.95812211
  atomic energy  EATOM  =     83246.81458859
  Solvation  Ediel_sol  =         0.00000000
  ---------------------------------------------------
  free energy    TOTEN  =      2660.25969096 eV

  energy without entropy =     2661.98512916  energy(sigma->0) =     2661.12241006


--------------------------------------------------------------------------------------------------------




--------------------------------------- Iteration      1(   4)  ---------------------------------------


     EDDAV:  cpu time    2.0185: real time    2.0361
       DOS:  cpu time    0.0010: real time    0.0010
    --------------------------------------------
      LOOP:  cpu time    2.0195: real time    2.0370

 eigenvalue-minimisations  :  2040
 total energy-change (2. order) :-0.3017450E+04  (-0.2816621E+04)
 number of electron    1088.0000000 magnetization 
 augmentation part     1088.0000000 magnetization 

 Free energy of the ion-electron system (eV)
  ---------------------------------------------------
  alpha Z        PSCENC =      3508.59650130
  Ewald energy   TEWEN  =    -65642.91765314
  -Hartree energ DENC   =    -19483.22389258
  -exchange      EXHF   =         0.00000000
  -V(xc)+E(xc)   XCENC  =      3949.68730814
  PAW double counting   =     65346.33952494   -64842.35312598
  entropy T*S    EENTRO =        -1.65922871
  eigenvalues    EBANDS =     -6438.47410851
  atomic energy  EATOM  =     83246.81458859
  Solvation  Ediel_sol  =         0.00000000
  ---------------------------------------------------
[...]
   -.398E+00 -.165E+01 -.925E+01   -.410E+00 0.142E+01 0.839E+01   0.872E+00 -.501E-01 0.115E+01   -.768E-04 0.197E-03 -.850E-04
   -.594E+00 -.901E+00 0.171E+00   0.940E+00 0.185E+00 -.645E+00   -.327E+00 0.746E+00 0.447E+00   -.647E-04 -.870E-04 0.137E-03
   0.352E+01 0.664E+00 -.178E+01   -.330E+01 -.440E+00 0.206E+01   -.300E+00 -.209E+00 -.256E+00   -.894E-04 -.617E-04 -.124E-03
   0.163E+01 -.106E+01 0.105E+01   -.153E+01 0.146E+01 -.119E+01   -.974E-01 -.370E+00 0.149E+00   -.109E-03 -.101E-03 -.876E-04
   -.142E+01 -.200E+00 0.191E+00   0.179E+01 0.416E+00 -.443E+00   -.487E+00 -.259E-01 0.213E+00   0.472E-04 0.118E-04 0.117E-03
   -.286E+01 0.220E+01 -.237E+01   0.304E+01 -.260E+01 0.246E+01   -.278E+00 0.429E+00 -.157E-01   -.828E-05 -.391E-04 -.317E-03
   0.396E+01 -.178E+01 -.188E+01   -.389E+01 0.134E+01 0.189E+01   -.657E-01 0.432E+00 0.112E+00   -.108E-04 -.487E-04 0.435E-03
   -.209E+01 -.448E+01 0.109E+01   0.270E+01 0.453E+01 -.134E+01   -.609E+00 0.201E-02 0.251E+00   0.367E-04 0.189E-03 0.473E-03
   -.130E+02 -.188E+02 0.923E+00   0.123E+02 0.173E+02 -.204E+00   0.665E+00 0.152E+01 -.645E+00   -.739E-04 0.800E-03 0.479E-03
   0.566E+01 0.409E+01 -.106E+02   -.531E+01 -.429E+01 0.101E+02   -.282E+00 0.118E+00 0.482E+00   0.536E-03 0.351E-03 0.275E-03
 -----------------------------------------------------------------------------------------------
   0.166E+01 -.382E+01 -.914E+01   -.432E-12 0.894E-12 -.256E-12   -.163E+01 0.382E+01 0.913E+01   -.165E-01 -.237E-01 0.214E-01
 
 
 POSITION                                       TOTAL-FORCE (eV/Angst)
 -----------------------------------------------------------------------------------
      1.42419      2.52050      3.52583         0.020087     -0.001920      0.007337
     11.69209     10.46563      9.25134         0.003339      0.000845     -0.001524
      5.17485     10.45235     10.29117         0.012593     -0.022885     -0.047658
      7.83999      2.65677      2.87622         0.013212     -0.001671     -0.018579
     11.74302      9.05726      2.85364        -0.002370     -0.013136      0.025048
      1.35924      3.94006     10.17967         0.002677      0.054740     -0.009412
      7.78128      4.07171      9.37837         0.039610      0.006988     -0.020957
      5.24759      9.11770      3.79068        -0.017306      0.004051     -0.002383
      3.63226      1.29470      2.37151         0.053887     -0.031442      0.001410
      9.39660     11.69708     10.50640         0.064443     -0.015194      0.056786
     10.21616      5.26003     10.51141         0.013502     -0.000986     -0.011627
      2.69884      7.75492      2.58719        -0.012365      0.012749      0.021719
      2.78529     11.64831      8.98419        -0.010604      0.019732      0.017222
     10.06030      1.29428      3.98341        -0.023559      0.027889      0.020669
      9.29920      7.72048      3.88952         0.063629      0.040757      0.069079
      3.67859      5.12659      8.89846         0.011780      0.018810     -0.043262
      2.62688      3.65759      1.20771         0.021827     -0.012215     -0.021816
     10.36905      9.22582     11.70528         0.006154     -0.015497      0.003351
     10.45706     10.11549      5.22319        -0.020602      0.017845      0.008972
      2.52095      2.80665      7.76171         0.007250     -0.000253     -0.024113
      9.03766      2.85026     11.66896         0.044451      0.019073      0.003017
      3.97631     10.08681      1.28629         0.005642     -0.019167     -0.011879
      4.09016      9.39589      7.79471        -0.021706      0.009292     -0.021848
      9.16341      3.78783      5.13877         0.006825      0.130140     -0.032152
     12.37662      4.53678     12.58532        -0.004263     -0.017016      0.026417
      0.71197      8.47859      0.33780         0.032537     -0.004814      0.015639
      6.99858      8.55958      5.88275         0.037166     -0.029313     -0.024481
      5.82985      4.55687      6.89524         0.019322      0.006681     -0.043443
      5.73769      1.95957      0.26961         0.006856      0.015393     -0.010634
      7.15975     10.97493     12.41942        -0.009503      0.028651     -0.031890
      0.50285     10.96947      6.92389        -0.001157      0.015744     -0.018753
     12.12880      1.97414      6.18996         0.048632      0.026011     -0.086455
     11.15654      6.93120      0.81168        -0.008904     -0.029785     -0.012085
      2.00322      6.07194     12.26892        -0.002735     -0.003065     -0.020322
      1.91556      0.37720      5.88054         0.008104     -0.023753     -0.042068
     10.92732     12.49507      7.02068         0.007016      0.029208     -0.013145
      8.34468      6.32315      7.20942         0.015701     -0.006107     -0.029251
      4.40627      6.90435      5.86154         0.014894     -0.003636     -0.068507
      4.52237     12.59421     12.24301        -0.001425      0.010905     -0.036053
      8.44507      0.31697      0.57988        -0.003893     -0.005419      0.034230
      0.61364      5.91944      1.99888         0.030346     -0.050703     -0.026786
     12.53796      7.07700     11.00504         0.013817      0.016911      0.011318
      6.97298      0.61587     10.93084         0.017064      0.028333     -0.013941
      6.06195     12.23067      1.85862        -0.021583     -0.012409     -0.010159
     12.54131     12.20448      4.49388        -0.008935     -0.003443     -0.032583
      0.42911      0.59132      8.43641        -0.010819     -0.003334     -0.047829
      5.97060      7.22128      8.46777         0.027149      0.019574     -0.035388
      6.83324      5.91407      4.52226         0.064786     -0.106870      0.006229
      7.63619      9.13890     10.31196         0.039921      0.023585     -0.007633
      5.25113      4.09333      2.70439         0.022472      0.000743     -0.017828
     11.75709      4.06837      3.62878        -0.010735     -0.026647      0.004587
      1.31133      9.05179      9.41512        -0.007631     -0.005694      0.003957
      5.26556      2.61442      9.34662         0.011977      0.023761     -0.019499
      7.72367     10.34161      3.65936         0.015510      0.030384     -0.035729
      1.29528     10.40840      2.78426         0.016518      0.000318      0.005315
     11.75450      2.64052     10.09337         0.038575      0.035146      0.038833
     10.01152      7.79739      9.22373         0.008446     -0.002806     -0.028066
      2.77436      5.23595      3.84125         0.047260      0.036533     -0.040907
      3.55684     11.73647      3.85227         0.099514      0.053543     -0.147216
      9.45816      1.37122      9.07185         0.013517     -0.002423      0.030582
      9.28670      5.24436      2.47827         0.049522      0.019017      0.064710
      3.66745      7.75093     10.39240        -0.003069     -0.001595     -0.029458
      2.79598      1.29836     10.37152        -0.025325      0.050979     -0.000295
     10.18495     11.63409      2.62915         0.021106     -0.004046      0.015416
      8.96893      9.96852      7.83160        -0.000594      0.008123      0.016711
      4.07727      3.02074      5.06035         0.019460     -0.025647     -0.013546
      3.97159      3.63709     11.65242         0.024479      0.019476     -0.018775
      8.98630      9.29230      1.32735         0.007978      0.005887      0.013686
      2.63102      9.39513      5.19154         0.008859      0.047322     -0.008950
     10.44774      3.68419      7.75822         0.024151     -0.029294     -0.012954
     10.60219      2.94710      1.31431         0.008514      0.015989     -0.028070
      2.57190     10.10793     11.68852         0.008436      0.002953     -0.015043
      5.71828     10.99475      5.96768         0.073502     -0.066329     -0.052212
      7.28628      1.86852      6.82310         0.049605     -0.025880      0.034832
      0.73472      1.94389     12.51686        -0.042851      0.021341      0.034171
     12.23530     10.98940      0.41277        -0.004289      0.003319      0.000701
     12.14025      8.37064      6.80263         0.016682      0.004414     -0.038374
      0.67973      4.56149      6.11843        -0.000111      0.003770     -0.037910
      7.09281      4.57025      0.42545         0.033821      0.046645      0.022952
      5.79158      8.53307     12.39565         0.012485      0.031904     -0.019122
      4.50559      0.33934      7.19069         0.013262     -0.026112     -0.011104
      8.35228     12.54395      5.62255         0.029955     -0.007824      0.001995
      8.47522      6.93233     12.42095         0.007230     -0.001675     -0.070205
      4.49361      6.14060      0.66755         0.009147      0.024129     -0.018656
      1.97443     12.50176      0.62764         0.000756     -0.008488     -0.013770
     11.05799      0.42525     12.18634         0.014164      0.105432      0.009539
     11.04618      6.06023      5.71750        -0.022831      0.006136      0.003039
      1.92478      6.85609      7.30014        -0.002046      0.020752     -0.027902
      6.78653     12.13929      8.38137         0.020891     -0.002831      0.035110
      6.17537      0.85862      4.50350         0.005450     -0.030105     -0.006357
      0.64953      7.19290      4.57279        -0.003642     -0.009815      0.007186
     12.65740      5.66261      8.46864        -0.008225      0.008170     -0.041450
      5.97256      5.91528     11.04264         0.022583      0.022082     -0.009986
      6.76403      7.30904      1.95260         0.053610     -0.006082      0.029559
     12.68743      0.70549      1.91481         0.012931      0.008214      0.014202
      0.49210     12.15976     11.03049        -0.020538      0.013406     -0.001595
      1.62624      0.13359      3.34067         0.005668      0.006214     -0.037633
     11.33593      0.08602      9.74080         0.009691     -0.008375     -0.009745
      4.86927      0.11400      9.59988        -0.009629      0.000863     -0.001861
      8.12701      0.09898      3.23525        -0.047780      0.030538     -0.022080
     11.36461      6.41990      3.26308        -0.019108     -0.003075      0.030520
      1.61739      6.46020      9.68145        -0.016422      0.007299     -0.011153
      8.11688      6.39893      9.61215        -0.007718      0.008869     -0.010513
      4.86572      6.43929      3.24290         0.006208     -0.014873      0.000358
      3.24716      1.62981     -0.04066         0.009088      0.023313     -0.022309
      9.82508     11.40962      0.06738         0.006909      0.014164     -0.001803
      9.74290      4.76094      0.01818        -0.002550      0.039740      0.001353
      3.17344      8.12698     -0.04078        -0.009287      0.001626      0.000074
      3.20164     11.40481      6.47479         0.016634      0.004023      0.031894
      9.69977      1.65860      6.49303         0.008022     -0.012604     -0.020761
      9.77698      8.08296      6.47869        -0.001288      0.024568      0.003506
      3.16704      4.70824      6.46398        -0.004363      0.003981     -0.057266
      0.02320      3.15190      1.69566         0.039289      0.056650      0.005099
      0.01004      9.74077     11.30297        -0.003679     -0.003604     -0.011539
      0.04626      9.74175      4.96706        -0.010010      0.012445     -0.010913
      0.00586      3.22608      8.03734         0.006054      0.006747     -0.034641
      6.55916      3.20565     11.31244         0.003969      0.031055     -0.009358
      6.47855      9.79752      1.64036        -0.000262      0.036881     -0.025969
      6.51946      9.79492      8.06124        -0.007398      0.001021     -0.006554
      6.51237      3.24034      4.89563        -0.022609     -0.012487     -0.018770
      0.00272      0.01538      0.01049         0.001287      0.027079     -0.010660
      6.46796      0.06813      6.36440         0.022066     -0.030634      0.008651
     -0.02501      6.42450      6.59736         0.015842     -0.022335     -0.020150
      6.51992      6.46282      0.01504         0.007207      0.014256     -0.004775
      9.79259      3.19687      3.24605         0.000773      0.005134     -0.023218
      3.20459      9.70926      9.65508        -0.004484      0.006312     -0.007676
      9.80720      9.80686      9.69138         0.011783      0.008666      0.016838
      3.33817      3.16704      3.13430         0.047447     -0.014089      0.004749
      3.27500      3.23126      9.69022         0.016878      0.015603     -0.026101
      9.79407      9.71397      3.28723        -0.002448      0.004417      0.000162
      3.22653      9.87264      3.28547         0.014963      0.013895     -0.016768
      9.78612      3.33523      9.66072         0.014149      0.002384      0.004033
      6.39277      6.45133      6.52249         0.001729     -0.021823     -0.035290
      0.01394      6.48191     -0.04996         0.009266     -0.012773     -0.008917
      6.45161      0.09937     -0.00658        -0.001590      0.026715     -0.005524
     -0.09355      0.09502      6.40228         0.008082      0.003058     -0.041836
     11.47246     10.72441      7.33738         0.002335      0.038601      0.023124
      1.68884     10.68038      0.89901        -0.110426      0.001069      0.012457
     12.18046      4.78705     10.64059         0.022542     -0.156674      0.042873
     12.28007     11.05316      2.34101        -0.049278      0.017766      0.012335
      8.46972      8.74886     12.00546         0.024680      0.000598     -0.010590
      2.58126      5.44796      1.02931        -0.014121     -0.012944     -0.027561
      4.16406     10.82355     12.40137        -0.031948      0.017502      0.037771
      7.41046      7.70958      4.01888         0.112113     -0.143394      0.022509
      7.40835      4.82781      2.32907         0.054857      0.008597      0.092179
      5.55477      7.76403     10.56011        -0.029870      0.017941      0.035418
      2.44723      7.63376      5.70885        -0.023702      0.037588     -0.018591
     11.35910      4.09383      5.53723        -0.100409      0.073248     -0.021136
      3.92481      7.49478      7.72278        -0.069838      0.011740     -0.021981
      4.03672     12.06561      1.53784        -0.028774      0.020880     -0.068720
     10.63304      7.34430     11.10186         0.042098      0.024276      0.020704
      0.94507      2.04075     10.65559        -0.126376      0.175498      0.053035
      4.43615      8.77562      5.77480        -0.034483      0.005680     -0.008836
      8.65630      7.28645      1.96980         0.013688     -0.125873      0.178093
      3.98233      5.46439     11.82536        -0.010841      0.021156     -0.025985
      4.69764      4.18943      0.81633        -0.024384      0.037789     -0.025346
      5.51823      4.52222      8.70206        -0.010333     -0.002083     -0.061619
      0.81813     11.30027      8.71643        -0.007437      0.063613     -0.015866
      5.10920      0.46370      3.09115        -0.294744     -0.432760      0.347257
      0.73268      8.70640      2.19790         0.081636     -0.016450      0.012217
      0.47586      3.66540      4.56669        -0.184561     -0.406267      0.207264
      8.83937      0.96833     11.33740         0.029856      0.030112     -0.075314
     10.64711     12.00731      4.94799        -0.050507     -0.015449     -0.054695
      7.59526     11.81719     10.58637         0.046413      0.066101     -0.047057
      1.64938      4.12400     12.06973        -0.050470      0.030955     -0.014338
      2.34696     11.97214     11.75731        -0.004588      0.004732     -0.018561
      2.23227      0.98504      7.80439        -0.019273      0.002611     -0.009886
     11.83619      9.00220      0.96201         0.043069      0.053852      0.047579
     -0.89004      2.74090     11.89968        -0.293732     -0.209606      0.114925
      3.50373      1.61051      6.11446         0.009265     -0.004328      0.008997
      4.71914      6.34023      9.63559         0.016163      0.020495     -0.043176
      9.89730      8.05496      0.22535        -0.020634     -0.010699      0.059812
      9.28705     11.37020      6.66205        -0.006089      0.003042      0.025632
      1.65134     -0.01767      9.78602        -0.032194      0.071468      0.021980
     11.28768      6.48248      9.27846        -0.051115     -0.095199      0.008490
      0.09586      9.25405      8.08297         0.008886     -0.012493     -0.003879
      8.70586      5.76327      4.26382         0.063880     -0.281921      0.286889
      6.77883      2.97261      8.11953         0.019372      0.029647     -0.027364
      9.86570      1.61923      0.26711        -0.083748      0.014772      0.027418
     11.36535      0.27423      3.12057        -0.001426      0.031320      0.007077
      7.98164      0.37998      9.08192        -0.121424      0.189511     -0.039423
      6.61253      2.91524      1.55144        -0.106024      0.025884      0.074095
      9.51353      4.91834      6.66031         0.002487     -0.014402      0.122579
      6.38958      9.82701     11.36195         0.003729      0.053632     -0.002452
      6.49068      9.91831      4.83105        -0.041767      0.000424      0.074765
      1.65665      6.48048      3.31100         0.062100     -0.078875     -0.000484
 -----------------------------------------------------------------------------------
    total drift:                                0.009756     -0.020348      0.009625


--------------------------------------------------------------------------------------------------------



  FREE ENERGIE OF THE ION-ELECTRON SYSTEM (eV)
  ---------------------------------------------------
  free  energy   TOTEN  =     -1362.77597645 eV

  energy  without entropy=    -1362.77597645  energy(sigma->0) =    -1362.77597645
 
 d Force = 0.1915883E+00[ 0.181E+00, 0.202E+00]  d Energy = 0.1920037E+00-0.415E-03
 d Force = 0.4152124E+01[ 0.395E+01, 0.436E+01]  d Ewald  = 0.4154975E+01-0.285E-02


--------------------------------------------------------------------------------------------------------


    POTLOK:  cpu time    0.0734: real time    0.0744


--------------------------------------------------------------------------------------------------------


 Quasi-Newton relaxation of ions (Broydens 2nd method)
  g(Force)  = 0.807E-01   g(Stress)= 0.000E+00

 retain information from N=  3 steps
 eigenvalues of (default step * inverse Hessian matrix)
  average eigenvalue of G=   4.8923
 eigenvalue spectrum of G is  6.5794  6.5794  1.5182


--------------------------------------------------------------------------------------------------------


     LOOP+:  cpu time   27.2291: real time   27.4683
    4ORBIT:  cpu time    0.0000: real time    0.0000

 total amount of memory used by VASP MPI-rank0    47905. kBytes
=======================================================================

   base      :      30000. kBytes
   nonlr-proj:       4713. kBytes
   fftplans  :       3250. kBytes
   grid      :       7798. kBytes
   one-center:        245. kBytes
   wavefun   :       1899. kBytes
 
  
  
 General timing and accounting informations for this job:
 ========================================================
  
                  Total CPU time used (sec):      736.451
                            User time (sec):      734.158
                          System time (sec):        2.293
                         Elapsed time (sec):      745.198
  
                   Maximum memory used (kb):      338324.
                   Average memory used (kb):           0.
  
                          Minor page faults:       185928
                          Major page faults:            0
                 Voluntary context switches:         9862
