<?xml version="1.0" encoding="ISO-8859-1"?>
<modeling>
 <generator>
  <i name="program" type="string">vasp </i>
  <i name="version" type="string">5.4.4.18Apr17-6-g9f103f2a35  </i>
  <i name="subversion" type="string">(build May 01 2020 14:22:42) gamma-only         parallel </i>
  <i name="platform" type="string">LinuxIFC </i>
  <i name="date" type="string">2022 02 23 </i>
  <i name="time" type="string">05:55:17 </i>
 </generator>
 <incar>
  <i type="string" name="PREC">accurate</i>
  <i type="int" name="IBRION">     1</i>
  <i name="EDIFF">      0.00000100</i>
  <i name="EDIFFG">     -0.01000000</i>
  <i type="int" name="NSW">    20</i>
  <i type="int" name="ISIF">     2</i>
  <i type="int" name="ISYM">     0</i>
  <i name="ENCUT">    500.00000000</i>
  <i type="string" name="LREAL"> Auto</i>
  <i type="int" name="ISMEAR">     0</i>
  <i name="SIGMA">      0.20000000</i>
  <i type="logical" name="LWAVE"> F  </i>
  <i type="logical" name="LCHARG"> F  </i>
  <v type="int" name="KPOINT_BSE">    -1     0     0     0</v>
 </incar>
 <structure name="primitive_cell" >
  <crystal>
   <varray name="basis" >
    <v>      12.96520042       0.00000000       0.00000000 </v>
    <v>       0.00000000      12.96500015       0.00000000 </v>
    <v>       0.00000000       0.00000000      12.96500015 </v>
   </varray>
   <i name="volume">   2179.33647298 </i>
   <varray name="rec_basis" >
    <v>       0.07712954       0.00000000       0.00000000 </v>
    <v>       0.00000000       0.07713074       0.00000000 </v>
    <v>       0.00000000       0.00000000       0.07713074 </v>
   </varray>
  </crystal>
  <varray name="positions" >
   <v>       0.10000000       0.19560000       0.28160000 </v>
   <v>       0.25000000       0.25000000       0.25000000 </v>
   <v>       0.00000000       0.25000000       0.12500000 </v>
   <v>       0.12500000       0.00000000       0.25000000 </v>
   <v>       0.07400000       0.40090001       0.31230000 </v>
   <v>       0.19560000       0.28160000       0.10000000 </v>
   <v>       0.28160000       0.10000000       0.19560000 </v>
   <v>      -0.10000002       0.30440000       0.28160000 </v>
   <v>      -0.03160000       0.05440000       0.15000001 </v>
   <v>       0.15000001       0.03160000       0.44560000 </v>
   <v>       0.21840000       0.40000001       0.30440000 </v>
   <v>       0.30440000       0.21840000       0.40000001 </v>
   <v>       0.05440000       0.34999999       0.46840000 </v>
   <v>      -0.05439997       0.15000001       0.46840000 </v>
   <v>       0.25000000       0.12500000      -0.50000000 </v>
   <v>       0.03160000       0.44560000       0.15000001 </v>
   <v>      -0.03160000      -0.05439997       0.34999999 </v>
   <v>      -0.12500000       0.00000000       0.25000000 </v>
   <v>       0.18770000       0.42600000       0.09910000 </v>
   <v>       0.12500000      -0.50000000       0.25000000 </v>
   <v>       0.00000000       0.00000000      -0.50000000 </v>
   <v>       0.05440000       0.15000001      -0.03160000 </v>
   <v>       0.25000000       0.37500000      -0.50000000 </v>
   <v>      -0.15090001       0.32400000       0.43770000 </v>
   <v>       0.15000001      -0.03160000       0.05440000 </v>
   <v>       0.40000001       0.30440000       0.21840000 </v>
   <v>       0.25000000       0.12500000       0.00000000 </v>
   <v>       0.19560000       0.21840000      -0.39999998 </v>
   <v>      -0.21840000       0.10000000       0.30440000 </v>
   <v>       0.28160000      -0.10000002       0.30440000 </v>
   <v>      -0.19560003       0.21840000       0.10000000 </v>
   <v>       0.18770000       0.07400000      -0.40090001 </v>
   <v>       0.42600000       0.09910000       0.18770000 </v>
   <v>      -0.25000000       0.25000000       0.25000000 </v>
   <v>       0.00000000       0.00000000       0.00000000 </v>
   <v>       0.00000000       0.25000000      -0.37500000 </v>
   <v>       0.03160000      -0.44560003       0.34999999 </v>
   <v>       0.09910000       0.31230000      -0.07400000 </v>
   <v>      -0.12500000      -0.50000000       0.25000000 </v>
   <v>      -0.05439997       0.34999999      -0.03160000 </v>
   <v>       0.40090001       0.31230000       0.07400000 </v>
   <v>       0.00000000      -0.50000000      -0.50000000 </v>
   <v>       0.31230000      -0.07400000       0.09910000 </v>
   <v>       0.10000000      -0.19560003       0.21840000 </v>
   <v>      -0.06229997      -0.15090001       0.17600000 </v>
   <v>       0.03160000       0.05440000      -0.35000002 </v>
   <v>       0.46840000       0.05440000       0.34999999 </v>
   <v>       0.34999999       0.03160000      -0.44560003 </v>
   <v>      -0.14999998       0.46840000       0.44560000 </v>
   <v>       0.18770000      -0.42600000       0.40090001 </v>
   <v>       0.37500000      -0.50000000       0.25000000 </v>
   <v>      -0.18770003      -0.07400000       0.40090001 </v>
   <v>      -0.50000000       0.25000000       0.37500000 </v>
   <v>       0.07400000      -0.40090001       0.18770000 </v>
   <v>       0.25000000      -0.12500000      -0.50000000 </v>
   <v>      -0.25000000       0.12500000      -0.50000000 </v>
   <v>       0.00000000       0.25000000      -0.12500000 </v>
   <v>       0.00000000      -0.50000000       0.00000000 </v>
   <v>       0.05440000      -0.14999998      -0.46840000 </v>
   <v>       0.44560000       0.15000001       0.03160000 </v>
   <v>       0.21840000      -0.39999998       0.19560000 </v>
   <v>      -0.30439997       0.28160000       0.40000001 </v>
   <v>      -0.50000000       0.25000000       0.12500000 </v>
   <v>      -0.14999998      -0.03160000      -0.44560003 </v>
   <v>       0.34999999       0.46840000       0.05440000 </v>
   <v>       0.15090001      -0.17600000       0.06230000 </v>
   <v>       0.15000001       0.46840000      -0.05439997 </v>
   <v>       0.15000001      -0.46840000      -0.44560003 </v>
   <v>       0.30440000       0.28160000      -0.10000002 </v>
   <v>      -0.28160000       0.40000001       0.19560000 </v>
   <v>      -0.19560003       0.28160000      -0.39999998 </v>
   <v>      -0.21840000      -0.10000002       0.19560000 </v>
   <v>      -0.14999998       0.03160000      -0.05439997 </v>
   <v>       0.34999999      -0.46840000       0.44560000 </v>
   <v>      -0.25000000       0.37500000      -0.50000000 </v>
   <v>      -0.05439997      -0.14999998       0.03160000 </v>
   <v>       0.44560000       0.34999999      -0.46840000 </v>
   <v>      -0.25000000       0.12500000       0.00000000 </v>
   <v>       0.06230000       0.15090001      -0.17600000 </v>
   <v>      -0.03160000       0.44560000      -0.35000002 </v>
   <v>       0.46840000      -0.05439997       0.15000001 </v>
   <v>       0.00000000      -0.25000000       0.37500000 </v>
   <v>       0.25000000      -0.25000000       0.25000000 </v>
   <v>       0.18770000      -0.07400000      -0.09909999 </v>
   <v>       0.34999999      -0.03160000      -0.05439997 </v>
   <v>      -0.14999998      -0.46840000       0.05440000 </v>
   <v>      -0.25000000       0.37500000       0.00000000 </v>
   <v>       0.31230000       0.42600000      -0.09909999 </v>
   <v>       0.25000000       0.25000000      -0.25000000 </v>
   <v>      -0.50000000       0.00000000      -0.50000000 </v>
   <v>       0.28160000       0.40000001      -0.30439997 </v>
   <v>       0.30440000      -0.21840000       0.10000000 </v>
   <v>       0.19560000      -0.28160000       0.40000001 </v>
   <v>       0.21840000       0.10000000      -0.19560003 </v>
   <v>       0.03160000      -0.05439997      -0.14999998 </v>
   <v>      -0.46840000       0.44560000       0.34999999 </v>
   <v>      -0.39999998       0.19560000       0.21840000 </v>
   <v>       0.12500000       0.00000000      -0.25000000 </v>
   <v>      -0.06229997       0.34909999      -0.17600000 </v>
   <v>       0.10000000       0.30440000      -0.21840000 </v>
   <v>      -0.37500000       0.00000000       0.25000000 </v>
   <v>       0.05440000      -0.35000002       0.03160000 </v>
   <v>      -0.44560003       0.15000001      -0.46840000 </v>
   <v>       0.21840000      -0.10000002      -0.30439997 </v>
   <v>      -0.19560003      -0.21840000       0.40000001 </v>
   <v>      -0.25000000      -0.12500000      -0.50000000 </v>
   <v>       0.44560000      -0.14999998       0.46840000 </v>
   <v>      -0.42600000       0.40090001       0.18770000 </v>
   <v>       0.06230000      -0.15090001      -0.32400000 </v>
   <v>      -0.50000000       0.00000000       0.00000000 </v>
   <v>      -0.15090001      -0.17600000      -0.43770003 </v>
   <v>       0.40000001       0.19560000      -0.28160000 </v>
   <v>      -0.50000000       0.25000000      -0.37500000 </v>
   <v>      -0.35000002       0.03160000       0.05440000 </v>
   <v>      -0.35000002      -0.03160000       0.44560000 </v>
   <v>       0.25000000      -0.37500000       0.00000000 </v>
   <v>      -0.10000002       0.19560000      -0.21840000 </v>
   <v>      -0.05439997      -0.35000002      -0.46840000 </v>
   <v>      -0.44560003       0.34999999       0.03160000 </v>
   <v>       0.43770000       0.34909999      -0.32400000 </v>
   <v>      -0.10000002      -0.30439997       0.21840000 </v>
   <v>      -0.50000000      -0.50000000      -0.50000000 </v>
   <v>      -0.25000000      -0.12500000       0.00000000 </v>
   <v>      -0.12500000       0.00000000      -0.25000000 </v>
   <v>      -0.28160000      -0.39999998       0.30440000 </v>
   <v>      -0.30439997       0.21840000      -0.10000002 </v>
   <v>       0.12500000      -0.50000000      -0.25000000 </v>
   <v>       0.34909999      -0.17600000      -0.06229997 </v>
   <v>      -0.37500000      -0.50000000       0.25000000 </v>
   <v>       0.32400000      -0.43770003      -0.34909999 </v>
   <v>      -0.25000000      -0.25000000       0.25000000 </v>
   <v>       0.19560000      -0.21840000      -0.10000002 </v>
   <v>      -0.28160000       0.10000000      -0.30439997 </v>
   <v>       0.00000000      -0.25000000      -0.37500000 </v>
   <v>      -0.50000000       0.25000000      -0.12500000 </v>
   <v>      -0.31229997       0.07400000      -0.09909999 </v>
   <v>      -0.50000000      -0.50000000       0.00000000 </v>
   <v>      -0.03160000      -0.44560003      -0.14999998 </v>
   <v>      -0.46840000      -0.44560003       0.15000001 </v>
   <v>       0.37500000       0.00000000      -0.25000000 </v>
   <v>       0.40000001      -0.30439997       0.28160000 </v>
   <v>      -0.15090001      -0.32400000       0.06230000 </v>
   <v>      -0.25000000       0.25000000      -0.25000000 </v>
   <v>      -0.31229997      -0.42600000       0.09910000 </v>
   <v>      -0.35000002       0.46840000      -0.44560003 </v>
   <v>       0.40090001      -0.31229997       0.42600000 </v>
   <v>      -0.25000000      -0.37500000      -0.50000000 </v>
   <v>      -0.12500000      -0.50000000      -0.25000000 </v>
   <v>      -0.50000000      -0.25000000       0.37500000 </v>
   <v>       0.30440000      -0.28160000      -0.39999998 </v>
   <v>      -0.21840000       0.40000001      -0.19560003 </v>
   <v>      -0.18770003      -0.42600000      -0.09909999 </v>
   <v>       0.00000000      -0.25000000      -0.12500000 </v>
   <v>      -0.50000000      -0.25000000       0.12500000 </v>
   <v>      -0.10000002      -0.19560003      -0.28160000 </v>
   <v>       0.46840000       0.44560000      -0.14999998 </v>
   <v>      -0.46840000      -0.05439997      -0.35000002 </v>
   <v>      -0.25000000      -0.37500000       0.00000000 </v>
   <v>       0.37500000      -0.50000000      -0.25000000 </v>
   <v>      -0.46840000       0.05440000      -0.14999998 </v>
   <v>       0.46840000      -0.44560003      -0.35000002 </v>
   <v>      -0.39999998      -0.19560003       0.28160000 </v>
   <v>      -0.43770003      -0.34909999       0.32400000 </v>
   <v>       0.44560000      -0.35000002      -0.03160000 </v>
   <v>      -0.44560003      -0.14999998      -0.03160000 </v>
   <v>       0.28160000      -0.39999998      -0.19560003 </v>
   <v>      -0.30439997      -0.28160000       0.10000000 </v>
   <v>      -0.35000002      -0.46840000      -0.05439997 </v>
   <v>      -0.21840000      -0.39999998      -0.30439997 </v>
   <v>      -0.30439997      -0.21840000      -0.39999998 </v>
   <v>       0.25000000      -0.25000000      -0.25000000 </v>
   <v>       0.10000000      -0.30439997      -0.28160000 </v>
   <v>      -0.44560003      -0.35000002       0.46840000 </v>
   <v>      -0.39999998       0.30440000      -0.28160000 </v>
   <v>      -0.19560003      -0.28160000      -0.10000002 </v>
   <v>      -0.28160000      -0.10000002      -0.19560003 </v>
   <v>      -0.50000000      -0.25000000      -0.37500000 </v>
   <v>      -0.37500000       0.00000000      -0.25000000 </v>
   <v>       0.42600000      -0.40090001      -0.18770003 </v>
   <v>       0.40000001      -0.19560003      -0.21840000 </v>
   <v>      -0.50000000      -0.25000000      -0.12500000 </v>
   <v>      -0.37500000      -0.50000000      -0.25000000 </v>
   <v>      -0.25000000      -0.25000000      -0.25000000 </v>
   <v>      -0.43770003      -0.15090001      -0.17600000 </v>
   <v>      -0.34909999      -0.32400000      -0.06229997 </v>
   <v>      -0.39999998      -0.30439997      -0.21840000 </v>
  </varray>
 </structure>
 <varray name="primitive_index" >
  <v type="int" >        1 </v>
  <v type="int" >      128 </v>
  <v type="int" >      113 </v>
  <v type="int" >       97 </v>
  <v type="int" >      161 </v>
  <v type="int" >       17 </v>
  <v type="int" >        9 </v>
  <v type="int" >       51 </v>
  <v type="int" >       95 </v>
  <v type="int" >       35 </v>
  <v type="int" >       58 </v>
  <v type="int" >       66 </v>
  <v type="int" >       78 </v>
  <v type="int" >       32 </v>
  <v type="int" >      170 </v>
  <v type="int" >       41 </v>
  <v type="int" >       45 </v>
  <v type="int" >      180 </v>
  <v type="int" >      142 </v>
  <v type="int" >      186 </v>
  <v type="int" >      136 </v>
  <v type="int" >       75 </v>
  <v type="int" >      112 </v>
  <v type="int" >      148 </v>
  <v type="int" >       85 </v>
  <v type="int" >       50 </v>
  <v type="int" >      105 </v>
  <v type="int" >       20 </v>
  <v type="int" >       14 </v>
  <v type="int" >       59 </v>
  <v type="int" >       71 </v>
  <v type="int" >      167 </v>
  <v type="int" >      159 </v>
  <v type="int" >      125 </v>
  <v type="int" >      121 </v>
  <v type="int" >      116 </v>
  <v type="int" >       91 </v>
  <v type="int" >      165 </v>
  <v type="int" >      101 </v>
  <v type="int" >       25 </v>
  <v type="int" >      156 </v>
  <v type="int" >      123 </v>
  <v type="int" >      150 </v>
  <v type="int" >       55 </v>
  <v type="int" >      140 </v>
  <v type="int" >       46 </v>
  <v type="int" >       90 </v>
  <v type="int" >       81 </v>
  <v type="int" >       87 </v>
  <v type="int" >      147 </v>
  <v type="int" >      104 </v>
  <v type="int" >      163 </v>
  <v type="int" >      120 </v>
  <v type="int" >      160 </v>
  <v type="int" >      109 </v>
  <v type="int" >      110 </v>
  <v type="int" >      169 </v>
  <v type="int" >      134 </v>
  <v type="int" >       31 </v>
  <v type="int" >       29 </v>
  <v type="int" >       12 </v>
  <v type="int" >       24 </v>
  <v type="int" >      182 </v>
  <v type="int" >       36 </v>
  <v type="int" >       84 </v>
  <v type="int" >      138 </v>
  <v type="int" >       34 </v>
  <v type="int" >       88 </v>
  <v type="int" >       67 </v>
  <v type="int" >       61 </v>
  <v type="int" >       70 </v>
  <v type="int" >       64 </v>
  <v type="int" >       86 </v>
  <v type="int" >       38 </v>
  <v type="int" >      183 </v>
  <v type="int" >       76 </v>
  <v type="int" >       28 </v>
  <v type="int" >      179 </v>
  <v type="int" >      152 </v>
  <v type="int" >       92 </v>
  <v type="int" >       44 </v>
  <v type="int" >      115 </v>
  <v type="int" >      131 </v>
  <v type="int" >      166 </v>
  <v type="int" >       39 </v>
  <v type="int" >       33 </v>
  <v type="int" >      107 </v>
  <v type="int" >      155 </v>
  <v type="int" >      129 </v>
  <v type="int" >      122 </v>
  <v type="int" >       16 </v>
  <v type="int" >       22 </v>
  <v type="int" >       69 </v>
  <v type="int" >       63 </v>
  <v type="int" >       96 </v>
  <v type="int" >       48 </v>
  <v type="int" >        4 </v>
  <v type="int" >      174 </v>
  <v type="int" >      139 </v>
  <v type="int" >        6 </v>
  <v type="int" >      100 </v>
  <v type="int" >       26 </v>
  <v type="int" >       74 </v>
  <v type="int" >       13 </v>
  <v type="int" >       19 </v>
  <v type="int" >      173 </v>
  <v type="int" >       73 </v>
  <v type="int" >      145 </v>
  <v type="int" >      158 </v>
  <v type="int" >      135 </v>
  <v type="int" >      137 </v>
  <v type="int" >       53 </v>
  <v type="int" >      178 </v>
  <v type="int" >       40 </v>
  <v type="int" >       82 </v>
  <v type="int" >      108 </v>
  <v type="int" >       56 </v>
  <v type="int" >       77 </v>
  <v type="int" >       79 </v>
  <v type="int" >      157 </v>
  <v type="int" >        5 </v>
  <v type="int" >      133 </v>
  <v type="int" >      106 </v>
  <v type="int" >       98 </v>
  <v type="int" >       15 </v>
  <v type="int" >       21 </v>
  <v type="int" >      102 </v>
  <v type="int" >      143 </v>
  <v type="int" >      177 </v>
  <v type="int" >      149 </v>
  <v type="int" >      130 </v>
  <v type="int" >       72 </v>
  <v type="int" >       60 </v>
  <v type="int" >      176 </v>
  <v type="int" >      117 </v>
  <v type="int" >      162 </v>
  <v type="int" >      124 </v>
  <v type="int" >       42 </v>
  <v type="int" >       94 </v>
  <v type="int" >       99 </v>
  <v type="int" >        8 </v>
  <v type="int" >      168 </v>
  <v type="int" >      132 </v>
  <v type="int" >      154 </v>
  <v type="int" >       37 </v>
  <v type="int" >      153 </v>
  <v type="int" >      111 </v>
  <v type="int" >      175 </v>
  <v type="int" >      185 </v>
  <v type="int" >       23 </v>
  <v type="int" >       11 </v>
  <v type="int" >      151 </v>
  <v type="int" >      114 </v>
  <v type="int" >      118 </v>
  <v type="int" >        2 </v>
  <v type="int" >       93 </v>
  <v type="int" >       89 </v>
  <v type="int" >      172 </v>
  <v type="int" >      171 </v>
  <v type="int" >       43 </v>
  <v type="int" >       47 </v>
  <v type="int" >       54 </v>
  <v type="int" >      144 </v>
  <v type="int" >       80 </v>
  <v type="int" >       30 </v>
  <v type="int" >       62 </v>
  <v type="int" >       68 </v>
  <v type="int" >       83 </v>
  <v type="int" >       57 </v>
  <v type="int" >       65 </v>
  <v type="int" >      126 </v>
  <v type="int" >       52 </v>
  <v type="int" >       27 </v>
  <v type="int" >        7 </v>
  <v type="int" >       18 </v>
  <v type="int" >       10 </v>
  <v type="int" >      119 </v>
  <v type="int" >      181 </v>
  <v type="int" >      146 </v>
  <v type="int" >        3 </v>
  <v type="int" >      184 </v>
  <v type="int" >      103 </v>
  <v type="int" >      127 </v>
  <v type="int" >      164 </v>
  <v type="int" >      141 </v>
  <v type="int" >       49 </v>
 </varray>
 <kpoints>
  <generation param="Gamma">
   <v type="int" name="divisions">       1        1        1 </v>
   <v name="usershift">      0.00000000       0.00000000       0.00000000 </v>
   <v name="genvec1">      1.00000000       0.00000000       0.00000000 </v>
   <v name="genvec2">      0.00000000       1.00000000       0.00000000 </v>
   <v name="genvec3">      0.00000000       0.00000000       1.00000000 </v>
   <v name="shift">      0.00000000       0.00000000       0.00000000 </v>
  </generation>
  <varray name="kpointlist" >
   <v>       0.00000000       0.00000000       0.00000000 </v>
  </varray>
  <varray name="weights" >
   <v>       1.00000000 </v>
  </varray>
 </kpoints>
 <parameters>
  <separator name="general" >
   <i type="string" name="SYSTEM">unknown system</i>
   <i type="logical" name="LCOMPAT"> F  </i>
  </separator>
  <separator name="electronic" >
   <i type="string" name="PREC">accura</i>
   <i name="ENMAX">    500.00000000</i>
   <i name="ENAUG">    605.39200000</i>
   <i name="EDIFF">      0.00000100</i>
   <i type="int" name="IALGO">    38</i>
   <i type="int" name="IWAVPR">    11</i>
   <i type="int" name="NBANDS">   656</i>
   <i name="NELECT">   1088.00000000</i>
   <i type="int" name="TURBO">     0</i>
   <i type="int" name="IRESTART">     0</i>
   <i type="int" name="NREBOOT">     0</i>
   <i type="int" name="NMIN">     0</i>
   <i name="EREF">      0.00000000</i>
   <separator name="electronic smearing" >
    <i type="int" name="ISMEAR">     0</i>
    <i name="SIGMA">      0.20000000</i>
    <i name="KSPACING">      0.50000000</i>
    <i type="logical" name="KGAMMA"> T  </i>
   </separator>
   <separator name="electronic projectors" >
    <i type="logical" name="LREAL"> T  </i>
    <v name="ROPT">     -0.00025000     -0.00025000     -0.00025000     -0.00025000     -0.00025000</v>
    <i type="int" name="LMAXPAW">  -100</i>
    <i type="int" name="LMAXMIX">     2</i>
    <i type="logical" name="NLSPLINE"> F  </i>
   </separator>
   <separator name="electronic startup" >
    <i type="int" name="ISTART">     0</i>
    <i type="int" name="ICHARG">     2</i>
    <i type="int" name="INIWAV">     1</i>
   </separator>
   <separator name="electronic spin" >
    <i type="int" name="ISPIN">     1</i>
    <i type="logical" name="LNONCOLLINEAR"> F  </i>
    <v name="MAGMOM">      1.00000000      1.00000000      1.00000000      1.00000000      1.00000000      1.00000000      1.00000000      1.00000000      1.00000000      1.00000000      1.00000000      1.00000000      1.00000000      1.00000000      1.00000000      1.00000000      1.00000000      1.00000000      1.00000000      1.00000000
      1.00000000      1.00000000      1.00000000      1.00000000      1.00000000      1.00000000      1.00000000      1.00000000      1.00000000      1.00000000      1.00000000      1.00000000      1.00000000      1.00000000      1.00000000      1.00000000      1.00000000      1.00000000      1.00000000      1.00000000
      1.00000000      1.00000000      1.00000000      1.00000000      1.00000000      1.00000000      1.00000000      1.00000000      1.00000000      1.00000000      1.00000000      1.00000000      1.00000000      1.00000000      1.00000000      1.00000000      1.00000000      1.00000000      1.00000000      1.00000000
      1.00000000      1.00000000      1.00000000      1.00000000      1.00000000      1.00000000      1.00000000      1.00000000      1.00000000      1.00000000      1.00000000      1.00000000      1.00000000      1.00000000      1.00000000      1.00000000      1.00000000      1.00000000      1.00000000      1.00000000
      1.00000000      1.00000000      1.00000000      1.00000000      1.00000000      1.00000000      1.00000000      1.00000000      1.00000000      1.00000000      1.00000000      1.00000000      1.00000000      1.00000000      1.00000000      1.00000000      1.00000000      1.00000000      1.00000000      1.00000000
      1.00000000      1.00000000      1.00000000      1.00000000      1.00000000      1.00000000      1.00000000      1.00000000      1.00000000      1.00000000      1.00000000      1.00000000      1.00000000      1.00000000      1.00000000      1.00000000      1.00000000      1.00000000      1.00000000      1.00000000
      1.00000000      1.00000000      1.00000000      1.00000000      1.00000000      1.00000000      1.00000000      1.00000000      1.00000000      1.00000000      1.00000000      1.00000000      1.00000000      1.00000000      1.00000000      1.00000000      1.00000000      1.00000000      1.00000000      1.00000000
      1.00000000      1.00000000      1.00000000      1.00000000      1.00000000      1.00000000      1.00000000      1.00000000      1.00000000      1.00000000      1.00000000      1.00000000      1.00000000      1.00000000      1.00000000      1.00000000      1.00000000      1.00000000      1.00000000      1.00000000
      1.00000000      1.00000000      1.00000000      1.00000000      1.00000000      1.00000000      1.00000000      1.00000000      1.00000000      1.00000000      1.00000000      1.00000000      1.00000000      1.00000000      1.00000000      1.00000000      1.00000000      1.00000000      1.00000000      1.00000000
      1.00000000      1.00000000      1.00000000      1.00000000      1.00000000      1.00000000</v>
    <i name="NUPDOWN">     -1.00000000</i>
    <i type="logical" name="LSORBIT"> F  </i>
    <v name="SAXIS">      0.00000000      0.00000000      1.00000000</v>
    <i type="logical" name="LSPIRAL"> F  </i>
    <v name="QSPIRAL">      0.00000000      0.00000000      0.00000000</v>
    <i type="logical" name="LZEROZ"> F  </i>
   </separator>
   <separator name="electronic exchange-correlation" >
    <i type="logical" name="LASPH"> F  </i>
    <i type="logical" name="LMETAGGA"> F  </i>
   </separator>
   <separator name="electronic convergence" >
    <i type="int" name="NELM">    60</i>
    <i type="int" name="NELMDL">     0</i>
    <i type="int" name="NELMIN">     2</i>
    <i name="ENINI">    500.00000000</i>
    <separator name="electronic convergence detail" >
     <i type="logical" name="LDIAG"> T  </i>
     <i type="logical" name="LSUBROT"> F  </i>
     <i name="WEIMIN">      0.00100000</i>
     <i name="EBREAK">      0.00000000</i>
     <i name="DEPER">      0.30000000</i>
     <i type="int" name="NRMM">     4</i>
     <i name="TIME">      0.40000000</i>
    </separator>
   </separator>
   <separator name="electronic mixer" >
    <i name="AMIX">      0.40000000</i>
    <i name="BMIX">      1.00000000</i>
    <i name="AMIN">      0.10000000</i>
    <i name="AMIX_MAG">      1.60000000</i>
    <i name="BMIX_MAG">      1.00000000</i>
    <separator name="electronic mixer details" >
     <i type="int" name="IMIX">     4</i>
     <i type="logical" name="MIXFIRST"> F  </i>
     <i type="int" name="MAXMIX">   -45</i>
     <i name="WC">    100.00000000</i>
     <i type="int" name="INIMIX">     1</i>
     <i type="int" name="MIXPRE">     1</i>
     <i type="int" name="MREMOVE">     5</i>
    </separator>
   </separator>
   <separator name="electronic dipolcorrection" >
    <i type="logical" name="LDIPOL"> F  </i>
    <i type="logical" name="LMONO"> F  </i>
    <i type="int" name="IDIPOL">     0</i>
    <i name="EPSILON">      1.00000000</i>
    <v name="DIPOL">   -100.00000000   -100.00000000   -100.00000000</v>
    <i name="EFIELD">      0.00000000</i>
   </separator>
  </separator>
  <separator name="grids" >
   <i type="int" name="NGX">    96</i>
   <i type="int" name="NGY">    96</i>
   <i type="int" name="NGZ">    96</i>
   <i type="int" name="NGXF">   192</i>
   <i type="int" name="NGYF">   192</i>
   <i type="int" name="NGZF">   192</i>
   <i type="logical" name="ADDGRID"> F  </i>
  </separator>
  <separator name="ionic" >
   <i type="int" name="NSW">    20</i>
   <i type="int" name="IBRION">     1</i>
   <i type="int" name="MDALGO">     0</i>
   <i type="int" name="ISIF">     2</i>
   <i name="PSTRESS">      0.00000000</i>
   <i name="EDIFFG">     -0.01000000</i>
   <i type="int" name="NFREE">     0</i>
   <i name="POTIM">      0.50000000</i>
   <i name="SMASS">     -3.00000000</i>
   <i name="SCALEE">      1.00000000</i>
  </separator>
  <separator name="ionic md" >
   <i name="TEBEG">      0.00010000</i>
   <i name="TEEND">      0.00010000</i>
   <i type="int" name="NBLOCK">     1</i>
   <i type="int" name="KBLOCK">    20</i>
   <i type="int" name="NPACO">   256</i>
   <i name="APACO">     16.00000000</i>
  </separator>
  <separator name="symmetry" >
   <i type="int" name="ISYM">     0</i>
   <i name="SYMPREC">      0.00001000</i>
  </separator>
  <separator name="dos" >
   <i type="int" name="LORBIT">     0</i>
   <v name="RWIGS">     -1.00000000     -1.00000000     -1.00000000     -1.00000000     -1.00000000</v>
   <i type="int" name="NEDOS">   301</i>
   <i name="EMIN">     10.00000000</i>
   <i name="EMAX">    -10.00000000</i>
   <i name="EFERMI">      0.00000000</i>
  </separator>
  <separator name="writing" >
   <i type="int" name="NWRITE">     2</i>
   <i type="logical" name="LWAVE"> F  </i>
   <i type="logical" name="LDOWNSAMPLE"> F  </i>
   <i type="logical" name="LCHARG"> F  </i>
   <i type="logical" name="LPARD"> F  </i>
   <i type="logical" name="LVTOT"> F  </i>
   <i type="logical" name="LVHAR"> F  </i>
   <i type="logical" name="LELF"> F  </i>
   <i type="logical" name="LOPTICS"> F  </i>
   <v name="STM">      0.00000000      0.00000000      0.00000000      0.00000000      0.00000000      0.00000000      0.00000000</v>
  </separator>
  <separator name="performance" >
   <i type="int" name="NPAR">     8</i>
   <i type="int" name="NSIM">     4</i>
   <i type="int" name="NBLK">    -1</i>
   <i type="logical" name="LPLANE"> T  </i>
   <i type="logical" name="LSCALAPACK"> T  </i>
   <i type="logical" name="LSCAAWARE"> T  </i>
   <i type="logical" name="LSCALU"> F  </i>
   <i type="logical" name="LASYNC"> F  </i>
   <i type="logical" name="LORBITALREAL"> F  </i>
  </separator>
  <separator name="miscellaneous" >
   <i type="int" name="IDIOT">     3</i>
   <i type="int" name="ISPECIAL">     0</i>
   <i type="logical" name="LMUSIC"> F  </i>
   <v name="POMASS">     16.00000000    138.90000000     91.22400000      7.01000000     26.98100000</v>
   <v name="DARWINR">      0.00000000      0.00000000      0.00000000      0.00000000      0.00000000</v>
   <v name="DARWINV">      1.00000000      1.00000000      1.00000000      1.00000000      1.00000000</v>
   <i type="logical" name="LCORR"> T  </i>
  </separator>
  <i type="logical" name="GGA_COMPAT"> T  </i>
  <i type="logical" name="LBERRY"> F  </i>
  <i type="int" name="ICORELEVEL">     0</i>
  <i type="logical" name="LDAU"> F  </i>
  <i type="int" name="I_CONSTRAINED_M">     0</i>
  <separator name="electronic exchange-correlation" >
   <i type="string" name="GGA">--</i>
   <i type="int" name="VOSKOWN">     0</i>
   <i type="logical" name="LHFCALC"> F  </i>
   <i type="string" name="PRECFOCK"></i>
   <i type="logical" name="LSYMGRAD"> F  </i>
   <i type="logical" name="LHFONE"> F  </i>
   <i type="logical" name="LRHFCALC"> F  </i>
   <i type="logical" name="LTHOMAS"> F  </i>
   <i type="logical" name="LMODELHF"> F  </i>
   <i name="ENCUT4O">     -1.00000000</i>
   <i type="int" name="EXXOEP">     0</i>
   <i type="int" name="FOURORBIT">     0</i>
   <i name="AEXX">      0.00000000</i>
   <i name="HFALPHA">      0.00000000</i>
   <i name="MCALPHA">      0.00000000</i>
   <i name="ALDAX">      1.00000000</i>
   <i name="AGGAX">      1.00000000</i>
   <i name="ALDAC">      1.00000000</i>
   <i name="AGGAC">      1.00000000</i>
   <i type="int" name="NKREDX">     1</i>
   <i type="int" name="NKREDY">     1</i>
   <i type="int" name="NKREDZ">     1</i>
   <i type="logical" name="SHIFTRED"> F  </i>
   <i type="logical" name="ODDONLY"> F  </i>
   <i type="logical" name="EVENONLY"> F  </i>
   <i type="int" name="LMAXFOCK">     0</i>
   <i type="int" name="NMAXFOCKAE">     0</i>
   <i type="logical" name="LFOCKAEDFT"> F  </i>
   <i name="HFSCREEN">      0.00000000</i>
   <i name="HFSCREENC">      0.00000000</i>
   <i type="int" name="NBANDSGWLOW">     0</i>
  </separator>
  <separator name="vdW DFT" >
   <i type="logical" name="LUSE_VDW"> F  </i>
   <i name="Zab_VDW">     -0.84910000</i>
   <i name="PARAM1">      0.12340000</i>
   <i name="PARAM2">      1.00000000</i>
   <i name="PARAM3">      0.00000000</i>
  </separator>
  <separator name="model GW" >
   <i type="int" name="MODEL_GW">     0</i>
   <i name="MODEL_EPS0">      7.03011765</i>
   <i name="MODEL_ALPHA">      1.00000000</i>
  </separator>
  <separator name="linear response parameters" >
   <i type="logical" name="LEPSILON"> F  </i>
   <i type="logical" name="LRPA"> F  </i>
   <i type="logical" name="LNABLA"> F  </i>
   <i type="logical" name="LVEL"> F  </i>
   <i type="int" name="KINTER">     0</i>
   <i name="CSHIFT">      0.10000000</i>
   <i name="OMEGAMAX">     -1.00000000</i>
   <i name="DEG_THRESHOLD">      0.00200000</i>
   <i name="RTIME">     -0.10000000</i>
   <i name="WPLASMAI">      0.00000000</i>
   <v name="DFIELD">      0.00000000      0.00000000      0.00000000</v>
   <v name="WPLASMA">      0.00000000      0.00000000      0.00000000      0.00000000      0.00000000      0.00000000      0.00000000      0.00000000      0.00000000</v>
  </separator>
  <separator name="orbital magnetization" >
   <i type="logical" name="NUCIND"> F  </i>
   <v name="MAGPOS">      0.00000000      0.00000000      0.00000000</v>
   <i type="logical" name="LNICSALL"> T  </i>
   <i type="logical" name="ORBITALMAG"> F  </i>
   <i type="logical" name="LMAGBLOCH"> F  </i>
   <i type="logical" name="LCHIMAG"> F  </i>
   <i type="logical" name="LGAUGE"> T  </i>
   <i type="int" name="MAGATOM">     0</i>
   <v name="MAGDIPOL">      0.00000000      0.00000000      0.00000000</v>
   <v name="AVECCONST">      0.00000000      0.00000000      0.00000000</v>
  </separator>
  <separator name="response functions" >
   <i type="logical" name="LADDER"> F  </i>
   <i type="logical" name="LRPAFORCE"> F  </i>
   <i type="logical" name="LFXC"> F  </i>
   <i type="logical" name="LHARTREE"> T  </i>
   <i type="int" name="IBSE">     0</i>
   <v type="int" name="KPOINT">    -1     0     0     0</v>
   <i type="logical" name="LTCTE"> F  </i>
   <i type="logical" name="LTETE"> F  </i>
   <i type="logical" name="LTRIPLET"> F  </i>
   <i type="logical" name="LFXCEPS"> F  </i>
   <i type="logical" name="LFXHEG"> F  </i>
   <i type="int" name="NATURALO">     2</i>
   <i type="logical" name="L2ORDER"> F  </i>
   <i type="logical" name="LMP2LT"> F  </i>
   <i type="logical" name="LUSEW"> F  </i>
   <i name="ENCUTGW">     -2.00000000</i>
   <i name="ENCUTGWSOFT">     -2.00000000</i>
   <i name="ENCUTLF">     -1.00000000</i>
   <i type="int" name="LMAXMP2">    -1</i>
   <i name="SCISSOR">      0.00000000</i>
   <i type="int" name="NOMEGA">     0</i>
   <i type="int" name="NOMEGAR">     0</i>
   <i type="int" name="NBANDSGW">    -1</i>
   <i type="int" name="NBANDSO">    -1</i>
   <i type="int" name="NBANDSV">    -1</i>
   <i type="int" name="NELM">     1</i>
   <i type="int" name="NELMHF">     1</i>
   <i type="int" name="DIM">     3</i>
   <i type="int" name="ANTIRES">     0</i>
   <i name="OMEGAMAX">    -30.00000000</i>
   <i name="OMEGAMIN">    -30.00000000</i>
   <i name="OMEGATL">   -200.00000000</i>
   <i type="int" name="OMEGAGRID">   140</i>
   <i name="CSHIFT">     -0.10000000</i>
   <i type="logical" name="SELFENERGY"> F  </i>
   <i type="logical" name="LSPECTRAL"> F  </i>
   <i type="logical" name="LSPECTRALGW"> F  </i>
   <i type="logical" name="LSINGLES"> F  </i>
   <i type="logical" name="LFERMIGW"> F  </i>
   <i type="logical" name="ODDONLYGW"> F  </i>
   <i type="logical" name="EVENONLYGW"> F  </i>
   <i type="int" name="NKREDLFX">     1</i>
   <i type="int" name="NKREDLFY">     1</i>
   <i type="int" name="NKREDLFZ">     1</i>
   <i type="int" name="MAXMEM">  2800</i>
   <i type="int" name="TELESCOPE">     0</i>
   <i type="int" name="TAUPAR">     1</i>
   <i type="int" name="OMEGAPAR">    -1</i>
   <i name="LAMBDA">      1.00000000</i>
  </separator>
  <separator name="External order field" >
   <i name="OFIELD_KAPPA">      0.00000000</i>
   <v name="OFIELD_K">      0.00000000      0.00000000      0.00000000</v>
   <i name="OFIELD_Q6_NEAR">      0.00000000</i>
   <i name="OFIELD_Q6_FAR">      0.00000000</i>
   <i name="OFIELD_A">      0.00000000</i>
  </separator>
 </parameters>
 <atominfo>
  <atoms>     186 </atoms>
  <types>       5 </types>
  <array name="atoms" >
   <dimension dim="1">ion</dimension>
   <field type="string">element</field>
   <field type="int">atomtype</field>
   <set>
    <rc><c>O </c><c>   1</c></rc>
    <rc><c>O </c><c>   1</c></rc>
    <rc><c>O </c><c>   1</c></rc>
    <rc><c>O </c><c>   1</c></rc>
    <rc><c>O </c><c>   1</c></rc>
    <rc><c>O </c><c>   1</c></rc>
    <rc><c>O </c><c>   1</c></rc>
    <rc><c>O </c><c>   1</c></rc>
    <rc><c>O </c><c>   1</c></rc>
    <rc><c>O </c><c>   1</c></rc>
    <rc><c>O </c><c>   1</c></rc>
    <rc><c>O </c><c>   1</c></rc>
    <rc><c>O </c><c>   1</c></rc>
    <rc><c>O </c><c>   1</c></rc>
    <rc><c>O </c><c>   1</c></rc>
    <rc><c>O </c><c>   1</c></rc>
    <rc><c>O </c><c>   1</c></rc>
    <rc><c>O </c><c>   1</c></rc>
    <rc><c>O </c><c>   1</c></rc>
    <rc><c>O </c><c>   1</c></rc>
    <rc><c>O </c><c>   1</c></rc>
    <rc><c>O </c><c>   1</c></rc>
    <rc><c>O </c><c>   1</c></rc>
    <rc><c>O </c><c>   1</c></rc>
    <rc><c>O </c><c>   1</c></rc>
    <rc><c>O </c><c>   1</c></rc>
    <rc><c>O </c><c>   1</c></rc>
    <rc><c>O </c><c>   1</c></rc>
    <rc><c>O </c><c>   1</c></rc>
    <rc><c>O </c><c>   1</c></rc>
    <rc><c>O </c><c>   1</c></rc>
    <rc><c>O </c><c>   1</c></rc>
    <rc><c>O </c><c>   1</c></rc>
    <rc><c>O </c><c>   1</c></rc>
    <rc><c>O </c><c>   1</c></rc>
    <rc><c>O </c><c>   1</c></rc>
    <rc><c>O </c><c>   1</c></rc>
    <rc><c>O </c><c>   1</c></rc>
    <rc><c>O </c><c>   1</c></rc>
    <rc><c>O </c><c>   1</c></rc>
    <rc><c>O </c><c>   1</c></rc>
    <rc><c>O </c><c>   1</c></rc>
    <rc><c>O </c><c>   1</c></rc>
    <rc><c>O </c><c>   1</c></rc>
    <rc><c>O </c><c>   1</c></rc>
    <rc><c>O </c><c>   1</c></rc>
    <rc><c>O </c><c>   1</c></rc>
    <rc><c>O </c><c>   1</c></rc>
    <rc><c>O </c><c>   1</c></rc>
    <rc><c>O </c><c>   1</c></rc>
    <rc><c>O </c><c>   1</c></rc>
    <rc><c>O </c><c>   1</c></rc>
    <rc><c>O </c><c>   1</c></rc>
    <rc><c>O </c><c>   1</c></rc>
    <rc><c>O </c><c>   1</c></rc>
    <rc><c>O </c><c>   1</c></rc>
    <rc><c>O </c><c>   1</c></rc>
    <rc><c>O </c><c>   1</c></rc>
    <rc><c>O </c><c>   1</c></rc>
    <rc><c>O </c><c>   1</c></rc>
    <rc><c>O </c><c>   1</c></rc>
    <rc><c>O </c><c>   1</c></rc>
    <rc><c>O </c><c>   1</c></rc>
    <rc><c>O </c><c>   1</c></rc>
    <rc><c>O </c><c>   1</c></rc>
    <rc><c>O </c><c>   1</c></rc>
    <rc><c>O </c><c>   1</c></rc>
    <rc><c>O </c><c>   1</c></rc>
    <rc><c>O </c><c>   1</c></rc>
    <rc><c>O </c><c>   1</c></rc>
    <rc><c>O </c><c>   1</c></rc>
    <rc><c>O </c><c>   1</c></rc>
    <rc><c>O </c><c>   1</c></rc>
    <rc><c>O </c><c>   1</c></rc>
    <rc><c>O </c><c>   1</c></rc>
    <rc><c>O </c><c>   1</c></rc>
    <rc><c>O </c><c>   1</c></rc>
    <rc><c>O </c><c>   1</c></rc>
    <rc><c>O </c><c>   1</c></rc>
    <rc><c>O </c><c>   1</c></rc>
    <rc><c>O </c><c>   1</c></rc>
    <rc><c>O </c><c>   1</c></rc>
    <rc><c>O </c><c>   1</c></rc>
    <rc><c>O </c><c>   1</c></rc>
    <rc><c>O </c><c>   1</c></rc>
    <rc><c>O </c><c>   1</c></rc>
    <rc><c>O </c><c>   1</c></rc>
    <rc><c>O </c><c>   1</c></rc>
    <rc><c>O </c><c>   1</c></rc>
    <rc><c>O </c><c>   1</c></rc>
    <rc><c>O </c><c>   1</c></rc>
    <rc><c>O </c><c>   1</c></rc>
    <rc><c>O </c><c>   1</c></rc>
    <rc><c>O </c><c>   1</c></rc>
    <rc><c>O </c><c>   1</c></rc>
    <rc><c>O </c><c>   1</c></rc>
    <rc><c>La</c><c>   2</c></rc>
    <rc><c>La</c><c>   2</c></rc>
    <rc><c>La</c><c>   2</c></rc>
    <rc><c>La</c><c>   2</c></rc>
    <rc><c>La</c><c>   2</c></rc>
    <rc><c>La</c><c>   2</c></rc>
    <rc><c>La</c><c>   2</c></rc>
    <rc><c>La</c><c>   2</c></rc>
    <rc><c>La</c><c>   2</c></rc>
    <rc><c>La</c><c>   2</c></rc>
    <rc><c>La</c><c>   2</c></rc>
    <rc><c>La</c><c>   2</c></rc>
    <rc><c>La</c><c>   2</c></rc>
    <rc><c>La</c><c>   2</c></rc>
    <rc><c>La</c><c>   2</c></rc>
    <rc><c>La</c><c>   2</c></rc>
    <rc><c>La</c><c>   2</c></rc>
    <rc><c>La</c><c>   2</c></rc>
    <rc><c>La</c><c>   2</c></rc>
    <rc><c>La</c><c>   2</c></rc>
    <rc><c>La</c><c>   2</c></rc>
    <rc><c>La</c><c>   2</c></rc>
    <rc><c>La</c><c>   2</c></rc>
    <rc><c>La</c><c>   2</c></rc>
    <rc><c>Zr</c><c>   3</c></rc>
    <rc><c>Zr</c><c>   3</c></rc>
    <rc><c>Zr</c><c>   3</c></rc>
    <rc><c>Zr</c><c>   3</c></rc>
    <rc><c>Zr</c><c>   3</c></rc>
    <rc><c>Zr</c><c>   3</c></rc>
    <rc><c>Zr</c><c>   3</c></rc>
    <rc><c>Zr</c><c>   3</c></rc>
    <rc><c>Zr</c><c>   3</c></rc>
    <rc><c>Zr</c><c>   3</c></rc>
    <rc><c>Zr</c><c>   3</c></rc>
    <rc><c>Zr</c><c>   3</c></rc>
    <rc><c>Zr</c><c>   3</c></rc>
    <rc><c>Zr</c><c>   3</c></rc>
    <rc><c>Zr</c><c>   3</c></rc>
    <rc><c>Zr</c><c>   3</c></rc>
    <rc><c>Li</c><c>   4</c></rc>
    <rc><c>Li</c><c>   4</c></rc>
    <rc><c>Li</c><c>   4</c></rc>
    <rc><c>Li</c><c>   4</c></rc>
    <rc><c>Li</c><c>   4</c></rc>
    <rc><c>Li</c><c>   4</c></rc>
    <rc><c>Li</c><c>   4</c></rc>
    <rc><c>Li</c><c>   4</c></rc>
    <rc><c>Li</c><c>   4</c></rc>
    <rc><c>Li</c><c>   4</c></rc>
    <rc><c>Li</c><c>   4</c></rc>
    <rc><c>Li</c><c>   4</c></rc>
    <rc><c>Li</c><c>   4</c></rc>
    <rc><c>Li</c><c>   4</c></rc>
    <rc><c>Li</c><c>   4</c></rc>
    <rc><c>Li</c><c>   4</c></rc>
    <rc><c>Li</c><c>   4</c></rc>
    <rc><c>Li</c><c>   4</c></rc>
    <rc><c>Li</c><c>   4</c></rc>
    <rc><c>Li</c><c>   4</c></rc>
    <rc><c>Li</c><c>   4</c></rc>
    <rc><c>Li</c><c>   4</c></rc>
    <rc><c>Li</c><c>   4</c></rc>
    <rc><c>Li</c><c>   4</c></rc>
    <rc><c>Li</c><c>   4</c></rc>
    <rc><c>Li</c><c>   4</c></rc>
    <rc><c>Li</c><c>   4</c></rc>
    <rc><c>Li</c><c>   4</c></rc>
    <rc><c>Li</c><c>   4</c></rc>
    <rc><c>Li</c><c>   4</c></rc>
    <rc><c>Li</c><c>   4</c></rc>
    <rc><c>Li</c><c>   4</c></rc>
    <rc><c>Li</c><c>   4</c></rc>
    <rc><c>Li</c><c>   4</c></rc>
    <rc><c>Li</c><c>   4</c></rc>
    <rc><c>Li</c><c>   4</c></rc>
    <rc><c>Li</c><c>   4</c></rc>
    <rc><c>Li</c><c>   4</c></rc>
    <rc><c>Li</c><c>   4</c></rc>
    <rc><c>Li</c><c>   4</c></rc>
    <rc><c>Li</c><c>   4</c></rc>
    <rc><c>Li</c><c>   4</c></rc>
    <rc><c>Li</c><c>   4</c></rc>
    <rc><c>Li</c><c>   4</c></rc>
    <rc><c>Li</c><c>   4</c></rc>
    <rc><c>Li</c><c>   4</c></rc>
    <rc><c>Li</c><c>   4</c></rc>
    <rc><c>Al</c><c>   5</c></rc>
    <rc><c>Al</c><c>   5</c></rc>
    <rc><c>Al</c><c>   5</c></rc>
   </set>
  </array>
  <array name="atomtypes" >
   <dimension dim="1">type</dimension>
   <field type="int">atomspertype</field>
   <field type="string">element</field>
   <field>mass</field>
   <field>valence</field>
   <field type="string">pseudopotential</field>
   <set>
    <rc><c>  96</c><c>O </c><c>     16.00000000</c><c>      6.00000000</c><c>  PAW_PBE O 08Apr2002                   </c></rc>
    <rc><c>  24</c><c>La</c><c>    138.90000000</c><c>     11.00000000</c><c>  PAW_PBE La 06Sep2000                  </c></rc>
    <rc><c>  16</c><c>Zr</c><c>     91.22400000</c><c>     12.00000000</c><c>  PAW_PBE Zr_sv 04Jan2005               </c></rc>
    <rc><c>  47</c><c>Li</c><c>      7.01000000</c><c>      1.00000000</c><c>  PAW_PBE Li 17Jan2003                  </c></rc>
    <rc><c>   3</c><c>Al</c><c>     26.98100000</c><c>      3.00000000</c><c>  PAW_PBE Al 04Jan2001                  </c></rc>
   </set>
  </array>
 </atominfo>
 <structure name="initialpos" >
  <crystal>
   <varray name="basis" >
    <v>      12.96520042       0.00000000       0.00000000 </v>
    <v>       0.00000000      12.96500015       0.00000000 </v>
    <v>       0.00000000       0.00000000      12.96500015 </v>
   </varray>
   <i name="volume">   2179.33647298 </i>
   <varray name="rec_basis" >
    <v>       0.07712954       0.00000000       0.00000000 </v>
    <v>       0.00000000       0.07713074       0.00000000 </v>
    <v>       0.00000000       0.00000000       0.07713074 </v>
   </varray>
  </crystal>
  <varray name="positions" >
   <v>       0.10000000       0.19560000       0.28160000 </v>
   <v>       0.89999998       0.80439997       0.71840000 </v>
   <v>       0.40000001       0.80439997       0.78160000 </v>
   <v>       0.60000002       0.19560000       0.21840000 </v>
   <v>       0.89999998       0.69560003       0.21840000 </v>
   <v>       0.10000000       0.30440000       0.78160000 </v>
   <v>       0.60000002       0.30440000       0.71840000 </v>
   <v>       0.40000001       0.69560003       0.28160000 </v>
   <v>       0.28160000       0.10000000       0.19560000 </v>
   <v>       0.71840000       0.89999998       0.80439997 </v>
   <v>       0.78160000       0.40000001       0.80439997 </v>
   <v>       0.21840000       0.60000002       0.19560000 </v>
   <v>       0.21840000       0.89999998       0.69560003 </v>
   <v>       0.78160000       0.10000000       0.30440000 </v>
   <v>       0.71840000       0.60000002       0.30440000 </v>
   <v>       0.28160000       0.40000001       0.69560003 </v>
   <v>       0.19560000       0.28160000       0.10000000 </v>
   <v>       0.80439997       0.71840000       0.89999998 </v>
   <v>       0.80439997       0.78160000       0.40000001 </v>
   <v>       0.19560000       0.21840000       0.60000002 </v>
   <v>       0.69560003       0.21840000       0.89999998 </v>
   <v>       0.30440000       0.78160000       0.10000000 </v>
   <v>       0.30440000       0.71840000       0.60000002 </v>
   <v>       0.69560003       0.28160000       0.40000001 </v>
   <v>       0.94560003       0.34999999       0.96840000 </v>
   <v>       0.05440000       0.64999998       0.03160000 </v>
   <v>       0.55439997       0.64999998       0.46840000 </v>
   <v>       0.44560000       0.34999999       0.53160000 </v>
   <v>       0.44560000       0.15000001       0.03160000 </v>
   <v>       0.55439997       0.85000002       0.96840000 </v>
   <v>       0.05440000       0.85000002       0.53160000 </v>
   <v>       0.94560003       0.15000001       0.46840000 </v>
   <v>       0.85000002       0.53160000       0.05440000 </v>
   <v>       0.15000001       0.46840000       0.94560003 </v>
   <v>       0.15000001       0.03160000       0.44560000 </v>
   <v>       0.85000002       0.96840000       0.55439997 </v>
   <v>       0.64999998       0.46840000       0.55439997 </v>
   <v>       0.34999999       0.53160000       0.44560000 </v>
   <v>       0.34999999       0.96840000       0.94560003 </v>
   <v>       0.64999998       0.03160000       0.05440000 </v>
   <v>       0.03160000       0.44560000       0.15000001 </v>
   <v>       0.96840000       0.55439997       0.85000002 </v>
   <v>       0.53160000       0.05440000       0.85000002 </v>
   <v>       0.46840000       0.94560003       0.15000001 </v>
   <v>       0.96840000       0.94560003       0.34999999 </v>
   <v>       0.03160000       0.05440000       0.64999998 </v>
   <v>       0.46840000       0.55439997       0.64999998 </v>
   <v>       0.53160000       0.44560000       0.34999999 </v>
   <v>       0.60000002       0.69560003       0.78160000 </v>
   <v>       0.40000001       0.30440000       0.21840000 </v>
   <v>       0.89999998       0.30440000       0.28160000 </v>
   <v>       0.10000000       0.69560003       0.71840000 </v>
   <v>       0.40000001       0.19560000       0.71840000 </v>
   <v>       0.60000002       0.80439997       0.28160000 </v>
   <v>       0.10000000       0.80439997       0.21840000 </v>
   <v>       0.89999998       0.19560000       0.78160000 </v>
   <v>       0.78160000       0.60000002       0.69560003 </v>
   <v>       0.21840000       0.40000001       0.30440000 </v>
   <v>       0.28160000       0.89999998       0.30440000 </v>
   <v>       0.71840000       0.10000000       0.69560003 </v>
   <v>       0.71840000       0.40000001       0.19560000 </v>
   <v>       0.28160000       0.60000002       0.80439997 </v>
   <v>       0.21840000       0.10000000       0.80439997 </v>
   <v>       0.78160000       0.89999998       0.19560000 </v>
   <v>       0.69560003       0.78160000       0.60000002 </v>
   <v>       0.30440000       0.21840000       0.40000001 </v>
   <v>       0.30440000       0.28160000       0.89999998 </v>
   <v>       0.69560003       0.71840000       0.10000000 </v>
   <v>       0.19560000       0.71840000       0.40000001 </v>
   <v>       0.80439997       0.28160000       0.60000002 </v>
   <v>       0.80439997       0.21840000       0.10000000 </v>
   <v>       0.19560000       0.78160000       0.89999998 </v>
   <v>       0.44560000       0.85000002       0.46840000 </v>
   <v>       0.55439997       0.15000001       0.53160000 </v>
   <v>       0.05440000       0.15000001       0.96840000 </v>
   <v>       0.94560003       0.85000002       0.03160000 </v>
   <v>       0.94560003       0.64999998       0.53160000 </v>
   <v>       0.05440000       0.34999999       0.46840000 </v>
   <v>       0.55439997       0.34999999       0.03160000 </v>
   <v>       0.44560000       0.64999998       0.96840000 </v>
   <v>       0.34999999       0.03160000       0.55439997 </v>
   <v>       0.64999998       0.96840000       0.44560000 </v>
   <v>       0.64999998       0.53160000       0.94560003 </v>
   <v>       0.34999999       0.46840000       0.05440000 </v>
   <v>       0.15000001       0.96840000       0.05440000 </v>
   <v>       0.85000002       0.03160000       0.94560003 </v>
   <v>       0.85000002       0.46840000       0.44560000 </v>
   <v>       0.15000001       0.53160000       0.55439997 </v>
   <v>       0.53160000       0.94560003       0.64999998 </v>
   <v>       0.46840000       0.05440000       0.34999999 </v>
   <v>       0.03160000       0.55439997       0.34999999 </v>
   <v>       0.96840000       0.44560000       0.64999998 </v>
   <v>       0.46840000       0.44560000       0.85000002 </v>
   <v>       0.53160000       0.55439997       0.15000001 </v>
   <v>       0.96840000       0.05440000       0.15000001 </v>
   <v>       0.03160000       0.94560003       0.85000002 </v>
   <v>       0.12500000       0.00000000       0.25000000 </v>
   <v>       0.87500000       0.00000000       0.75000000 </v>
   <v>       0.37500000       0.00000000       0.75000000 </v>
   <v>       0.62500000       0.00000000       0.25000000 </v>
   <v>       0.87500000       0.50000000       0.25000000 </v>
   <v>       0.12500000       0.50000000       0.75000000 </v>
   <v>       0.62500000       0.50000000       0.75000000 </v>
   <v>       0.37500000       0.50000000       0.25000000 </v>
   <v>       0.25000000       0.12500000       0.00000000 </v>
   <v>       0.75000000       0.87500000       0.00000000 </v>
   <v>       0.75000000       0.37500000       0.00000000 </v>
   <v>       0.25000000       0.62500000       0.00000000 </v>
   <v>       0.25000000       0.87500000       0.50000000 </v>
   <v>       0.75000000       0.12500000       0.50000000 </v>
   <v>       0.75000000       0.62500000       0.50000000 </v>
   <v>       0.25000000       0.37500000       0.50000000 </v>
   <v>       0.00000000       0.25000000       0.12500000 </v>
   <v>       0.00000000       0.75000000       0.87500000 </v>
   <v>       0.00000000       0.75000000       0.37500000 </v>
   <v>       0.00000000       0.25000000       0.62500000 </v>
   <v>       0.50000000       0.25000000       0.87500000 </v>
   <v>       0.50000000       0.75000000       0.12500000 </v>
   <v>       0.50000000       0.75000000       0.62500000 </v>
   <v>       0.50000000       0.25000000       0.37500000 </v>
   <v>       0.00000000       0.00000000       0.00000000 </v>
   <v>       0.50000000       0.00000000       0.50000000 </v>
   <v>       0.00000000       0.50000000       0.50000000 </v>
   <v>       0.50000000       0.50000000       0.00000000 </v>
   <v>       0.75000000       0.25000000       0.25000000 </v>
   <v>       0.25000000       0.75000000       0.75000000 </v>
   <v>       0.75000000       0.75000000       0.75000000 </v>
   <v>       0.25000000       0.25000000       0.25000000 </v>
   <v>       0.25000000       0.25000000       0.75000000 </v>
   <v>       0.75000000       0.75000000       0.25000000 </v>
   <v>       0.25000000       0.75000000       0.25000000 </v>
   <v>       0.75000000       0.25000000       0.75000000 </v>
   <v>       0.50000000       0.50000000       0.50000000 </v>
   <v>       0.00000000       0.50000000       0.00000000 </v>
   <v>       0.50000000       0.00000000       0.00000000 </v>
   <v>       0.00000000       0.00000000       0.50000000 </v>
   <v>       0.84909999       0.82400000       0.56229997 </v>
   <v>       0.15090001       0.82400000       0.06230000 </v>
   <v>       0.93770003       0.34909999       0.82400000 </v>
   <v>       0.93770003       0.84909999       0.17600000 </v>
   <v>       0.65090001       0.67600000       0.93770003 </v>
   <v>       0.18770000       0.42600000       0.09910000 </v>
   <v>       0.34909999       0.82400000       0.93770003 </v>
   <v>       0.56229997       0.65090001       0.32400000 </v>
   <v>       0.57400000       0.40090001       0.18770000 </v>
   <v>       0.42600000       0.59909999       0.81229997 </v>
   <v>       0.18770000       0.57400000       0.40090001 </v>
   <v>       0.84909999       0.32400000       0.43770000 </v>
   <v>       0.32400000       0.56229997       0.65090001 </v>
   <v>       0.31230000       0.92600000       0.09910000 </v>
   <v>       0.81229997       0.57400000       0.90090001 </v>
   <v>       0.06230000       0.15090001       0.82400000 </v>
   <v>       0.40090001       0.68770003       0.42600000 </v>
   <v>       0.68770003       0.57400000       0.09910000 </v>
   <v>       0.31230000       0.42600000       0.90090001 </v>
   <v>       0.40090001       0.31230000       0.07400000 </v>
   <v>       0.43770000       0.34909999       0.67600000 </v>
   <v>       0.06230000       0.84909999       0.67600000 </v>
   <v>       0.42600000       0.09910000       0.18770000 </v>
   <v>       0.07400000       0.59909999       0.18770000 </v>
   <v>       0.07400000       0.40090001       0.31230000 </v>
   <v>       0.68770003       0.07400000       0.90090001 </v>
   <v>       0.81229997       0.92600000       0.40090001 </v>
   <v>       0.56229997       0.84909999       0.82400000 </v>
   <v>       0.09910000       0.31230000       0.92600000 </v>
   <v>       0.18770000       0.92600000       0.90090001 </v>
   <v>       0.18770000       0.07400000       0.59909999 </v>
   <v>       0.84909999       0.67600000       0.06230000 </v>
   <v>       0.00000000       0.25000000       0.87500000 </v>
   <v>       0.25000000       0.12500000       0.50000000 </v>
   <v>       0.37500000       0.50000000       0.75000000 </v>
   <v>       0.75000000       0.62500000       0.00000000 </v>
   <v>       0.75000000       0.87500000       0.50000000 </v>
   <v>       0.12500000       0.00000000       0.75000000 </v>
   <v>       0.87500000       0.50000000       0.75000000 </v>
   <v>       0.00000000       0.75000000       0.62500000 </v>
   <v>       0.62500000       0.50000000       0.25000000 </v>
   <v>       0.50000000       0.25000000       0.62500000 </v>
   <v>       0.75000000       0.12500000       0.00000000 </v>
   <v>       0.87500000       0.00000000       0.25000000 </v>
   <v>       0.62500000       0.00000000       0.75000000 </v>
   <v>       0.50000000       0.25000000       0.12500000 </v>
   <v>       0.75000000       0.37500000       0.50000000 </v>
   <v>       0.50000000       0.75000000       0.87500000 </v>
   <v>       0.50000000       0.75000000       0.37500000 </v>
   <v>       0.12500000       0.50000000       0.25000000 </v>
  </varray>
 </structure>
 <calculation>
  <scstep>
   <time name="dav">    1.69    1.71</time>
   <time name="total">    1.77    1.79</time>
   <energy>
    <i name="alphaZ">   3508.59650130 </i>
    <i name="ewald"> -65642.91765314 </i>
    <i name="hartreedc"> -19483.22389258 </i>
    <i name="XCdc">   3949.68730814 </i>
    <i name="pawpsdc">  65346.33952494 </i>
    <i name="pawaedc"> -64842.35312598 </i>
    <i name="eentropy">     -0.10250663 </i>
    <i name="bandstr">  19239.36507356 </i>
    <i name="atom">  83246.81458859 </i>
    <i name="e_fr_energy">  25322.20581820 </i>
    <i name="e_wo_entrp">  25322.30832483 </i>
    <i name="e_0_energy">  25322.25707152 </i>
   </energy>
  </scstep>
  <scstep>
   <time name="dav">    1.57    1.58</time>
   <time name="total">    1.57    1.59</time>
   <energy>
    <i name="e_fr_energy">   9453.43082229 </i>
    <i name="e_wo_entrp">   9453.82225109 </i>
    <i name="e_0_energy">   9453.62653669 </i>
   </energy>
  </scstep>
  <scstep>
   <time name="dav">    1.62    1.63</time>
   <time name="total">    1.62    1.64</time>
   <energy>
    <i name="e_fr_energy">   2660.25969096 </i>
    <i name="e_wo_entrp">   2661.98512916 </i>
    <i name="e_0_energy">   2661.12241006 </i>
   </energy>
  </scstep>
  <scstep>
   <time name="dav">    2.02    2.04</time>
   <time name="total">    2.02    2.04</time>
   <energy>
    <i name="e_fr_energy">   -357.19008594 </i>
    <i name="e_wo_entrp">   -355.53085723 </i>
    <i name="e_0_energy">   -356.36047159 </i>
   </energy>
  </scstep>
  <scstep>
   <time name="dav">    2.51    2.53</time>
   <time name="total">    2.56    2.59</time>
   <energy>
    <i name="e_fr_energy">  -1389.62521333 </i>
    <i name="e_wo_entrp">  -1389.62521333 </i>
    <i name="e_0_energy">  -1389.62521333 </i>
   </energy>
  </scstep>
  <scstep>
   <time name="dav">    2.30    2.33</time>
   <time name="total">    2.43    2.45</time>
   <energy>
    <i name="e_fr_energy">  -1283.93432321 </i>
    <i name="e_wo_entrp">  -1283.93432321 </i>
    <i name="e_0_energy">  -1283.93432321 </i>
   </energy>
  </scstep>
  <scstep>
   <time name="dav">    2.46    2.49</time>
   <time name="total">    2.59    2.61</time>
   <energy>
    <i name="e_fr_energy">  -1307.11197323 </i>
    <i name="e_wo_entrp">  -1306.80258885 </i>
    <i name="e_0_energy">  -1306.95728104 </i>
   </energy>
  </scstep>
  <scstep>
   <time name="dav">    2.47    2.51</time>
   <time name="total">    2.59    2.63</time>
   <energy>
    <i name="e_fr_energy">  -1309.94456962 </i>
    <i name="e_wo_entrp">  -1309.94456962 </i>
    <i name="e_0_energy">  -1309.94456962 </i>
   </energy>
  </scstep>
  <scstep>
   <time name="dav">    2.61    2.63</time>
   <time name="total">    2.73    2.76</time>
   <energy>
    <i name="e_fr_energy">  -1308.65082171 </i>
    <i name="e_wo_entrp">  -1308.65081183 </i>
    <i name="e_0_energy">  -1308.65081677 </i>
   </energy>
  </scstep>
  <scstep>
   <time name="dav">    2.59    2.62</time>
   <time name="total">    2.72    2.75</time>
   <energy>
    <i name="e_fr_energy">  -1308.22665856 </i>
    <i name="e_wo_entrp">  -1308.10085853 </i>
    <i name="e_0_energy">  -1308.16375855 </i>
   </energy>
  </scstep>
  <scstep>
   <time name="dav">    2.41    2.43</time>
   <time name="total">    2.53    2.56</time>
   <energy>
    <i name="e_fr_energy">  -1308.53141693 </i>
    <i name="e_wo_entrp">  -1308.38381226 </i>
    <i name="e_0_energy">  -1308.45761460 </i>
   </energy>
  </scstep>
  <scstep>
   <time name="dav">    2.39    2.41</time>
   <time name="total">    2.51    2.53</time>
   <energy>
    <i name="e_fr_energy">  -1308.63549423 </i>
    <i name="e_wo_entrp">  -1308.48500932 </i>
    <i name="e_0_energy">  -1308.56025177 </i>
   </energy>
  </scstep>
  <scstep>
   <time name="dav">    2.44    2.48</time>
   <time name="total">    2.57    2.61</time>
   <energy>
    <i name="e_fr_energy">  -1308.58986588 </i>
    <i name="e_wo_entrp">  -1308.56409036 </i>
    <i name="e_0_energy">  -1308.57697812 </i>
   </energy>
  </scstep>
  <scstep>
   <time name="dav">    2.26    2.28</time>
   <time name="total">    2.38    2.41</time>
   <energy>
    <i name="e_fr_energy">  -1308.55405824 </i>
    <i name="e_wo_entrp">  -1308.42565726 </i>
    <i name="e_0_energy">  -1308.48985775 </i>
   </energy>
  </scstep>
  <scstep>
   <time name="dav">    2.32    2.35</time>
   <time name="total">    2.45    2.47</time>
   <energy>
    <i name="e_fr_energy">  -1308.54086731 </i>
    <i name="e_wo_entrp">  -1308.47812159 </i>
    <i name="e_0_energy">  -1308.50949445 </i>
   </energy>
  </scstep>
  <scstep>
   <time name="dav">    2.35    2.37</time>
   <time name="total">    2.47    2.50</time>
   <energy>
    <i name="e_fr_energy">  -1308.53706072 </i>
    <i name="e_wo_entrp">  -1308.46095458 </i>
    <i name="e_0_energy">  -1308.49900765 </i>
   </energy>
  </scstep>
  <scstep>
   <time name="dav">    2.43    2.45</time>
   <time name="total">    2.56    2.58</time>
   <energy>
    <i name="e_fr_energy">  -1308.53649456 </i>
    <i name="e_wo_entrp">  -1308.45311963 </i>
    <i name="e_0_energy">  -1308.49480709 </i>
   </energy>
  </scstep>
  <scstep>
   <time name="dav">    2.14    2.16</time>
   <time name="total">    2.26    2.28</time>
   <energy>
    <i name="e_fr_energy">  -1308.53729589 </i>
    <i name="e_wo_entrp">  -1308.45647556 </i>
    <i name="e_0_energy">  -1308.49688572 </i>
   </energy>
  </scstep>
  <scstep>
   <time name="dav">    2.44    2.47</time>
   <time name="total">    2.57    2.60</time>
   <energy>
    <i name="e_fr_energy">  -1308.53609513 </i>
    <i name="e_wo_entrp">  -1308.44438001 </i>
    <i name="e_0_energy">  -1308.49023757 </i>
   </energy>
  </scstep>
  <scstep>
   <time name="dav">    2.38    2.43</time>
   <time name="total">    2.51    2.55</time>
   <energy>
    <i name="e_fr_energy">  -1308.53572134 </i>
    <i name="e_wo_entrp">  -1308.44213866 </i>
    <i name="e_0_energy">  -1308.48893000 </i>
   </energy>
  </scstep>
  <scstep>
   <time name="dav">    2.30    2.32</time>
   <time name="total">    2.43    2.45</time>
   <energy>
    <i name="e_fr_energy">  -1308.53560998 </i>
    <i name="e_wo_entrp">  -1308.44201886 </i>
    <i name="e_0_energy">  -1308.48881442 </i>
   </energy>
  </scstep>
  <scstep>
   <time name="dav">    2.58    2.61</time>
   <time name="total">    2.71    2.73</time>
   <energy>
    <i name="e_fr_energy">  -1308.53560733 </i>
    <i name="e_wo_entrp">  -1308.44229234 </i>
    <i name="e_0_energy">  -1308.48894983 </i>
   </energy>
  </scstep>
  <scstep>
   <time name="dav">    2.37    2.39</time>
   <time name="total">    2.49    2.51</time>
   <energy>
    <i name="e_fr_energy">  -1308.53559679 </i>
    <i name="e_wo_entrp">  -1308.44139430 </i>
    <i name="e_0_energy">  -1308.48849554 </i>
   </energy>
  </scstep>
  <scstep>
   <time name="dav">    2.32    2.34</time>
   <time name="total">    2.44    2.47</time>
   <energy>
    <i name="e_fr_energy">  -1308.53560134 </i>
    <i name="e_wo_entrp">  -1308.44124019 </i>
    <i name="e_0_energy">  -1308.48842076 </i>
   </energy>
  </scstep>
  <scstep>
   <time name="dav">    1.62    1.64</time>
   <time name="total">    1.75    1.76</time>
   <energy>
    <i name="e_fr_energy">  -1308.53560174 </i>
    <i name="e_wo_entrp">  -1308.44083319 </i>
    <i name="e_0_energy">  -1308.48821746 </i>
   </energy>
  </scstep>
  <scstep>
   <time name="dav">    1.19    1.21</time>
   <time name="total">    1.26    1.28</time>
   <energy>
    <i name="alphaZ">   3508.59650130 </i>
    <i name="ewald"> -65642.91765314 </i>
    <i name="hartreedc"> -20642.44991883 </i>
    <i name="XCdc">   4048.50116030 </i>
    <i name="pawpsdc"> 103238.45742374 </i>
    <i name="pawaedc">-102809.94377693 </i>
    <i name="eentropy">     -0.09460221 </i>
    <i name="bandstr">  -6255.49932529 </i>
    <i name="atom">  83246.81458859 </i>
    <i name="e_fr_energy">  -1308.53560247 </i>
    <i name="e_wo_entrp">  -1308.44100025 </i>
    <i name="e_0_energy">  -1308.48830136 </i>
   </energy>
  </scstep>
  <structure>
   <crystal>
    <varray name="basis" >
     <v>      12.96520042       0.00000000       0.00000000 </v>
     <v>       0.00000000      12.96500015       0.00000000 </v>
     <v>       0.00000000       0.00000000      12.96500015 </v>
    </varray>
    <i name="volume">   2179.33647298 </i>
    <varray name="rec_basis" >
     <v>       0.07712954       0.00000000       0.00000000 </v>
     <v>       0.00000000       0.07713074       0.00000000 </v>
     <v>       0.00000000       0.00000000       0.07713074 </v>
    </varray>
   </crystal>
   <varray name="positions" >
    <v>       0.10000000       0.19560000       0.28160000 </v>
    <v>       0.89999998       0.80439997       0.71840000 </v>
    <v>       0.40000001       0.80439997       0.78160000 </v>
    <v>       0.60000002       0.19560000       0.21840000 </v>
    <v>       0.89999998       0.69560003       0.21840000 </v>
    <v>       0.10000000       0.30440000       0.78160000 </v>
    <v>       0.60000002       0.30440000       0.71840000 </v>
    <v>       0.40000001       0.69560003       0.28160000 </v>
    <v>       0.28160000       0.10000000       0.19560000 </v>
    <v>       0.71840000       0.89999998       0.80439997 </v>
    <v>       0.78160000       0.40000001       0.80439997 </v>
    <v>       0.21840000       0.60000002       0.19560000 </v>
    <v>       0.21840000       0.89999998       0.69560003 </v>
    <v>       0.78160000       0.10000000       0.30440000 </v>
    <v>       0.71840000       0.60000002       0.30440000 </v>
    <v>       0.28160000       0.40000001       0.69560003 </v>
    <v>       0.19560000       0.28160000       0.10000000 </v>
    <v>       0.80439997       0.71840000       0.89999998 </v>
    <v>       0.80439997       0.78160000       0.40000001 </v>
    <v>       0.19560000       0.21840000       0.60000002 </v>
    <v>       0.69560003       0.21840000       0.89999998 </v>
    <v>       0.30440000       0.78160000       0.10000000 </v>
    <v>       0.30440000       0.71840000       0.60000002 </v>
    <v>       0.69560003       0.28160000       0.40000001 </v>
    <v>       0.94560003       0.34999999       0.96840000 </v>
    <v>       0.05440000       0.64999998       0.03160000 </v>
    <v>       0.55439997       0.64999998       0.46840000 </v>
    <v>       0.44560000       0.34999999       0.53160000 </v>
    <v>       0.44560000       0.15000001       0.03160000 </v>
    <v>       0.55439997       0.85000002       0.96840000 </v>
    <v>       0.05440000       0.85000002       0.53160000 </v>
    <v>       0.94560003       0.15000001       0.46840000 </v>
    <v>       0.85000002       0.53160000       0.05440000 </v>
    <v>       0.15000001       0.46840000       0.94560003 </v>
    <v>       0.15000001       0.03160000       0.44560000 </v>
    <v>       0.85000002       0.96840000       0.55439997 </v>
    <v>       0.64999998       0.46840000       0.55439997 </v>
    <v>       0.34999999       0.53160000       0.44560000 </v>
    <v>       0.34999999       0.96840000       0.94560003 </v>
    <v>       0.64999998       0.03160000       0.05440000 </v>
    <v>       0.03160000       0.44560000       0.15000001 </v>
    <v>       0.96840000       0.55439997       0.85000002 </v>
    <v>       0.53160000       0.05440000       0.85000002 </v>
    <v>       0.46840000       0.94560003       0.15000001 </v>
    <v>       0.96840000       0.94560003       0.34999999 </v>
    <v>       0.03160000       0.05440000       0.64999998 </v>
    <v>       0.46840000       0.55439997       0.64999998 </v>
    <v>       0.53160000       0.44560000       0.34999999 </v>
    <v>       0.60000002       0.69560003       0.78160000 </v>
    <v>       0.40000001       0.30440000       0.21840000 </v>
    <v>       0.89999998       0.30440000       0.28160000 </v>
    <v>       0.10000000       0.69560003       0.71840000 </v>
    <v>       0.40000001       0.19560000       0.71840000 </v>
    <v>       0.60000002       0.80439997       0.28160000 </v>
    <v>       0.10000000       0.80439997       0.21840000 </v>
    <v>       0.89999998       0.19560000       0.78160000 </v>
    <v>       0.78160000       0.60000002       0.69560003 </v>
    <v>       0.21840000       0.40000001       0.30440000 </v>
    <v>       0.28160000       0.89999998       0.30440000 </v>
    <v>       0.71840000       0.10000000       0.69560003 </v>
    <v>       0.71840000       0.40000001       0.19560000 </v>
    <v>       0.28160000       0.60000002       0.80439997 </v>
    <v>       0.21840000       0.10000000       0.80439997 </v>
    <v>       0.78160000       0.89999998       0.19560000 </v>
    <v>       0.69560003       0.78160000       0.60000002 </v>
    <v>       0.30440000       0.21840000       0.40000001 </v>
    <v>       0.30440000       0.28160000       0.89999998 </v>
    <v>       0.69560003       0.71840000       0.10000000 </v>
    <v>       0.19560000       0.71840000       0.40000001 </v>
    <v>       0.80439997       0.28160000       0.60000002 </v>
    <v>       0.80439997       0.21840000       0.10000000 </v>
    <v>       0.19560000       0.78160000       0.89999998 </v>
    <v>       0.44560000       0.85000002       0.46840000 </v>
    <v>       0.55439997       0.15000001       0.53160000 </v>
    <v>       0.05440000       0.15000001       0.96840000 </v>
    <v>       0.94560003       0.85000002       0.03160000 </v>
    <v>       0.94560003       0.64999998       0.53160000 </v>
    <v>       0.05440000       0.34999999       0.46840000 </v>
    <v>       0.55439997       0.34999999       0.03160000 </v>
    <v>       0.44560000       0.64999998       0.96840000 </v>
    <v>       0.34999999       0.03160000       0.55439997 </v>
    <v>       0.64999998       0.96840000       0.44560000 </v>
    <v>       0.64999998       0.53160000       0.94560003 </v>
    <v>       0.34999999       0.46840000       0.05440000 </v>
    <v>       0.15000001       0.96840000       0.05440000 </v>
    <v>       0.85000002       0.03160000       0.94560003 </v>
    <v>       0.85000002       0.46840000       0.44560000 </v>
    <v>       0.15000001       0.53160000       0.55439997 </v>
    <v>       0.53160000       0.94560003       0.64999998 </v>
    <v>       0.46840000       0.05440000       0.34999999 </v>
    <v>       0.03160000       0.55439997       0.34999999 </v>
    <v>       0.96840000       0.44560000       0.64999998 </v>
    <v>       0.46840000       0.44560000       0.85000002 </v>
    <v>       0.53160000       0.55439997       0.15000001 </v>
    <v>       0.96840000       0.05440000       0.15000001 </v>
    <v>       0.03160000       0.94560003       0.85000002 </v>
    <v>       0.12500000       0.00000000       0.25000000 </v>
    <v>       0.87500000       0.00000000       0.75000000 </v>
    <v>       0.37500000       0.00000000       0.75000000 </v>
    <v>       0.62500000       0.00000000       0.25000000 </v>
    <v>       0.87500000       0.50000000       0.25000000 </v>
    <v>       0.12500000       0.50000000       0.75000000 </v>
    <v>       0.62500000       0.50000000       0.75000000 </v>
    <v>       0.37500000       0.50000000       0.25000000 </v>
    <v>       0.25000000       0.12500000       0.00000000 </v>
    <v>       0.75000000       0.87500000       0.00000000 </v>
    <v>       0.75000000       0.37500000       0.00000000 </v>
    <v>       0.25000000       0.62500000       0.00000000 </v>
    <v>       0.25000000       0.87500000       0.50000000 </v>
    <v>       0.75000000       0.12500000       0.50000000 </v>
    <v>       0.75000000       0.62500000       0.50000000 </v>
    <v>       0.25000000       0.37500000       0.50000000 </v>
    <v>       0.00000000       0.25000000       0.12500000 </v>
    <v>       0.00000000       0.75000000       0.87500000 </v>
    <v>       0.00000000       0.75000000       0.37500000 </v>
    <v>       0.00000000       0.25000000       0.62500000 </v>
    <v>       0.50000000       0.25000000       0.87500000 </v>
    <v>       0.50000000       0.75000000       0.12500000 </v>
    <v>       0.50000000       0.75000000       0.62500000 </v>
    <v>       0.50000000       0.25000000       0.37500000 </v>
    <v>       0.00000000       0.00000000       0.00000000 </v>
    <v>       0.50000000       0.00000000       0.50000000 </v>
    <v>       0.00000000       0.50000000       0.50000000 </v>
    <v>       0.50000000       0.50000000       0.00000000 </v>
    <v>       0.75000000       0.25000000       0.25000000 </v>
    <v>       0.25000000       0.75000000       0.75000000 </v>
    <v>       0.75000000       0.75000000       0.75000000 </v>
    <v>       0.25000000       0.25000000       0.25000000 </v>
    <v>       0.25000000       0.25000000       0.75000000 </v>
    <v>       0.75000000       0.75000000       0.25000000 </v>
    <v>       0.25000000       0.75000000       0.25000000 </v>
    <v>       0.75000000       0.25000000       0.75000000 </v>
    <v>       0.50000000       0.50000000       0.50000000 </v>
    <v>       0.00000000       0.50000000       0.00000000 </v>
    <v>       0.50000000       0.00000000       0.00000000 </v>
    <v>       0.00000000       0.00000000       0.50000000 </v>
    <v>       0.84909999       0.82400000       0.56229997 </v>
    <v>       0.15090001       0.82400000       0.06230000 </v>
    <v>       0.93770003       0.34909999       0.82400000 </v>
    <v>       0.93770003       0.84909999       0.17600000 </v>
    <v>       0.65090001       0.67600000       0.93770003 </v>
    <v>       0.18770000       0.42600000       0.09910000 </v>
    <v>       0.34909999       0.82400000       0.93770003 </v>
    <v>       0.56229997       0.65090001       0.32400000 </v>
    <v>       0.57400000       0.40090001       0.18770000 </v>
    <v>       0.42600000       0.59909999       0.81229997 </v>
    <v>       0.18770000       0.57400000       0.40090001 </v>
    <v>       0.84909999       0.32400000       0.43770000 </v>
    <v>       0.32400000       0.56229997       0.65090001 </v>
    <v>       0.31230000       0.92600000       0.09910000 </v>
    <v>       0.81229997       0.57400000       0.90090001 </v>
    <v>       0.06230000       0.15090001       0.82400000 </v>
    <v>       0.40090001       0.68770003       0.42600000 </v>
    <v>       0.68770003       0.57400000       0.09910000 </v>
    <v>       0.31230000       0.42600000       0.90090001 </v>
    <v>       0.40090001       0.31230000       0.07400000 </v>
    <v>       0.43770000       0.34909999       0.67600000 </v>
    <v>       0.06230000       0.84909999       0.67600000 </v>
    <v>       0.42600000       0.09910000       0.18770000 </v>
    <v>       0.07400000       0.59909999       0.18770000 </v>
    <v>       0.07400000       0.40090001       0.31230000 </v>
    <v>       0.68770003       0.07400000       0.90090001 </v>
    <v>       0.81229997       0.92600000       0.40090001 </v>
    <v>       0.56229997       0.84909999       0.82400000 </v>
    <v>       0.09910000       0.31230000       0.92600000 </v>
    <v>       0.18770000       0.92600000       0.90090001 </v>
    <v>       0.18770000       0.07400000       0.59909999 </v>
    <v>       0.84909999       0.67600000       0.06230000 </v>
    <v>       0.00000000       0.25000000       0.87500000 </v>
    <v>       0.25000000       0.12500000       0.50000000 </v>
    <v>       0.37500000       0.50000000       0.75000000 </v>
    <v>       0.75000000       0.62500000       0.00000000 </v>
    <v>       0.75000000       0.87500000       0.50000000 </v>
    <v>       0.12500000       0.00000000       0.75000000 </v>
    <v>       0.87500000       0.50000000       0.75000000 </v>
    <v>       0.00000000       0.75000000       0.62500000 </v>
    <v>       0.62500000       0.50000000       0.25000000 </v>
    <v>       0.50000000       0.25000000       0.62500000 </v>
    <v>       0.75000000       0.12500000       0.00000000 </v>
    <v>       0.87500000       0.00000000       0.25000000 </v>
    <v>       0.62500000       0.00000000       0.75000000 </v>
    <v>       0.50000000       0.25000000       0.12500000 </v>
    <v>       0.75000000       0.37500000       0.50000000 </v>
    <v>       0.50000000       0.75000000       0.87500000 </v>
    <v>       0.50000000       0.75000000       0.37500000 </v>
    <v>       0.12500000       0.50000000       0.25000000 </v>
   </varray>
  </structure>
  <varray name="forces" >
   <v>       1.30426258       1.04511358      -1.80922162 </v>
   <v>      -0.32502792       0.04556283       0.05323449 </v>
   <v>       3.63169197      -1.19813191       3.40710831 </v>
   <v>      -0.89545686       0.31741651      -0.02457555 </v>
   <v>      -0.86524423      -0.45635290      -0.38111387 </v>
   <v>      -1.28932262      -0.06775494       1.63836023 </v>
   <v>      -1.23454719       1.56669171       1.19179918 </v>
   <v>       4.14619119      -0.38147340       2.09269537 </v>
   <v>      -0.22366028       0.77971118      -1.45822424 </v>
   <v>      -1.15417945      -1.31085378       1.24839896 </v>
   <v>       0.16461374       1.26742700       1.50139155 </v>
   <v>      -2.49317672      -3.73054144       0.22685116 </v>
   <v>      -0.04997155      -0.75160258       0.82664405 </v>
   <v>      -1.12305863      -0.45483457       0.19476907 </v>
   <v>      -1.10071641       0.73992550      -0.70496653 </v>
   <v>       0.95981919       1.35442138       0.46847237 </v>
   <v>      -0.38182073       1.02908638      -0.53354000 </v>
   <v>      -1.30919980      -1.67609562       2.00887355 </v>
   <v>      -0.11971623       0.11198285       0.08463340 </v>
   <v>       0.00761159       0.33907501       1.09769323 </v>
   <v>      -0.59701703       0.42123469       0.43179226 </v>
   <v>       0.85448738      -1.27531172      -1.36234747 </v>
   <v>       1.72484691       0.03988677       1.64117610 </v>
   <v>       0.69043921       0.08996818      -0.26482295 </v>
   <v>       1.20195935       0.85485825      -0.48730531 </v>
   <v>       0.79383451      -1.26616815       0.46336040 </v>
   <v>      -1.86068582       3.29842630      -3.10234821 </v>
   <v>      -0.20059519       1.82031295       0.38717636 </v>
   <v>      -0.35945806      -0.00004124       0.19581932 </v>
   <v>      -0.93664460      -4.15879320      -2.64972813 </v>
   <v>      -0.20677477      -0.79635104       0.48767131 </v>
   <v>      -0.48210129      -0.80534504       1.72295003 </v>
   <v>      -1.46212741       1.43907418      -0.60281034 </v>
   <v>       0.06249092       0.15442175       0.80139273 </v>
   <v>       0.04068722      -1.14852779       1.24972247 </v>
   <v>      -0.39644258      -1.60121714      -0.40982781 </v>
   <v>      -1.32377980       2.00723292       0.33356307 </v>
   <v>       0.39215039       0.87230790      -1.40108466 </v>
   <v>      -0.20897563      -1.20601155      -0.09815265 </v>
   <v>      -0.60873327      -1.52811197      -1.54147026 </v>
   <v>       3.31173304       2.01150992       3.26143888 </v>
   <v>      -0.44567737      -0.28773904       1.68062466 </v>
   <v>       0.09157925      -0.92864324       0.85321362 </v>
   <v>       0.19056306      -1.44330763      -1.66617197 </v>
   <v>      -0.60901264      -1.71643458      -0.01889137 </v>
   <v>       0.66537685      -0.24041920       1.03086480 </v>
   <v>      -0.62970722       0.88393502       1.88729478 </v>
   <v>      -0.86651188       1.54709474      -1.38237210 </v>
   <v>      -3.28063067       1.20418816       3.40222025 </v>
   <v>       0.80833932       1.85946792      -1.07114121 </v>
   <v>       0.12286508       2.48547413      -0.84781924 </v>
   <v>       0.92725982       1.04967351       1.18604495 </v>
   <v>      -0.44261412       0.96115676       0.98298061 </v>
   <v>      -2.96064875      -2.93337299       1.39473597 </v>
   <v>       0.84842648      -1.08943062      -0.35174949 </v>
   <v>       1.68395949       0.70238289       0.56354516 </v>
   <v>      -1.53404687       0.99593968       1.20297486 </v>
   <v>      -2.67041892       4.73344349      -1.30903885 </v>
[...]
       <r>    3.6165    1.0000 </r>
       <r>    3.6199    1.0000 </r>
       <r>    3.6355    1.0000 </r>
       <r>    3.6457    1.0000 </r>
       <r>    3.6556    1.0000 </r>
       <r>    3.6623    1.0000 </r>
       <r>    3.6810    1.0000 </r>
       <r>    3.6876    1.0000 </r>
       <r>    3.7063    1.0000 </r>
       <r>    3.7213    1.0000 </r>
       <r>    3.7278    1.0000 </r>
       <r>    3.7309    1.0000 </r>
       <r>    3.7370    1.0000 </r>
       <r>    3.7599    1.0000 </r>
       <r>    3.7664    1.0000 </r>
       <r>    3.7741    1.0000 </r>
       <r>    3.7786    1.0000 </r>
       <r>    3.7892    1.0000 </r>
       <r>    3.8108    1.0000 </r>
       <r>    3.8174    1.0000 </r>
       <r>    3.8207    1.0000 </r>
       <r>    3.8246    1.0000 </r>
       <r>    3.8407    1.0000 </r>
       <r>    3.8486    1.0000 </r>
       <r>    3.8544    1.0000 </r>
       <r>    3.8669    1.0000 </r>
       <r>    3.8899    1.0000 </r>
       <r>    3.8984    1.0000 </r>
       <r>    3.9017    1.0000 </r>
       <r>    3.9099    1.0000 </r>
       <r>    3.9154    1.0000 </r>
       <r>    3.9310    1.0000 </r>
       <r>    3.9361    1.0000 </r>
       <r>    3.9498    1.0000 </r>
       <r>    3.9647    1.0000 </r>
       <r>    3.9690    1.0000 </r>
       <r>    3.9893    1.0000 </r>
       <r>    3.9959    1.0000 </r>
       <r>    4.0026    1.0000 </r>
       <r>    4.0217    1.0000 </r>
       <r>    4.0335    1.0000 </r>
       <r>    4.0430    1.0000 </r>
       <r>    4.0461    1.0000 </r>
       <r>    4.0522    1.0000 </r>
       <r>    4.0625    1.0000 </r>
       <r>    4.0772    1.0000 </r>
       <r>    4.0876    1.0000 </r>
       <r>    4.0924    1.0000 </r>
       <r>    4.1029    1.0000 </r>
       <r>    4.1112    1.0000 </r>
       <r>    4.1200    1.0000 </r>
       <r>    4.1215    1.0000 </r>
       <r>    4.1437    1.0000 </r>
       <r>    4.1500    1.0000 </r>
       <r>    4.1647    1.0000 </r>
       <r>    4.1716    1.0000 </r>
       <r>    4.1784    1.0000 </r>
       <r>    4.1936    1.0000 </r>
       <r>    4.2023    1.0000 </r>
       <r>    4.2105    1.0000 </r>
       <r>    4.2189    1.0000 </r>
       <r>    4.2302    1.0000 </r>
       <r>    4.2351    1.0000 </r>
       <r>    4.2476    1.0000 </r>
       <r>    4.2566    1.0000 </r>
       <r>    4.2607    1.0000 </r>
       <r>    4.2755    1.0000 </r>
       <r>    4.2841    1.0000 </r>
       <r>    4.2970    1.0000 </r>
       <r>    4.3072    1.0000 </r>
       <r>    4.3180    1.0000 </r>
       <r>    4.3347    1.0000 </r>
       <r>    4.3447    1.0000 </r>
       <r>    4.3552    1.0000 </r>
       <r>    4.3684    1.0000 </r>
       <r>    4.3796    1.0000 </r>
       <r>    4.3881    1.0000 </r>
       <r>    4.4113    1.0000 </r>
       <r>    4.4138    1.0000 </r>
       <r>    4.4163    1.0000 </r>
       <r>    4.4377    1.0000 </r>
       <r>    4.4427    1.0000 </r>
       <r>    4.4660    1.0000 </r>
       <r>    4.4739    1.0000 </r>
       <r>    4.4909    1.0000 </r>
       <r>    4.5061    1.0000 </r>
       <r>    4.5148    1.0000 </r>
       <r>    4.5257    1.0000 </r>
       <r>    4.5450    1.0000 </r>
       <r>    4.5807    1.0000 </r>
       <r>    4.5910    1.0000 </r>
       <r>    4.6297    1.0000 </r>
       <r>    4.6628    1.0000 </r>
       <r>    4.6829    1.0000 </r>
       <r>    8.8436    0.0000 </r>
       <r>    9.0166    0.0000 </r>
       <r>    9.0420    0.0000 </r>
       <r>    9.0594    0.0000 </r>
       <r>    9.0989    0.0000 </r>
       <r>    9.1093    0.0000 </r>
       <r>    9.1246    0.0000 </r>
       <r>    9.1479    0.0000 </r>
       <r>    9.1661    0.0000 </r>
       <r>    9.1872    0.0000 </r>
       <r>    9.2016    0.0000 </r>
       <r>    9.2371    0.0000 </r>
       <r>    9.2492    0.0000 </r>
       <r>    9.2602    0.0000 </r>
       <r>    9.2807    0.0000 </r>
       <r>    9.2828    0.0000 </r>
       <r>    9.3054    0.0000 </r>
       <r>    9.3101    0.0000 </r>
       <r>    9.3337    0.0000 </r>
       <r>    9.3416    0.0000 </r>
       <r>    9.3617    0.0000 </r>
       <r>    9.3758    0.0000 </r>
       <r>    9.3855    0.0000 </r>
       <r>    9.3988    0.0000 </r>
       <r>    9.4050    0.0000 </r>
       <r>    9.4207    0.0000 </r>
       <r>    9.4406    0.0000 </r>
       <r>    9.4450    0.0000 </r>
       <r>    9.4468    0.0000 </r>
       <r>    9.4671    0.0000 </r>
       <r>    9.4818    0.0000 </r>
       <r>    9.4843    0.0000 </r>
       <r>    9.5128    0.0000 </r>
       <r>    9.5187    0.0000 </r>
       <r>    9.5248    0.0000 </r>
       <r>    9.5471    0.0000 </r>
       <r>    9.5520    0.0000 </r>
       <r>    9.5617    0.0000 </r>
       <r>    9.5686    0.0000 </r>
       <r>    9.5825    0.0000 </r>
       <r>    9.5956    0.0000 </r>
       <r>    9.5977    0.0000 </r>
       <r>    9.6032    0.0000 </r>
       <r>    9.6194    0.0000 </r>
       <r>    9.6283    0.0000 </r>
       <r>    9.6416    0.0000 </r>
       <r>    9.6560    0.0000 </r>
       <r>    9.6604    0.0000 </r>
       <r>    9.6723    0.0000 </r>
       <r>    9.6808    0.0000 </r>
       <r>    9.6868    0.0000 </r>
       <r>    9.6947    0.0000 </r>
       <r>    9.7030    0.0000 </r>
       <r>    9.7065    0.0000 </r>
       <r>    9.7274    0.0000 </r>
       <r>    9.7350    0.0000 </r>
       <r>    9.7388    0.0000 </r>
       <r>    9.7497    0.0000 </r>
       <r>    9.7515    0.0000 </r>
       <r>    9.7593    0.0000 </r>
       <r>    9.7679    0.0000 </r>
       <r>    9.7800    0.0000 </r>
       <r>    9.7861    0.0000 </r>
       <r>    9.8015    0.0000 </r>
       <r>    9.8050    0.0000 </r>
       <r>    9.8087    0.0000 </r>
       <r>    9.8109    0.0000 </r>
       <r>    9.8206    0.0000 </r>
       <r>    9.8282    0.0000 </r>
       <r>    9.8307    0.0000 </r>
       <r>    9.8377    0.0000 </r>
       <r>    9.8459    0.0000 </r>
       <r>    9.8483    0.0000 </r>
       <r>    9.8541    0.0000 </r>
       <r>    9.8603    0.0000 </r>
       <r>    9.8735    0.0000 </r>
       <r>    9.8753    0.0000 </r>
       <r>    9.8858    0.0000 </r>
       <r>    9.8875    0.0000 </r>
       <r>    9.8934    0.0000 </r>
       <r>    9.8996    0.0000 </r>
       <r>    9.9028    0.0000 </r>
       <r>    9.9056    0.0000 </r>
       <r>    9.9107    0.0000 </r>
       <r>    9.9176    0.0000 </r>
       <r>    9.9212    0.0000 </r>
       <r>    9.9264    0.0000 </r>
       <r>    9.9315    0.0000 </r>
       <r>    9.9334    0.0000 </r>
       <r>    9.9375    0.0000 </r>
       <r>    9.9433    0.0000 </r>
       <r>    9.9524    0.0000 </r>
       <r>    9.9538    0.0000 </r>
       <r>    9.9603    0.0000 </r>
       <r>    9.9654    0.0000 </r>
       <r>    9.9661    0.0000 </r>
       <r>    9.9714    0.0000 </r>
       <r>    9.9778    0.0000 </r>
       <r>    9.9811    0.0000 </r>
       <r>    9.9842    0.0000 </r>
       <r>    9.9873    0.0000 </r>
       <r>    9.9901    0.0000 </r>
       <r>    9.9939    0.0000 </r>
       <r>   10.0051    0.0000 </r>
       <r>   10.0066    0.0000 </r>
       <r>   10.0187    0.0000 </r>
       <r>   10.0200    0.0000 </r>
       <r>   10.0249    0.0000 </r>
       <r>   10.0312    0.0000 </r>
       <r>   10.0345    0.0000 </r>
       <r>   10.0392    0.0000 </r>
       <r>   10.0493    0.0000 </r>
      </set>
     </set>
    </set>
   </array>
  </eigenvalues>
  <separator name="orbital magnetization" >
   <v name="MAGDIPOLOUT">      0.00000000      0.00000000      0.00000000</v>
  </separator>
 </calculation>
 <structure name="finalpos" >
  <crystal>
   <varray name="basis" >
    <v>      12.96520042       0.00000000       0.00000000 </v>
    <v>       0.00000000      12.96500015       0.00000000 </v>
    <v>       0.00000000       0.00000000      12.96500015 </v>
   </varray>
   <i name="volume">   2179.33647298 </i>
   <varray name="rec_basis" >
    <v>       0.07712954       0.00000000       0.00000000 </v>
    <v>       0.00000000       0.07713074       0.00000000 </v>
    <v>       0.00000000       0.00000000       0.07713074 </v>
   </varray>
  </crystal>
  <varray name="positions" >
   <v>       0.10984692       0.19440808       0.27195006 </v>
   <v>       0.90180552       0.80722211       0.71356295 </v>
   <v>       0.39913400       0.80619761       0.79376573 </v>
   <v>       0.60469511       0.20491889       0.22184489 </v>
   <v>       0.90573400       0.69859347       0.22010362 </v>
   <v>       0.10483791       0.30389957       0.78516538 </v>
   <v>       0.60016678       0.31405422       0.72336065 </v>
   <v>       0.40474384       0.70325492       0.29237800 </v>
   <v>       0.28015478       0.09986102       0.18291659 </v>
   <v>       0.72475555       0.90220433       0.81036654 </v>
   <v>       0.78796807       0.40570967       0.81075246 </v>
   <v>       0.20816036       0.59814291       0.19955208 </v>
   <v>       0.21482834       0.89844287       0.69295714 </v>
   <v>       0.77594663       0.09982913       0.30724323 </v>
   <v>       0.71724303       0.59548661       0.30000177 </v>
   <v>       0.28372832       0.39541797       0.68634455 </v>
   <v>       0.20260991       0.28211274       0.09315190 </v>
   <v>       0.79975991       0.71159449       0.90283648 </v>
   <v>       0.80654832       0.78021488       0.40286877 </v>
   <v>       0.19443954       0.21647871       0.59866665 </v>
   <v>       0.69707060       0.21984258       0.90003536 </v>
   <v>       0.30669101       0.77800303       0.09921214 </v>
   <v>       0.31547200       0.72471211       0.60121197 </v>
   <v>       0.70676960       0.29215798       0.39635706 </v>
   <v>       0.95460282       0.34992500       0.97071519 </v>
   <v>       0.05491387       0.65395968       0.02605484 </v>
   <v>       0.53979702       0.66020676       0.45374059 </v>
   <v>       0.44965379       0.35147495       0.53183498 </v>
   <v>       0.44254507       0.15114282       0.02079543 </v>
   <v>       0.55222819       0.84650465       0.95791877 </v>
   <v>       0.03878483       0.84608357       0.53404473 </v>
   <v>       0.93548878       0.15226670       0.47743620 </v>
   <v>       0.86049852       0.53460830       0.06260561 </v>
   <v>       0.15450772       0.46833307       0.94631096 </v>
   <v>       0.14774653       0.02909410       0.45357002 </v>
   <v>       0.84281958       0.96375403       0.54151024 </v>
   <v>       0.64362127       0.48770888       0.55606813 </v>
   <v>       0.33985329       0.53253765       0.45210528 </v>
   <v>       0.34880839       0.97140056       0.94431207 </v>
   <v>       0.65136421       0.02444850       0.04472689 </v>
   <v>       0.04732997       0.45657067       0.15417531 </v>
   <v>       0.96704745       0.54585405       0.84882655 </v>
   <v>       0.53782312       0.04750276       0.84310343 </v>
   <v>       0.46755555       0.94336044       0.14335707 </v>
   <v>       0.96730586       0.94134028       0.34661647 </v>
   <v>       0.03309676       0.04560904       0.65070688 </v>
   <v>       0.46050959       0.55698268       0.65312500 </v>
   <v>       0.52704459       0.45615640       0.34880503 </v>
   <v>       0.58897600       0.70489038       0.79536868 </v>
   <v>       0.40501695       0.31572176       0.20859192 </v>
   <v>       0.90681888       0.31379637       0.27989031 </v>
   <v>       0.10114215       0.69817128       0.72619481 </v>
   <v>       0.40613042       0.20165203       0.72091137 </v>
   <v>       0.59572328       0.79765624       0.28224901 </v>
   <v>       0.09990473       0.80280788       0.21475222 </v>
   <v>       0.90661933       0.20366543       0.77850898 </v>
   <v>       0.77218365       0.60141823       0.71143332 </v>
   <v>       0.21398501       0.40385266       0.29627852 </v>
   <v>       0.27433774       0.90524258       0.29712875 </v>
   <v>       0.72950386       0.10576322       0.69971847 </v>
   <v>       0.71627906       0.40450102       0.19115065 </v>
   <v>       0.28286839       0.59783524       0.80157341 </v>
   <v>       0.21565231       0.10014326       0.79996311 </v>
   <v>       0.78556076       0.89734567       0.20278855 </v>
   <v>       0.69176936       0.76887940       0.60405692 </v>
   <v>       0.31447796       0.23299198       0.39030867 </v>
   <v>       0.30632718       0.28053152       0.89875947 </v>
   <v>       0.69310951       0.71672225       0.10237978 </v>
   <v>       0.20292966       0.72465365       0.40042714 </v>
   <v>       0.80582953       0.28416407       0.59839720 </v>
   <v>       0.81774186       0.22731230       0.10137397 </v>
   <v>       0.19836921       0.77963226       0.90154406 </v>
   <v>       0.44104795       0.84803283       0.46029170 </v>
   <v>       0.56198780       0.14412019       0.52627093 </v>
   <v>       0.05666850       0.14993344       0.96543441 </v>
   <v>       0.94370291       0.84762016       0.03183696 </v>
   <v>       0.93637212       0.64563329       0.52469214 </v>
   <v>       0.05242689       0.35183145       0.47191911 </v>
   <v>       0.54706553       0.35250674       0.03281550 </v>
   <v>       0.44670168       0.65816221       0.95608576 </v>
   <v>       0.34751374       0.02617370       0.55462295 </v>
   <v>       0.64420720       0.96752446       0.43367146 </v>
   <v>       0.65368968       0.53469563       0.95803717 </v>
   <v>       0.34659004       0.47362920       0.05148831 </v>
   <v>       0.15228665       0.96427008       0.04841053 </v>
   <v>       0.85289765       0.03279984       0.93994162 </v>
   <v>       0.85198688       0.46743017       0.44099501 </v>
   <v>       0.14845727       0.52881560       0.56306551 </v>
   <v>       0.52344197       0.93631253       0.64646118 </v>
   <v>       0.47630377       0.06622579       0.34735804 </v>
   <v>       0.05009815       0.55479386       0.35270304 </v>
   <v>       0.97625933       0.43676160       0.65319265 </v>
   <v>       0.46066076       0.45625024       0.85172716 </v>
   <v>       0.52170694       0.56375158       0.15060551 </v>
   <v>       0.97857605       0.05441465       0.14769079 </v>
   <v>       0.03795552       0.93789162       0.85078986 </v>
   <v>       0.12543152       0.01030355       0.25766811 </v>
   <v>       0.87433487       0.00663468       0.75131527 </v>
   <v>       0.37556427       0.00879320       0.74044610 </v>
   <v>       0.62683234       0.00763439       0.24953750 </v>
   <v>       0.87654714       0.49517149       0.25168382 </v>
   <v>       0.12474864       0.49827976       0.74673707 </v>
   <v>       0.62605149       0.49355419       0.74139205 </v>
   <v>       0.37529051       0.49666691       0.25012747 </v>
   <v>       0.25045168       0.12570838      -0.00313618 </v>
   <v>       0.75780431       0.88003206       0.00519734 </v>
   <v>       0.75146572       0.36721507       0.00140245 </v>
   <v>       0.24476582       0.62684022      -0.00314559 </v>
   <v>       0.24694091       0.87966114       0.49940531 </v>
   <v>       0.74813865       0.12792929       0.50081237 </v>
   <v>       0.75409418       0.62344484       0.49970577 </v>
   <v>       0.24427233       0.36315024       0.49857165 </v>
   <v>       0.00178971       0.24310826       0.13078785 </v>
   <v>       0.00077423       0.75131272       0.87180675 </v>
   <v>       0.00356828       0.75138860       0.38311304 </v>
   <v>       0.00045228       0.24882997       0.61992631 </v>
   <v>       0.50590506       0.24725425       0.87253675 </v>
   <v>       0.49968731       0.75569028       0.12652243 </v>
   <v>       0.50284330       0.75548901       0.62176903 </v>
   <v>       0.50229639       0.24992994       0.37760372 </v>
   <v>       0.00020995       0.00118615       0.00080894 </v>
   <v>       0.49887108       0.00525476       0.49089087 </v>
   <v>      -0.00192910       0.49552628       0.50885928 </v>
   <v>       0.50287833       0.49848226       0.00115998 </v>
   <v>       0.75529836       0.24657692       0.25037053 </v>
   <v>       0.24716838       0.74888244       0.74470363 </v>
   <v>       0.75642524       0.75641019       0.74750343 </v>
   <v>       0.25747129       0.24427606       0.24175082 </v>
   <v>       0.25259903       0.24922975       0.74741390 </v>
   <v>       0.75541215       0.74924600       0.25354651 </v>
   <v>       0.24886076       0.76148403       0.25341079 </v>
   <v>       0.75479936       0.25724839       0.74513854 </v>
   <v>       0.49307177       0.49759585       0.50308464 </v>
   <v>       0.00107491       0.49995476      -0.00385373 </v>
   <v>       0.49761008       0.00766423      -0.00050736 </v>
   <v>      -0.00721535       0.00732859       0.49381271 </v>
   <v>       0.88486571       0.82718180       0.56593788 </v>
   <v>       0.13025969       0.82378574       0.06934101 </v>
   <v>       0.93947366       0.36922847       0.82071659 </v>
   <v>       0.94715629       0.85253869       0.18056348 </v>
   <v>       0.65326593       0.67480570       0.92599017 </v>
   <v>       0.19909162       0.42020491       0.07939181 </v>
   <v>       0.32117171       0.83482814       0.95652717 </v>
   <v>       0.57156518       0.59464549       0.30997924 </v>
   <v>       0.57140273       0.37237271       0.17964297 </v>
   <v>       0.42843718       0.59884516       0.81450877 </v>
   <v>       0.18875365       0.58879750       0.44032794 </v>
   <v>       0.87612226       0.31576008       0.42709090 </v>
   <v>       0.30271890       0.57807752       0.59566351 </v>
   <v>       0.31135056       0.93062915       0.11861486 </v>
   <v>       0.82012164       0.56647088       0.85629459 </v>
   <v>       0.07289264       0.15740417       0.82187358 </v>
   <v>       0.34215834       0.67687031       0.44541454 </v>
   <v>       0.66765631       0.56200911       0.15193225 </v>
   <v>       0.30715513       0.42147273       0.91209902 </v>
   <v>       0.36232720       0.32313349       0.06296391 </v>
   <v>       0.42561850       0.34880250       0.67119639 </v>
   <v>       0.06310189       0.87159824       0.67230466 </v>
   <v>       0.39407053       0.03576543       0.23842300 </v>
   <v>       0.05651093       0.67153132       0.16952551 </v>
   <v>       0.03670273       0.28271524       0.35223228 </v>
   <v>       0.68177639       0.07468767       0.87446219 </v>
   <v>       0.82120676       0.92613259       0.38164174 </v>
   <v>       0.58581903       0.91146831       0.81653480 </v>
   <v>       0.12721597       0.31808702       0.93094747 </v>
   <v>       0.18102008       0.92341965       0.90685035 </v>
   <v>       0.17217427       0.07597700       0.60195851 </v>
   <v>       0.91291994       0.69434602       0.07420017 </v>
   <v>      -0.06864852       0.21140763       0.91783135 </v>
   <v>       0.27024123       0.12421973       0.47161271 </v>
   <v>       0.36398474       0.48902665       0.74320025 </v>
   <v>       0.76337428       0.62128473       0.01738155 </v>
   <v>       0.71630595       0.87699197       0.51384891 </v>
   <v>       0.12736699      -0.00136284       0.75480262 </v>
   <v>       0.87061346       0.49999876       0.71565469 </v>
   <v>       0.00739330       0.71377186       0.62344565 </v>
   <v>       0.67147937       0.44452539       0.32887186 </v>
   <v>       0.52284830       0.22927978       0.62626534 </v>
   <v>       0.76093727       0.12489274       0.02060233 </v>
   <v>       0.87660428       0.02115176       0.24069174 </v>
   <v>       0.61562046       0.02930781       0.70049537 </v>
   <v>       0.51002137       0.22485487       0.11966380 </v>
   <v>       0.73377399       0.37935507       0.51371485 </v>
   <v>       0.49282508       0.75796420       0.87635589 </v>
   <v>       0.50062292       0.76500670       0.37262220 </v>
   <v>       0.12777646       0.49984446       0.25537965 </v>
  </varray>
 </structure>
</modeling>
