unknown system                          
           1
    12.965200    0.000000    0.000000
     0.000000   12.965000    0.000000
     0.000000    0.000000   12.965000
   O    La   Zr   Li   Al
  96  24  16  47   3
Direct configuration=     1
   0.10000000  0.19560000  0.28160000
   0.89999998  0.80439997  0.71840000
   0.40000001  0.80439997  0.78160000
   0.60000002  0.19560000  0.21840000
   0.89999998  0.69560003  0.21840000
   0.10000000  0.30440000  0.78160000
   0.60000002  0.30440000  0.71840000
   0.40000001  0.69560003  0.28160000
   0.28160000  0.10000000  0.19560000
   0.71840000  0.89999998  0.80439997
   0.78160000  0.40000001  0.80439997
   0.21840000  0.60000002  0.19560000
   0.21840000  0.89999998  0.69560003
   0.78160000  0.10000000  0.30440000
   0.71840000  0.60000002  0.30440000
   0.28160000  0.40000001  0.69560003
   0.19560000  0.28160000  0.10000000
   0.80439997  0.71840000  0.89999998
   0.80439997  0.78160000  0.40000001
   0.19560000  0.21840000  0.60000002
   0.69560003  0.21840000  0.89999998
   0.30440000  0.78160000  0.10000000
   0.30440000  0.71840000  0.60000002
   0.69560003  0.28160000  0.40000001
   0.94560003  0.34999999  0.96840000
   0.05440000  0.64999998  0.03160000
   0.55439997  0.64999998  0.46840000
   0.44560000  0.34999999  0.53160000
   0.44560000  0.15000001  0.03160000
   0.55439997  0.85000002  0.96840000
   0.05440000  0.85000002  0.53160000
   0.94560003  0.15000001  0.46840000
   0.85000002  0.53160000  0.05440000
   0.15000001  0.46840000  0.94560003
   0.15000001  0.03160000  0.44560000
   0.85000002  0.96840000  0.55439997
   0.64999998  0.46840000  0.55439997
   0.34999999  0.53160000  0.44560000
   0.34999999  0.96840000  0.94560003
   0.64999998  0.03160000  0.05440000
   0.03160000  0.44560000  0.15000001
   0.96840000  0.55439997  0.85000002
   0.53160000  0.05440000  0.85000002
   0.46840000  0.94560003  0.15000001
   0.96840000  0.94560003  0.34999999
   0.03160000  0.05440000  0.64999998
   0.46840000  0.55439997  0.64999998
   0.53160000  0.44560000  0.34999999
   0.60000002  0.69560003  0.78160000
   0.40000001  0.30440000  0.21840000
   0.89999998  0.30440000  0.28160000
   0.10000000  0.69560003  0.71840000
   0.40000001  0.19560000  0.71840000
   0.60000002  0.80439997  0.28160000
   0.10000000  0.80439997  0.21840000
   0.89999998  0.19560000  0.78160000
   0.78160000  0.60000002  0.69560003
   0.21840000  0.40000001  0.30440000
   0.28160000  0.89999998  0.30440000
   0.71840000  0.10000000  0.69560003
   0.71840000  0.40000001  0.19560000
   0.28160000  0.60000002  0.80439997
   0.21840000  0.10000000  0.80439997
   0.78160000  0.89999998  0.19560000
   0.69560003  0.78160000  0.60000002
   0.30440000  0.21840000  0.40000001
   0.30440000  0.28160000  0.89999998
   0.69560003  0.71840000  0.10000000
   0.19560000  0.71840000  0.40000001
   0.80439997  0.28160000  0.60000002
   0.80439997  0.21840000  0.10000000
   0.19560000  0.78160000  0.89999998
   0.44560000  0.85000002  0.46840000
   0.55439997  0.15000001  0.53160000
   0.05440000  0.15000001  0.96840000
   0.94560003  0.85000002  0.03160000
   0.94560003  0.64999998  0.53160000
   0.05440000  0.34999999  0.46840000
   0.55439997  0.34999999  0.03160000
   0.44560000  0.64999998  0.96840000
   0.34999999  0.03160000  0.55439997
   0.64999998  0.96840000  0.44560000
   0.64999998  0.53160000  0.94560003
   0.34999999  0.46840000  0.05440000
   0.15000001  0.96840000  0.05440000
   0.85000002  0.03160000  0.94560003
   0.85000002  0.46840000  0.44560000
   0.15000001  0.53160000  0.55439997
   0.53160000  0.94560003  0.64999998
   0.46840000  0.05440000  0.34999999
   0.03160000  0.55439997  0.34999999
   0.96840000  0.44560000  0.64999998
   0.46840000  0.44560000  0.85000002
   0.53160000  0.55439997  0.15000001
   0.96840000  0.05440000  0.15000001
   0.03160000  0.94560003  0.85000002
   0.12500000  0.00000000  0.25000000
   0.87500000  0.00000000  0.75000000
   0.37500000  0.00000000  0.75000000
   0.62500000  0.00000000  0.25000000
   0.87500000  0.50000000  0.25000000
   0.12500000  0.50000000  0.75000000
   0.62500000  0.50000000  0.75000000
   0.37500000  0.50000000  0.25000000
   0.25000000  0.12500000  0.00000000
   0.75000000  0.87500000  0.00000000
   0.75000000  0.37500000  0.00000000
   0.25000000  0.62500000  0.00000000
   0.25000000  0.87500000  0.50000000
   0.75000000  0.12500000  0.50000000
   0.75000000  0.62500000  0.50000000
   0.25000000  0.37500000  0.50000000
   0.00000000  0.25000000  0.12500000
   0.00000000  0.75000000  0.87500000
   0.00000000  0.75000000  0.37500000
   0.00000000  0.25000000  0.62500000
   0.50000000  0.25000000  0.87500000
   0.50000000  0.75000000  0.12500000
   0.50000000  0.75000000  0.62500000
   0.50000000  0.25000000  0.37500000
   0.00000000  0.00000000  0.00000000
   0.50000000  0.00000000  0.50000000
   0.00000000  0.50000000  0.50000000
   0.50000000  0.50000000  0.00000000
   0.75000000  0.25000000  0.25000000
   0.25000000  0.75000000  0.75000000
   0.75000000  0.75000000  0.75000000
   0.25000000  0.25000000  0.25000000
   0.25000000  0.25000000  0.75000000
   0.75000000  0.75000000  0.25000000
   0.25000000  0.75000000  0.25000000
   0.75000000  0.25000000  0.75000000
   0.50000000  0.50000000  0.50000000
   0.00000000  0.50000000  0.00000000
   0.50000000  0.00000000  0.00000000
   0.00000000  0.00000000  0.50000000
   0.84909999  0.82400000  0.56229997
   0.15090001  0.82400000  0.06230000
   0.93770003  0.34909999  0.82400000
   0.93770003  0.84909999  0.17600000
   0.65090001  0.67600000  0.93770003
   0.18770000  0.42600000  0.09910000
   0.34909999  0.82400000  0.93770003
   0.56229997  0.65090001  0.32400000
   0.57400000  0.40090001  0.18770000
   0.42600000  0.59909999  0.81229997
   0.18770000  0.57400000  0.40090001
   0.84909999  0.32400000  0.43770000
   0.32400000  0.56229997  0.65090001
   0.31230000  0.92600000  0.09910000
   0.81229997  0.57400000  0.90090001
   0.06230000  0.15090001  0.82400000
   0.40090001  0.68770003  0.42600000
   0.68770003  0.57400000  0.09910000
   0.31230000  0.42600000  0.90090001
   0.40090001  0.31230000  0.07400000
   0.43770000  0.34909999  0.67600000
   0.06230000  0.84909999  0.67600000
   0.42600000  0.09910000  0.18770000
   0.07400000  0.59909999  0.18770000
   0.07400000  0.40090001  0.31230000
   0.68770003  0.07400000  0.90090001
   0.81229997  0.92600000  0.40090001
   0.56229997  0.84909999  0.82400000
   0.09910000  0.31230000  0.92600000
   0.18770000  0.92600000  0.90090001
   0.18770000  0.07400000  0.59909999
   0.84909999  0.67600000  0.06230000
   0.00000000  0.25000000  0.87500000
   0.25000000  0.12500000  0.50000000
   0.37500000  0.50000000  0.75000000
   0.75000000  0.62500000  0.00000000
   0.75000000  0.87500000  0.50000000
   0.12500000  0.00000000  0.75000000
   0.87500000  0.50000000  0.75000000
   0.00000000  0.75000000  0.62500000
   0.62500000  0.50000000  0.25000000
   0.50000000  0.25000000  0.62500000
   0.75000000  0.12500000  0.00000000
   0.87500000  0.00000000  0.25000000
   0.62500000  0.00000000  0.75000000
   0.50000000  0.25000000  0.12500000
   0.75000000  0.37500000  0.50000000
   0.50000000  0.75000000  0.87500000
   0.50000000  0.75000000  0.37500000
   0.12500000  0.50000000  0.25000000
Direct configuration=     2
   0.10485308  0.19948886  0.27486790
   0.89879057  0.80456951  0.71859809
   0.41351329  0.79994173  0.79427782
   0.59666809  0.19678111  0.21830856
   0.89678046  0.69390195  0.21698188
   0.09520252  0.30414788  0.78769632
   0.59540636  0.31022964  0.72283468
   0.41542771  0.69418057  0.28938690
   0.28076777  0.10290130  0.19017396
   0.71410538  0.89512230  0.80904525
   0.78221251  0.40471609  0.80998663
   0.20912306  0.58611871  0.19644411
   0.21821406  0.89720327  0.69867597
   0.77742117  0.09830757  0.30512473
   0.71430431  0.60275328  0.30177682
   0.28517142  0.40503980  0.69734321
   0.19417927  0.28542922  0.09801470
   0.79952852  0.71216326  0.90747498
   0.80395451  0.78201669  0.40031493
   0.19562833  0.21966170  0.60408453
   0.69337857  0.21996741  0.90160667
   0.30757949  0.77685457  0.09493072
   0.31081804  0.71854842  0.60610683
   0.69816911  0.28193477  0.39901460
   0.95007244  0.35318091  0.96658674
   0.05735380  0.64528858  0.03332416
   0.54747648  0.66227339  0.45685619
   0.44485360  0.35677336  0.53304068
   0.44426248  0.14999985  0.03232864
   0.55091477  0.83452519  0.95854039
   0.05363060  0.84703681  0.53341462
   0.94380617  0.14700332  0.47481108
   0.84455954  0.53695478  0.05215694
   0.15023253  0.46897460  0.94858201
   0.15015140  0.02732634  0.45025021
   0.84852489  0.96244189  0.55287500
   0.64507428  0.47586890  0.55564115
   0.35145916  0.53484585  0.44038658
   0.34922241  0.96391244  0.94523481
   0.64773492  0.02591391  0.04866420
   0.04392274  0.45308481  0.16213579
   0.96674167  0.55332929  0.85625361
   0.53194076  0.05094452  0.85317482
   0.46910907  0.94022950  0.14380019
   0.96613391  0.93921319  0.34992970
   0.03407582  0.05350540  0.65383582
   0.46605690  0.55768908  0.65702258
   0.52837576  0.45135673  0.34485620
   0.58779301  0.70008081  0.79425963
   0.40300778  0.31131906  0.21441429
   0.90045715  0.31364842  0.27844527
   0.10345027  0.69950586  0.72281327
   0.39835307  0.19917646  0.72205766
   0.58898365  0.79348491  0.28678980
   0.10315694  0.80034621  0.21709115
   0.90626588  0.19821356  0.78369694
   0.77589191  0.60370591  0.70007629
   0.20846355  0.41761311  0.29952907
   0.27910461  0.88907405  0.30180777
   0.72249909  0.10025041  0.69977513
   0.71630123  0.40927677  0.19071840
   0.28813689  0.59735896  0.80586891
   0.21635884  0.09924591  0.80523587
   0.78061409  0.89233925  0.19527390
   0.69645791  0.77821965  0.60246944
   0.30453950  0.22608029  0.39682518
   0.30583684  0.28238928  0.90027796
   0.69435435  0.71240892  0.09228915
   0.19693757  0.71614508  0.39352041
   0.80662637  0.28072351  0.60028912
   0.80533700  0.22505151  0.09776471
   0.19933483  0.78000863  0.90307755
   0.44763585  0.83087666  0.46141392
   0.55362262  0.14690880  0.52853052
   0.05730593  0.15488867  0.96442373
   0.94279406  0.84716216  0.02867551
   0.94246409  0.65232577  0.52680858
   0.05591150  0.35755092  0.46676903
   0.54994887  0.35751495  0.03328912
   0.44819945  0.65940020  0.95917601
   0.34675827  0.02667280  0.55912611
   0.65280145  0.96522495  0.44289432
   0.65291135  0.53982430  0.94890732
   0.35154525  0.47145794  0.05345966
   0.15344978  0.96655388  0.05134490
   0.84655485  0.02708959  0.94302807
   0.85083592  0.47169706  0.44151362
   0.15081025  0.52912855  0.55353796
   0.52740355  0.93682907  0.65525848
   0.47348994  0.05475636  0.34990957
   0.04468087  0.55000265  0.33244634
   0.97254976  0.44524453  0.65190297
   0.46494320  0.45234327  0.85132489
   0.53372142  0.55594147  0.14960748
   0.97222980  0.05216072  0.14556048
   0.03490478  0.94276786  0.84814065
   0.12609081  0.00739408  0.25510836
   0.87218376  0.00498535  0.74802559
   0.37797760  0.00977700  0.74279763
   0.62524126  0.01012129  0.25500131
   0.86148442  0.49281560  0.25712624
   0.11758175  0.50072770  0.74143301
   0.63438396  0.48835488  0.73966573
   0.38080572  0.49193762  0.25545918
   0.24907980  0.12907345  0.00414402
   0.75922453  0.88886016  0.00264270
   0.75158229  0.35723044  0.00115238
   0.24272820  0.62563928 -0.00266862
   0.24678354  0.87822815  0.49476272
   0.74730199  0.12807213  0.50065690
   0.75618245  0.61758623  0.50321744
   0.24789139  0.36687143  0.50297007
  -0.00508180  0.23634265  0.13518179
   0.00053276  0.75114470  0.87527352
   0.00291742  0.75650962  0.37987446
  -0.00358957  0.24900121  0.61223059
   0.50337900  0.24323345  0.87036223
   0.49725401  0.75890409  0.12879685
   0.50052316  0.75789096  0.61913384
   0.50228106  0.24190171  0.38103549
  -0.00747264  0.00392688  0.00747366
   0.50386343  0.01780133  0.49571447
  -0.00160742  0.49305360  0.51905884
   0.49946531  0.48638007  0.00159774
   0.75238900  0.23959983  0.25211278
   0.23599151  0.75057322  0.73746898
   0.76304784  0.75358051  0.73690133
   0.24360433  0.22755537  0.25537520
   0.25566079  0.24484759  0.74567368
   0.76101658  0.75370227  0.25685268
   0.23861960  0.77534463  0.26306410
   0.74706253  0.24514745  0.74065537
   0.50297706  0.48000153  0.49967906
   0.00200006  0.50516771 -0.01366271
   0.50094124  0.01520877  0.00444932
   0.00158169  0.01185828  0.49308854
   0.85568851  0.82114381  0.56772186
   0.14803237  0.82448882  0.06394743
   0.93093198  0.35513891  0.81903568
   0.93941209  0.84859174  0.17446255
   0.64850030  0.67818041  0.93409877
   0.19125095  0.41970312  0.09183467
   0.34254000  0.82803779  0.94012295
   0.57958874  0.62672615  0.31241864
   0.57264367  0.39222496  0.18532666
   0.42695479  0.60044841  0.81456914
   0.19107871  0.57892234  0.41129123
   0.85731139  0.31874164  0.43261140
   0.31774462  0.56740734  0.63956443
   0.31261222  0.92839682  0.10246370
   0.81911029  0.56868969  0.89101775
   0.06583494  0.14287851  0.82033124
   0.37291046  0.67235252  0.44050310
   0.68312856  0.56877136  0.10818917
   0.31029975  0.42195242  0.90265981
   0.39189922  0.31541920  0.07057651
   0.43426576  0.35251026  0.67711054
   0.06672121  0.85524011  0.67768214
   0.42404334  0.09643793  0.19132340
   0.06019246  0.62714481  0.17114399
   0.05966809  0.37093096  0.33085069
   0.68419440  0.07288517  0.89466704
   0.81634132  0.93169985  0.39388694
   0.57847458  0.87516519  0.81037258
   0.10908161  0.31688888  0.93135948
   0.18671412  0.92689367  0.90186376
   0.18350612  0.07219370  0.60322481
   0.86083065  0.68231502  0.06910479
  -0.00964590  0.24331156  0.87953601
   0.25564166  0.12974465  0.48971426
   0.37424755  0.48813031  0.75094499
   0.75100537  0.62492731  0.00005661
   0.73511600  0.87718067  0.50352888
   0.12435096  0.00053960  0.74956488
   0.87506115  0.50050759  0.74439839
  -0.00265942  0.73918404  0.62016547
   0.63105546  0.50325370  0.25826964
   0.50652066  0.23959441  0.61916650
   0.75637152  0.13057621  0.00972664
   0.87551321  0.00613280  0.24907396
   0.62543693  0.00311963  0.74446328
   0.50973807  0.24282963  0.12890908
   0.74105148  0.37814089  0.50564276
   0.48714114  0.73284088  0.88479085
   0.50908069  0.79758473  0.37749179
   0.14676704  0.49788575  0.25254373
Direct configuration=     3
   0.10039259  0.19679817  0.27618409
   0.90356970  0.80645802  0.71670669
   0.41065188  0.80030360  0.79392382
   0.59797323  0.19585549  0.22032831
   0.89765537  0.69491440  0.21727663
   0.09500676  0.30379385  0.78693249
   0.59516340  0.30883547  0.72216161
   0.41469954  0.69626840  0.28995534
   0.28112128  0.09861423  0.18908675
   0.71587226  0.89688159  0.80863630
   0.78337817  0.40327480  0.80945807
   0.21423752  0.59297107  0.19175483
   0.21706217  0.89952711  0.69752439
   0.77765946  0.09699008  0.30626389
   0.71566067  0.60322735  0.30215493
   0.28438546  0.40288785  0.69614502
   0.19437854  0.28231194  0.09927049
   0.80099822  0.71301413  0.90575612
   0.80497511  0.78366211  0.40286994
   0.19506996  0.21865611  0.60231330
   0.69271737  0.21850040  0.90032612
   0.30674949  0.77739822  0.09566110
   0.31103796  0.71938516  0.60497105
   0.69899754  0.28068410  0.39955555
   0.95057014  0.35231223  0.96638759
   0.05741700  0.64681588  0.03148506
   0.54808115  0.66277773  0.45727844
   0.44230680  0.34809796  0.53529871
   0.44321931  0.15336431  0.03398741
   0.55059316  0.83526100  0.95866346
   0.05357563  0.84799298  0.53362784
   0.94160333  0.14906626  0.47463539
   0.84575614  0.53642137  0.05139212
   0.15062688  0.46840452  0.94732952
   0.15129392  0.02807558  0.44975633
   0.84868028  0.96315606  0.55147792
   0.64709363  0.47541271  0.55609188
   0.35118066  0.53191710  0.44114893
   0.34936635  0.96659590  0.94585970
   0.64948263  0.02716494  0.04875490
   0.04471196  0.45249019  0.16087793
   0.96511110  0.55518110  0.84952759
   0.53305378  0.05192689  0.85201242
   0.46929085  0.94248725  0.14413537
   0.96616636  0.94023814  0.34940410
   0.03434915  0.05391351  0.65225201
   0.46603849  0.55604797  0.65634821
   0.52953095  0.44958793  0.34540145
   0.58851507  0.69947613  0.79438283
   0.40373441  0.30971768  0.21483550
   0.89885730  0.31232843  0.27892189
   0.09695000  0.69815102  0.72176246
   0.40107080  0.19941937  0.72077245
   0.59764666  0.79592378  0.27981600
   0.09743373  0.80342648  0.21568522
   0.90444715  0.19834008  0.78155607
   0.77649845  0.60222947  0.69975728
   0.22129589  0.39843420  0.31067952
   0.28421454  0.91040663  0.30908431
   0.72232871  0.09998415  0.69920244
   0.71540704  0.40747129  0.19041974
   0.28646335  0.59714187  0.80467296
   0.21621199  0.09970952  0.80437171
   0.78153897  0.89543300  0.19568610
   0.69784192  0.77839103  0.60103421
   0.30580217  0.22627879  0.39832329
   0.30664234  0.28092053  0.89958601
   0.69517577  0.71355995  0.09398559
   0.19607219  0.71773179  0.39681500
   0.80678903  0.28039080  0.59869292
   0.80609363  0.22402528  0.10012875
   0.19833683  0.78005459  0.90231988
   0.43065274  0.84412170  0.48228135
   0.55588177  0.15108192  0.52939483
   0.05718615  0.15359121  0.96537353
   0.94307719  0.84862729  0.02877792
   0.94177194  0.65180561  0.52625417
   0.05558268  0.35636305  0.46864134
   0.55115671  0.35024169  0.03520988
   0.43936033  0.64263711  0.97374017
   0.34690497  0.02680306  0.55836489
   0.65117090  0.96723497  0.44180813
   0.65208742  0.53797498  0.94931082
   0.35125725  0.47074378  0.05292107
   0.15247905  0.96757654  0.05221848
   0.84683738  0.02859393  0.94238898
   0.85104012  0.47028155  0.44280623
   0.15012394  0.52803232  0.55485526
   0.52681492  0.93820016  0.65413871
   0.47402617  0.05604210  0.34954928
   0.04522498  0.55047881  0.33505343
   0.97105140  0.44281588  0.65662557
   0.46470745  0.45127239  0.85084165
   0.53445268  0.55449067  0.14985369
   0.97209481  0.05241906  0.14958036
   0.03461257  0.94271759  0.84828542
   0.12532734  0.00655650  0.25429069
   0.87303854  0.00430508  0.74874572
   0.37867978  0.00715472  0.74411060
   0.62497279  0.00777890  0.25271149
   0.86378488  0.49394974  0.25573048
   0.12100471  0.50064555  0.74316880
   0.63318364  0.49122956  0.74119188
   0.38037597  0.49503619  0.25474651
   0.24814986  0.13012265  0.00230580
   0.75681226  0.88405961  0.00248331
   0.75240919  0.36088452  0.00066057
   0.24396667  0.62604349 -0.00158550
   0.24773473  0.87597378  0.49671267
   0.74818790  0.12707590  0.50136925
   0.75445146  0.61804183  0.50242721
   0.24748268  0.36920693  0.50226668
  -0.00500737  0.24006732  0.13373567
   0.00026388  0.75188677  0.87774831
   0.00322358  0.75330357  0.38051833
  -0.00232179  0.24857397  0.61374567
   0.50348540  0.24396884  0.87085315
   0.49642701  0.75729534  0.12865777
   0.50138509  0.75518408  0.62114852
   0.50117935  0.24476764  0.37773946
  -0.00488761  0.00206843  0.00187565
   0.50097104  0.00901579  0.49808997
  -0.00068921  0.49848764  0.51097457
   0.49924753  0.49590452  0.00056541
   0.75259986  0.24379924  0.25027699
   0.24523848  0.74998665  0.74144520
   0.75641520  0.75166180  0.74287874
   0.24832830  0.23707350  0.25271265
   0.25247075  0.24745608  0.74976248
   0.75759340  0.74989351  0.25477626
   0.24185882  0.75019515  0.25186100
   0.74801947  0.24775387  0.74382455
   0.50337203  0.49270862  0.49707185
   0.00182318  0.50194493 -0.00415829
   0.49939076  0.00815461  0.00294307
   0.00010237  0.00806695  0.49539975
   0.85724462  0.82092684  0.56770886
   0.14792019  0.82392898  0.06402192
   0.92969431  0.35612381  0.81868701
   0.93998926  0.84744740  0.17380049
   0.64789894  0.67997984  0.93286576
   0.19151726  0.41973965  0.09043625
   0.34135559  0.82816275  0.94034155
   0.57714592  0.62839262  0.31389938
   0.57239366  0.39122965  0.18486310
   0.42741128  0.59963947  0.81373888
   0.19149371  0.57939404  0.41339338
   0.85931979  0.31867371  0.43074887
   0.31752874  0.56893615  0.63715586
   0.31323488  0.92775538  0.10211288
   0.81917372  0.56784559  0.88973765
   0.06709619  0.14161035  0.81946641
   0.37277693  0.67185502  0.44008076
   0.68190805  0.56802855  0.10944438
   0.30966660  0.42196785  0.90347410
   0.38904428  0.31658504  0.07014352
   0.43345836  0.35390026  0.67783527
   0.06710935  0.85714772  0.67774182
   0.42344052  0.09525546  0.19209917
   0.05923862  0.62846423  0.17139270
   0.05830978  0.36918871  0.33059460
   0.68328444  0.07261118  0.89356818
   0.81728475  0.93173941  0.39300855
   0.57724808  0.87410837  0.81129440
   0.11119004  0.31809719  0.93264057
   0.18684461  0.92666844  0.90230468
   0.18258666  0.07194496  0.60454871
   0.86286483  0.68312763  0.07035830
  -0.01140327  0.24293262  0.88190047
   0.25697557  0.13026831  0.48814661
   0.37451688  0.48776137  0.75145192
   0.75119037  0.62455332  0.00075637
   0.73238847  0.87623147  0.50500244
   0.12467538  0.00003743  0.75023996
   0.87425703  0.50137867  0.74318175
  -0.00232400  0.73671484  0.61969272
   0.63193486  0.50223733  0.25897429
   0.50745714  0.23848394  0.61944903
   0.75714235  0.13071205  0.01103350
   0.87557728  0.00690748  0.24825600
   0.62555143  0.00373274  0.74253032
   0.51037294  0.24244469  0.12823609
   0.73933497  0.37924914  0.50642805
   0.49870723  0.75280269  0.86931175
   0.51755758  0.78150063  0.36224175
   0.12572525  0.50927488  0.24515784
Direct configuration=     4
   0.10027295  0.19629160  0.27561795
   0.90288556  0.80662546  0.71607604
   0.40513455  0.80235551  0.79118939
   0.59945343  0.19526175  0.22182631
   0.89854749  0.69471245  0.21728132
   0.09517843  0.30322312  0.78732146
   0.59556143  0.30915057  0.72221118
   0.41550930  0.69865825  0.29086964
   0.28072688  0.09854835  0.18803800
   0.71602297  0.89727840  0.80868148
   0.78395452  0.40257768  0.80959911
   0.21419600  0.59456306  0.19152125
   0.21685767  0.89948138  0.69783685
   0.77711234  0.09693713  0.30655085
   0.71589815  0.60306033  0.30261734
   0.28384917  0.40186459  0.69579732
   0.19415027  0.28125462  0.09967280
   0.80090479  0.71332976  0.90453750
   0.80494984  0.78389507  0.40342010
   0.19478679  0.21828258  0.60208257
   0.69266286  0.21778570  0.89966887
   0.30615840  0.77699520  0.09699988
   0.31200914  0.71912399  0.60541911
   0.70045744  0.28037459  0.39929375
   0.95148080  0.35259868  0.96708751
   0.05759173  0.64730044  0.03115588
   0.54794165  0.66431445  0.45531366
   0.44343564  0.34942509  0.53479909
   0.44315293  0.15262851  0.03457286
   0.55081932  0.83641788  0.95872793
   0.05263209  0.84793697  0.53351148
   0.93987872  0.14950422  0.47527654
   0.84731340  0.53611979  0.05128182
   0.15035249  0.46810598  0.94752678
   0.15069549  0.02837831  0.45068956
   0.84841874  0.96303883  0.55036755
   0.64741465  0.47671984  0.55611182
   0.35157162  0.53106195  0.44128620
   0.34982862  0.96752028  0.94621006
   0.64998219  0.02698742  0.04783998
   0.04360916  0.45222508  0.15734406
   0.96506468  0.55482462  0.85046468
   0.53414447  0.05134460  0.85147728
   0.46982208  0.94229292  0.14384255
   0.96580616  0.93975101  0.34939734
   0.03459343  0.05384027  0.65181415
   0.46622681  0.55562972  0.65543667
   0.53026691  0.44984272  0.34579591
   0.59188383  0.69853361  0.79291255
   0.40430148  0.30959278  0.21492208
   0.89813186  0.31359140  0.27897851
   0.09764487  0.69909107  0.72219501
   0.40168766  0.19978639  0.72086244
   0.61061808  0.79906252  0.26730691
   0.09844354  0.80222351  0.21541473
   0.90315833  0.19876151  0.78021459
   0.77585782  0.60190098  0.69988442
   0.21850503  0.40129619  0.30898944
   0.28148111  0.90676158  0.30811113
   0.72279669  0.10013627  0.69955143
   0.71543134  0.40717190  0.19021976
   0.28582531  0.59747068  0.80353896
   0.21588850  0.09979036  0.80392295
   0.78191789  0.89559374  0.19629065
   0.69866407  0.77730478  0.60134424
   0.30699166  0.22688986  0.39813205
   0.30711204  0.28022084  0.89941135
   0.69566007  0.71412654  0.09539484
   0.19638286  0.71776416  0.39558033
   0.80659675  0.28030090  0.59815404
   0.80705812  0.22442147  0.10133929
   0.19852560  0.77996463  0.90220018
   0.43364715  0.84434934  0.47886426
   0.55676346  0.14960743  0.52822578
   0.05707622  0.15262396  0.96581173
   0.94270033  0.84916399  0.02860930
   0.94060128  0.65097461  0.52465585
   0.05450992  0.35727171  0.46969071
   0.55061210  0.34960299  0.03564934
   0.44004358  0.64680862  0.97044588
   0.34729531  0.02694897  0.55906544
   0.64956855  0.96740291  0.44056463
   0.65193926  0.53766402  0.94972039
   0.35018851  0.47009000  0.05317906
   0.15160213  0.96768240  0.05169172
   0.84671640  0.02882566  0.94177100
   0.85129588  0.46992932  0.44262512
   0.14947353  0.52786238  0.55518968
   0.52654707  0.93767995  0.65456665
   0.47551976  0.05671271  0.34972903
   0.04337041  0.55254427  0.33959981
   0.97143199  0.44268528  0.65558250
   0.46469055  0.45117871  0.85075569
   0.53559812  0.55405111  0.15153737
   0.97237134  0.05225734  0.14931773
   0.03472301  0.94270171  0.84882173
   0.12688667  0.00639619  0.25515942
   0.87358802  0.00444238  0.74846561
   0.37856413  0.00763585  0.74354636
   0.62532515  0.00821814  0.25194259
   0.86346557  0.49338435  0.25537244
   0.12165684  0.50057360  0.74390395
   0.63234597  0.49088899  0.74217150
   0.38004463  0.49400795  0.25440931
   0.24761129  0.13077594  0.00211583
   0.75646005  0.88255149  0.00299370
   0.75183378  0.36188808 -0.00005587
   0.24533443  0.62562376 -0.00319719
   0.24788939  0.87653663  0.49563767
   0.74817123  0.12682964  0.50184840
   0.75443143  0.61850306  0.50253313
   0.24790598  0.36848859  0.50198398
  -0.00432764  0.23956210  0.13381619
   0.00023284  0.75191591  0.87777784
   0.00347973  0.75404190  0.38186020
  -0.00143627  0.24828726  0.61413046
   0.50375584  0.24444120  0.87156694
   0.49530253  0.75626374  0.12608180
   0.50158573  0.75476539  0.62035241
   0.50033889  0.24536574  0.37755234
  -0.00324390  0.00249846  0.00099262
   0.49896559  0.00793230  0.49883957
  -0.00007896  0.49880190  0.51194722
   0.50052686  0.49607764  0.00034435
   0.75135422  0.24414261  0.25097674
   0.24498260  0.74890812  0.74293639
   0.75728792  0.75205661  0.74539550
   0.24901833  0.23947206  0.25187869
   0.25113797  0.24860366  0.75052321
   0.75829066  0.75052058  0.25359447
   0.24429690  0.75524015  0.25260441
   0.74879209  0.24870834  0.74449487
   0.50064794  0.49304658  0.49773445
   0.00037882  0.50133514 -0.00476631
   0.49782966  0.00803773  0.00221910
  -0.00005447  0.00707084  0.49574067
   0.85914677  0.82099824  0.56808505
   0.14725433  0.82420484  0.06426100
   0.92861323  0.35766261  0.81756043
   0.94079042  0.84689239  0.17337470
   0.64749438  0.68095287  0.93219005
   0.19283716  0.41847717  0.08855506
   0.33952229  0.82845943  0.94089671
   0.57595517  0.62737338  0.31450347
   0.57182287  0.38933223  0.18373387
   0.42802098  0.59943234  0.81418496
   0.19237013  0.57953532  0.41664591
   0.86154100  0.31785199  0.42916676
   0.31688874  0.57040109  0.63416567
   0.31327685  0.92811965  0.10308112
   0.82015249  0.56665051  0.88768658
   0.06844549  0.14039784  0.81842976
   0.37160915  0.67189939  0.44042974
   0.68036557  0.56690486  0.11098999
   0.30912493  0.42154432  0.90449841
   0.38643638  0.31768805  0.06949137
   0.43266148  0.35457588  0.67797357
   0.06755590  0.85868909  0.67776333
   0.42234086  0.09376424  0.19332554
   0.05597530  0.63442116  0.16912303
   0.05752507  0.36503922  0.33142063
   0.68238946  0.07258018  0.89232491
   0.81845750  0.93217528  0.39192923
   0.57887241  0.87770918  0.81034259
   0.11368923  0.31917203  0.93356750
   0.18678070  0.92674306  0.90284731
   0.18170605  0.07188969  0.60541652
   0.86573225  0.68429633  0.07177222
  -0.01361127  0.24181470  0.88409069
   0.25837801  0.13051967  0.48627906
   0.37409444  0.48653952  0.75156861
   0.75156552  0.62420435  0.00128992
   0.72938086  0.87617754  0.50622795
   0.12503487 -0.00031996  0.75067359
   0.87400732  0.50214350  0.74142019
  -0.00160826  0.73422669  0.61975754
   0.63308791  0.50058718  0.26010746
   0.50828251  0.23728874  0.61955185
   0.75804086  0.13071854  0.01250384
   0.87583195  0.00822928  0.24742438
   0.62582617  0.00510124  0.73987068
   0.51145085  0.24155118  0.12741180
   0.73769573  0.37928677  0.50727306
   0.49750520  0.74923255  0.87719997
   0.49937904  0.77651139  0.38081120
   0.13139086  0.50269488  0.24777260
Direct configuration=     5
   0.10141549  0.19627484  0.27528621
   0.90273236  0.80686051  0.71558843
   0.40559345  0.80104325  0.79359210
   0.59995640  0.19537781  0.22293738
   0.90121563  0.69393415  0.21661686
   0.09564356  0.30256643  0.78791923
   0.59567559  0.30973052  0.72245045
   0.41560422  0.70110268  0.29331318
   0.28008228  0.09931140  0.18748905
   0.71645325  0.89779717  0.80862737
   0.78455530  0.40223682  0.81000717
   0.21410193  0.59484258  0.19211917
   0.21660970  0.89932685  0.69789541
   0.77674863  0.09717123  0.30687721
   0.71609557  0.60208061  0.30329066
   0.28339740  0.40098147  0.69532434
   0.19434999  0.28052185  0.10011281
   0.80079793  0.71317586  0.90352079
   0.80546461  0.78408482  0.40436292
   0.19480496  0.21809526  0.60181178
   0.69248222  0.21757295  0.89927906
   0.30576894  0.77679769  0.09783180
   0.31342502  0.71902313  0.60498897
   0.70162679  0.28027746  0.39930484
   0.95219493  0.35237138  0.96742783
   0.05795138  0.64790295  0.02968618
   0.54620039  0.66592560  0.45451637
   0.44430673  0.35078728  0.53442999
   0.44282657  0.15223683  0.03514393
   0.55123765  0.83785624  0.95911080
   0.05207834  0.84802586  0.53377121
   0.93856610  0.14936940  0.47622025
   0.84847988  0.53582267  0.05071379
   0.15082944  0.46767649  0.94729918
   0.15094601  0.02851406  0.45150901
   0.84836434  0.96297606  0.54936656