 running on  160 total cores
 distrk:  each k-point on  160 cores,    1 groups
 distr:  one band on   20 cores,    8 groups
 using from now: INCAR     
 vasp.5.4.4.18Apr17-6-g9f103f2a35 (build May 01 2020 14:22:42) gamma-only       
  
 POSCAR found type information on POSCAR  O  La Zr Li Al
 POSCAR found :  5 types and     188 ions
 scaLAPACK will be used
 LDA part: xc-table for Pade appr. of Perdew
 POSCAR, INCAR and KPOINTS ok, starting setup
 FFT: planning ...
 WAVECAR not read
 WARNING: random wavefunctions but no delay for mixing, default for NELMDL
 entering main loop
       N       E                     dE             d eps       ncg     rms          rms(c)
DAV:   1     0.253103147604E+05    0.25310E+05   -0.42102E+05  1600   0.253E+03
DAV:   2     0.938005672486E+04   -0.15930E+05   -0.14761E+05  1424   0.703E+02
DAV:   3     0.266312281371E+04   -0.67169E+04   -0.61249E+04  1504   0.356E+02
DAV:   4    -0.375214887887E+03   -0.30383E+04   -0.28278E+04  2056   0.223E+02
DAV:   5    -0.141494901511E+04   -0.10397E+04   -0.99912E+03  2536   0.140E+02    0.117E+02
DAV:   6    -0.130013760012E+04    0.11481E+03   -0.14269E+03  2424   0.656E+01    0.502E+01
DAV:   7    -0.132376232287E+04   -0.23625E+02   -0.39802E+02  2560   0.340E+01    0.249E+01
DAV:   8    -0.133061586266E+04   -0.68535E+01   -0.23584E+02  2552   0.258E+01    0.241E+01
DAV:   9    -0.132571672584E+04    0.48991E+01   -0.47043E+01  2520   0.142E+01    0.756E+00
DAV:  10    -0.132660400559E+04   -0.88728E+00   -0.15554E+01  2616   0.776E+00    0.707E+00
DAV:  11    -0.132693211952E+04   -0.32811E+00   -0.56069E+00  2624   0.416E+00    0.415E+00
DAV:  12    -0.132676914709E+04    0.16297E+00   -0.24624E+00  2568   0.338E+00    0.270E+00
DAV:  13    -0.132683006078E+04   -0.60914E-01   -0.88712E-01  2576   0.176E+00    0.200E+00
DAV:  14    -0.132681413543E+04    0.15925E-01   -0.26956E-01  2624   0.105E+00    0.106E+00
DAV:  15    -0.132682078237E+04   -0.66469E-02   -0.88640E-02  2584   0.573E-01    0.850E-01
DAV:  16    -0.132682109574E+04   -0.31337E-03   -0.28129E-02  2624   0.311E-01    0.517E-01
DAV:  17    -0.132682042527E+04    0.67047E-03   -0.20523E-02  2408   0.271E-01    0.284E-01
DAV:  18    -0.132682075898E+04   -0.33371E-03   -0.45718E-03  2416   0.144E-01    0.109E-01
DAV:  19    -0.132682081732E+04   -0.58338E-04   -0.17770E-03  2624   0.861E-02    0.787E-02
DAV:  20    -0.132682085821E+04   -0.40891E-04   -0.58239E-04  2616   0.418E-02    0.313E-02
DAV:  21    -0.132682087874E+04   -0.20524E-04   -0.17728E-04  2624   0.236E-02    0.288E-02
DAV:  22    -0.132682089157E+04   -0.12831E-04   -0.56884E-05  2144   0.126E-02    0.147E-02
DAV:  23    -0.132682088799E+04    0.35757E-05   -0.46178E-05  2216   0.120E-02    0.559E-03
DAV:  24    -0.132682089162E+04   -0.36242E-05   -0.12686E-05  1456   0.773E-03    0.283E-03
DAV:  25    -0.132682089182E+04   -0.20501E-06   -0.43052E-06  1040   0.531E-03
   1 F= -.13268209E+04 E0= -.13268209E+04  d E =-.132682E+04
 BRION: g(F)=  0.632E+02 g(S)=  0.000E+00
 bond charge predicted
       N       E                     dE             d eps       ncg     rms          rms(c)
DAV:   1    -0.129021547450E+04    0.36605E+02   -0.71983E+03  1648   0.123E+02    0.292E+01
DAV:   2    -0.134651496872E+04   -0.56299E+02   -0.64619E+02  2584   0.566E+01    0.150E+01
DAV:   3    -0.134407086444E+04    0.24441E+01   -0.35409E+01  2616   0.150E+01    0.984E+00
DAV:   4    -0.134199526537E+04    0.20756E+01   -0.15812E+01  2352   0.812E+00    0.469E+00
DAV:   5    -0.134192676101E+04    0.68504E-01   -0.45009E+00  2512   0.446E+00    0.349E+00
DAV:   6    -0.134182160344E+04    0.10516E+00   -0.28592E+00  2592   0.287E+00    0.182E+00
DAV:   7    -0.134179591124E+04    0.25692E-01   -0.36645E-01  2536   0.166E+00    0.118E+00
DAV:   8    -0.134179205843E+04    0.38528E-02   -0.44414E-01  2512   0.112E+00    0.702E-01
DAV:   9    -0.134179400479E+04   -0.19464E-02   -0.72356E-02  2536   0.555E-01    0.572E-01
DAV:  10    -0.134179070507E+04    0.32997E-02   -0.29082E-02  2624   0.307E-01    0.254E-01
DAV:  11    -0.134179117830E+04   -0.47324E-03   -0.18767E-02  2608   0.232E-01    0.158E-01
DAV:  12    -0.134179109884E+04    0.79465E-04   -0.27438E-03  2528   0.124E-01    0.925E-02
DAV:  13    -0.134179109763E+04    0.12064E-05   -0.15382E-03  2616   0.673E-02    0.252E-02
DAV:  14    -0.134179111988E+04   -0.22248E-04   -0.21434E-04  2624   0.312E-02    0.144E-02
DAV:  15    -0.134179112499E+04   -0.51117E-05   -0.60399E-05  2592   0.157E-02    0.769E-03
DAV:  16    -0.134179112593E+04   -0.94318E-06   -0.20300E-05  2176   0.974E-03    0.495E-03
DAV:  17    -0.134179112694E+04   -0.10092E-05   -0.10079E-05  1744   0.688E-03    0.407E-03
DAV:  18    -0.134179112681E+04    0.13041E-06   -0.13897E-06  1040   0.455E-03
   2 F= -.13417911E+04 E0= -.13417911E+04  d E =-.149702E+02
 BRION: g(F)=  0.169E+03 g(S)=  0.000E+00 retain N=  1 mean eig= 0.33
 eig:   0.333
 bond charge predicted
       N       E                     dE             d eps       ncg     rms          rms(c)
DAV:   1    -0.132699810424E+04    0.14793E+02   -0.23777E+03  1312   0.600E+01    0.214E+01
DAV:   2    -0.135636047646E+04   -0.29362E+02   -0.37789E+02  2472   0.309E+01    0.182E+01
DAV:   3    -0.135296364071E+04    0.33968E+01   -0.36211E+01  2568   0.115E+01    0.134E+01
DAV:   4    -0.135056064422E+04    0.24030E+01   -0.30251E+01  2144   0.652E+00    0.545E+00
DAV:   5    -0.135106618082E+04   -0.50554E+00   -0.65577E+00  2424   0.379E+00    0.647E+00
DAV:   6    -0.135035414919E+04    0.71203E+00   -0.78158E+00  2456   0.333E+00    0.150E+00
DAV:   7    -0.135039892160E+04   -0.44772E-01   -0.10320E+00  2368   0.210E+00    0.147E+00
DAV:   8    -0.135037663162E+04    0.22290E-01   -0.37208E-01  2472   0.974E-01    0.575E-01
DAV:   9    -0.135037771463E+04   -0.10830E-02   -0.54452E-02  2504   0.490E-01    0.331E-01
DAV:  10    -0.135037800646E+04   -0.29184E-03   -0.18537E-02  2400   0.254E-01    0.239E-01
DAV:  11    -0.135037788653E+04    0.11993E-03   -0.62388E-03  2488   0.156E-01    0.167E-01
DAV:  12    -0.135037766123E+04    0.22530E-03   -0.30010E-03  2584   0.868E-02    0.671E-02
DAV:  13    -0.135037770468E+04   -0.43451E-04   -0.14278E-03  2600   0.657E-02    0.446E-02
DAV:  14    -0.135037769369E+04    0.10991E-04   -0.19069E-04  2496   0.324E-02    0.341E-02
DAV:  15    -0.135037768818E+04    0.55056E-05   -0.13956E-04  2544   0.199E-02    0.126E-02
DAV:  16    -0.135037769004E+04   -0.18564E-05   -0.26437E-05  2480   0.102E-02    0.691E-03
DAV:  17    -0.135037768927E+04    0.77572E-06   -0.74190E-06  1680   0.593E-03
   3 F= -.13503777E+04 E0= -.13503777E+04  d E =-.858656E+01
 BRION: g(F)=  0.243E+02 g(S)=  0.000E+00 retain N=  2 mean eig= 1.93
 eig:   0.184  3.676
 bond charge predicted
       N       E                     dE             d eps       ncg     rms          rms(c)
DAV:   1    -0.134892170254E+04    0.14560E+01   -0.90011E+02  1416   0.370E+01    0.841E+00
DAV:   2    -0.135489053630E+04   -0.59688E+01   -0.71145E+01  2312   0.173E+01    0.475E+00
DAV:   3    -0.135491765957E+04   -0.27123E-01   -0.54747E+00  2552   0.503E+00    0.415E+00
DAV:   4    -0.135465161683E+04    0.26604E+00   -0.16406E+00  2408   0.229E+00    0.207E+00
DAV:   5    -0.135462908582E+04    0.22531E-01   -0.10112E+00  2320   0.171E+00    0.199E+00
DAV:   6    -0.135456798555E+04    0.61100E-01   -0.38123E-01  2496   0.130E+00    0.122E+00
DAV:   7    -0.135456461828E+04    0.33673E-02   -0.33236E-01  2504   0.913E-01    0.642E-01
DAV:   8    -0.135456165859E+04    0.29597E-02   -0.34881E-02  2544   0.397E-01    0.388E-01
DAV:   9    -0.135456063596E+04    0.10226E-02   -0.13016E-02  2592   0.194E-01    0.156E-01
DAV:  10    -0.135456078971E+04   -0.15376E-03   -0.44534E-03  2584   0.121E-01    0.103E-01
DAV:  11    -0.135456069494E+04    0.94770E-04   -0.92103E-04  2592   0.694E-02    0.596E-02
DAV:  12    -0.135456069390E+04    0.10395E-05   -0.51945E-04  2576   0.393E-02    0.224E-02
DAV:  13    -0.135456070016E+04   -0.62583E-05   -0.80442E-05  2592   0.197E-02    0.127E-02
DAV:  14    -0.135456070082E+04   -0.66210E-06   -0.20566E-05  2336   0.954E-03    0.894E-03
DAV:  15    -0.135456070079E+04    0.31141E-07   -0.17933E-05  2000   0.810E-03    0.528E-03
DAV:  16    -0.135456070061E+04    0.18389E-06   -0.23158E-06  1088   0.500E-03
   4 F= -.13545607E+04 E0= -.13545607E+04  d E =-.418301E+01
 BRION: g(F)=  0.676E+01 g(S)=  0.000E+00 retain N=  2 mean eig= 0.30
 eig:   0.302  0.302
 bond charge predicted
       N       E                     dE             d eps       ncg     rms          rms(c)
DAV:   1    -0.135623412004E+04   -0.16734E+01   -0.24969E+02  1392   0.218E+01    0.402E+00
DAV:   2    -0.135751008486E+04   -0.12760E+01   -0.13806E+01  2304   0.837E+00    0.201E+00
DAV:   3    -0.135752427533E+04   -0.14190E-01   -0.93200E-01  2624   0.183E+00    0.168E+00
DAV:   4    -0.135748019869E+04    0.44077E-01   -0.30573E-01  2512   0.105E+00    0.781E-01
DAV:   5    -0.135747886170E+04    0.13370E-02   -0.92561E-02  2480   0.607E-01    0.598E-01
DAV:   6    -0.135747612276E+04    0.27389E-02   -0.65926E-02  2584   0.452E-01    0.264E-01
DAV:   7    -0.135747616004E+04   -0.37282E-04   -0.19409E-02  2392   0.253E-01    0.213E-01
DAV:   8    -0.135747604281E+04    0.11724E-03   -0.53960E-03  2448   0.130E-01    0.121E-01
DAV:   9    -0.135747590059E+04    0.14222E-03   -0.24763E-03  2488   0.842E-02    0.580E-02
DAV:  10    -0.135747598589E+04   -0.85299E-04   -0.10347E-03  2424   0.573E-02    0.660E-02
DAV:  11    -0.135747593569E+04    0.50202E-04   -0.28816E-04  2560   0.348E-02    0.304E-02
DAV:  12    -0.135747594133E+04   -0.56475E-05   -0.28014E-04  2512   0.263E-02    0.186E-02
DAV:  13    -0.135747594105E+04    0.28338E-06   -0.38996E-05  2192   0.141E-02    0.133E-02
DAV:  14    -0.135747593977E+04    0.12777E-05   -0.23005E-05  1704   0.813E-03    0.412E-03
DAV:  15    -0.135747594006E+04   -0.28963E-06   -0.37346E-06  1136   0.529E-03
   5 F= -.13574759E+04 E0= -.13574759E+04  d E =-.291524E+01
 BRION: g(F)=  0.313E+01 g(S)=  0.000E+00 retain N=  3 mean eig= 0.48
 eig:   0.807  0.312  0.312
 bond charge predicted
       N       E                     dE             d eps       ncg     rms          rms(c)
DAV:   1    -0.135815421157E+04   -0.67827E+00   -0.27039E+02  1352   0.227E+01    0.335E+00
DAV:   2    -0.135951106801E+04   -0.13569E+01   -0.14292E+01  2312   0.837E+00    0.179E+00
DAV:   3    -0.135954461899E+04   -0.33551E-01   -0.94722E-01  2600   0.176E+00    0.151E+00
DAV:   4    -0.135950663205E+04    0.37987E-01   -0.19808E-01  2536   0.902E-01    0.828E-01
DAV:   5    -0.135949631997E+04    0.10312E-01   -0.91761E-02  2464   0.575E-01    0.462E-01
DAV:   6    -0.135949679533E+04   -0.47536E-03   -0.39740E-02  2592   0.385E-01    0.333E-01
DAV:   7    -0.135949583443E+04    0.96090E-03   -0.19674E-02  2472   0.258E-01    0.187E-01
DAV:   8    -0.135949597405E+04   -0.13962E-03   -0.66511E-03  2536   0.148E-01    0.106E-01
DAV:   9    -0.135949585180E+04    0.12225E-03   -0.13373E-03  2576   0.741E-02    0.622E-02
DAV:  10    -0.135949591970E+04   -0.67896E-04   -0.10324E-03  2472   0.525E-02    0.570E-02
DAV:  11    -0.135949586675E+04    0.52945E-04   -0.37805E-04  2496   0.402E-02    0.169E-02
DAV:  12    -0.135949587834E+04   -0.11581E-04   -0.15696E-04  2456   0.245E-02    0.145E-02
DAV:  13    -0.135949587735E+04    0.98434E-06   -0.29074E-05  2392   0.112E-02    0.803E-03
DAV:  14    -0.135949587773E+04   -0.38138E-06   -0.13882E-05  1864   0.702E-03    0.446E-03
DAV:  15    -0.135949587782E+04   -0.84576E-07   -0.12373E-06  1016   0.422E-03
   6 F= -.13594959E+04 E0= -.13594959E+04  d E =-.201994E+01
 BRION: g(F)=  0.234E+01 g(S)=  0.000E+00 retain N=  4 mean eig= 0.61
 eig:   1.199  0.324  0.324  0.599
 bond charge predicted
       N       E                     dE             d eps       ncg     rms          rms(c)
DAV:   1    -0.135988739481E+04   -0.39152E+00   -0.24266E+02  1360   0.216E+01    0.311E+00
DAV:   2    -0.136109034397E+04   -0.12029E+01   -0.12613E+01  2312   0.809E+00    0.156E+00
DAV:   3    -0.136112425355E+04   -0.33910E-01   -0.83971E-01  2608   0.164E+00    0.123E+00
DAV:   4    -0.136109259988E+04    0.31654E-01   -0.16791E-01  2520   0.852E-01    0.642E-01
DAV:   5    -0.136108750015E+04    0.50997E-02   -0.59410E-02  2496   0.487E-01    0.352E-01
DAV:   6    -0.136108776497E+04   -0.26481E-03   -0.26595E-02  2592   0.298E-01    0.170E-01
DAV:   7    -0.136108771981E+04    0.45160E-04   -0.62465E-03  2272   0.168E-01    0.127E-01
DAV:   8    -0.136108781955E+04   -0.99743E-04   -0.32814E-03  2344   0.921E-02    0.811E-02
DAV:   9    -0.136108775358E+04    0.65970E-04   -0.70600E-04  2616   0.582E-02    0.478E-02
DAV:  10    -0.136108776454E+04   -0.10960E-04   -0.61605E-04  2536   0.434E-02    0.370E-02
DAV:  11    -0.136108775476E+04    0.97772E-05   -0.18407E-04  2528   0.273E-02    0.154E-02
DAV:  12    -0.136108775748E+04   -0.27167E-05   -0.51499E-05  2424   0.144E-02    0.862E-03
DAV:  13    -0.136108775770E+04   -0.22462E-06   -0.11835E-05  1880   0.755E-03    0.536E-03
DAV:  14    -0.136108775797E+04   -0.26802E-06   -0.64742E-06  1560   0.562E-03
   7 F= -.13610878E+04 E0= -.13610878E+04  d E =-.159188E+01
 BRION: g(F)=  0.112E+01 g(S)=  0.000E+00 retain N=  5 mean eig= 0.81
 eig:   1.117  1.133  1.133  0.269  0.398
 bond charge predicted
       N       E                     dE             d eps       ncg     rms          rms(c)
DAV:   1    -0.136133666022E+04   -0.24890E+00   -0.10770E+02  1368   0.145E+01    0.201E+00
DAV:   2    -0.136186786322E+04   -0.53120E+00   -0.56174E+00  2288   0.554E+00    0.105E+00
DAV:   3    -0.136188798284E+04   -0.20120E-01   -0.41389E-01  2616   0.110E+00    0.826E-01
DAV:   4    -0.136187526674E+04    0.12716E-01   -0.60756E-02  2544   0.538E-01    0.466E-01
DAV:   5    -0.136187162121E+04    0.36455E-02   -0.27629E-02  2368   0.324E-01    0.209E-01
DAV:   6    -0.136187208833E+04   -0.46713E-03   -0.11264E-02  2568   0.201E-01    0.148E-01
DAV:   7    -0.136187202018E+04    0.68153E-04   -0.38084E-03  2432   0.119E-01    0.100E-01
DAV:   8    -0.136187202504E+04   -0.48617E-05   -0.17479E-03  2528   0.735E-02    0.597E-02
DAV:   9    -0.136187199792E+04    0.27119E-04   -0.31748E-04  2560   0.400E-02    0.412E-02
DAV:  10    -0.136187200895E+04   -0.11025E-04   -0.43538E-04  2376   0.347E-02    0.318E-02
DAV:  11    -0.136187199566E+04    0.13292E-04   -0.11728E-04  2464   0.243E-02    0.123E-02
DAV:  12    -0.136187199966E+04   -0.40052E-05   -0.64974E-05  2352   0.134E-02    0.109E-02
DAV:  13    -0.136187199820E+04    0.14657E-05   -0.94728E-06  1680   0.725E-03    0.509E-03
DAV:  14    -0.136187199840E+04   -0.20048E-06   -0.76739E-06  1568   0.580E-03
   8 F= -.13618720E+04 E0= -.13618720E+04  d E =-.784240E+00
 BRION: g(F)=  0.629E+00 g(S)=  0.000E+00 retain N=  6 mean eig= 1.07
 eig:   2.050  2.050  1.111  0.468  0.468  0.268
 bond charge predicted
       N       E                     dE             d eps       ncg     rms          rms(c)
DAV:   1    -0.136208902411E+04   -0.21703E+00   -0.60922E+01  1376   0.110E+01    0.148E+00
DAV:   2    -0.136239877382E+04   -0.30975E+00   -0.32655E+00  2296   0.429E+00    0.757E-01
DAV:   3    -0.136241320474E+04   -0.14431E-01   -0.24437E-01  2624   0.829E-01    0.601E-01
DAV:   4    -0.136240651477E+04    0.66900E-02   -0.33553E-02  2568   0.413E-01    0.338E-01
DAV:   5    -0.136240465170E+04    0.18631E-02   -0.14408E-02  2432   0.245E-01    0.148E-01
DAV:   6    -0.136240502491E+04   -0.37321E-03   -0.63063E-03  2568   0.147E-01    0.102E-01
DAV:   7    -0.136240498334E+04    0.41563E-04   -0.16564E-03  2448   0.847E-02    0.688E-02
DAV:   8    -0.136240499703E+04   -0.13681E-04   -0.85549E-04  2496   0.508E-02    0.391E-02
DAV:   9    -0.136240498564E+04    0.11385E-04   -0.14129E-04  2560   0.277E-02    0.271E-02
DAV:  10    -0.136240498615E+04   -0.50833E-06   -0.14272E-04  2536   0.216E-02    0.156E-02
DAV:  11    -0.136240498578E+04    0.37091E-06   -0.38699E-05  2368   0.138E-02    0.638E-03
DAV:  12    -0.136240498684E+04   -0.10641E-05   -0.12517E-05  1864   0.775E-03    0.605E-03
DAV:  13    -0.136240498618E+04    0.66122E-06   -0.21395E-06  1040   0.546E-03
   9 F= -.13624050E+04 E0= -.13624050E+04  d E =-.532988E+00
 BRION: g(F)=  0.436E+00 g(S)=  0.000E+00 retain N=  7 mean eig= 1.27
 eig:   4.699  1.495  1.005  1.005  0.380  0.148  0.148
 bond charge predicted
       N       E                     dE             d eps       ncg     rms          rms(c)
DAV:   1    -0.136250127934E+04   -0.96292E-01   -0.88079E+01  1384   0.135E+01    0.168E+00
DAV:   2    -0.136296046892E+04   -0.45919E+00   -0.48414E+00  2304   0.534E+00    0.835E-01
DAV:   3    -0.136298642322E+04   -0.25954E-01   -0.37592E-01  2608   0.102E+00    0.683E-01
DAV:   4    -0.136298028853E+04    0.61347E-02   -0.38351E-02  2608   0.467E-01    0.467E-01
DAV:   5    -0.136297544794E+04    0.48406E-02   -0.20965E-02  2328   0.292E-01    0.181E-01
DAV:   6    -0.136297617954E+04   -0.73160E-03   -0.12358E-02  2480   0.208E-01    0.158E-01
DAV:   7    -0.136297607639E+04    0.10315E-03   -0.47769E-03  2472   0.132E-01    0.108E-01
DAV:   8    -0.136297603929E+04    0.37097E-04   -0.19710E-03  2576   0.846E-02    0.571E-02
DAV:   9    -0.136297602348E+04    0.15814E-04   -0.36664E-04  2496   0.411E-02    0.399E-02
DAV:  10    -0.136297602861E+04   -0.51353E-05   -0.18046E-04  2544   0.253E-02    0.213E-02
DAV:  11    -0.136297602931E+04   -0.69216E-06   -0.60784E-05  2464   0.174E-02    0.117E-02
DAV:  12    -0.136297603053E+04   -0.12193E-05   -0.28037E-05  2368   0.116E-02    0.118E-02
DAV:  13    -0.136297602917E+04    0.13580E-05   -0.17210E-05  1872   0.774E-03    0.559E-03
DAV:  14    -0.136297602897E+04    0.19827E-06   -0.32620E-06  1184   0.537E-03
  10 F= -.13629760E+04 E0= -.13629760E+04  d E =-.571043E+00
 BRION: g(F)=  0.361E+00 g(S)=  0.000E+00 retain N=  8 mean eig= 1.70
 eig:   3.865  3.865  1.311  1.571  1.571  0.959  0.295  0.163
 bond charge predicted
       N       E                     dE             d eps       ncg     rms          rms(c)
DAV:   1    -0.136301707521E+04   -0.41046E-01   -0.81859E+01  1392   0.129E+01    0.155E+00
DAV:   2    -0.136345369285E+04   -0.43662E+00   -0.46146E+00  2296   0.519E+00    0.806E-01
DAV:   3    -0.136347862902E+04   -0.24936E-01   -0.36506E-01  2624   0.998E-01    0.663E-01
DAV:   4    -0.136347273618E+04    0.58928E-02   -0.34363E-02  2624   0.451E-01    0.468E-01
DAV:   5    -0.136346715777E+04    0.55784E-02   -0.19141E-02  2320   0.277E-01    0.185E-01
DAV:   6    -0.136346768473E+04   -0.52696E-03   -0.13496E-02  2416   0.211E-01    0.150E-01
DAV:   7    -0.136346763198E+04    0.52749E-04   -0.51475E-03  2392   0.133E-01    0.109E-01
DAV:   8    -0.136346759848E+04    0.33501E-04   -0.18954E-03  2608   0.829E-02    0.600E-02
DAV:   9    -0.136346756335E+04    0.35129E-04   -0.43087E-04  2384   0.428E-02    0.396E-02
DAV:  10    -0.136346757112E+04   -0.77681E-05   -0.19035E-04  2440   0.257E-02    0.223E-02
DAV:  11    -0.136346757064E+04    0.47787E-06   -0.66956E-05  2440   0.177E-02    0.125E-02
DAV:  12    -0.136346757213E+04   -0.14879E-05   -0.33447E-05  2344   0.123E-02    0.130E-02
DAV:  13    -0.136346757015E+04    0.19786E-05   -0.19669E-05  1896   0.842E-03    0.596E-03
DAV:  14    -0.136346757015E+04    0.66793E-08   -0.66663E-06  1536   0.604E-03
  11 F= -.13634676E+04 E0= -.13634676E+04  d E =-.491541E+00
 BRION: g(F)=  0.171E+00 g(S)=  0.000E+00 retain N=  8 mean eig= 1.46
 eig:   3.325  2.526  2.526  0.967  0.967  0.063  0.671  0.671
 bond charge predicted
       N       E                     dE             d eps       ncg     rms          rms(c)
DAV:   1    -0.136354774281E+04   -0.80173E-01   -0.40707E+01  1384   0.915E+00    0.112E+00
DAV:   2    -0.136376361405E+04   -0.21587E+00   -0.22853E+00  2296   0.363E+00    0.565E-01
DAV:   3    -0.136377642965E+04   -0.12816E-01   -0.18309E-01  2600   0.712E-01    0.464E-01
DAV:   4    -0.136377356060E+04    0.28690E-02   -0.18170E-02  2600   0.323E-01    0.321E-01
DAV:   5    -0.136377113428E+04    0.24263E-02   -0.97829E-03  2352   0.198E-01    0.123E-01
DAV:   6    -0.136377145905E+04   -0.32477E-03   -0.60907E-03  2440   0.145E-01    0.106E-01
DAV:   7    -0.136377142252E+04    0.36523E-04   -0.24014E-03  2456   0.935E-02    0.741E-02
DAV:   8    -0.136377140321E+04    0.19310E-04   -0.94833E-04  2600   0.588E-02    0.400E-02
DAV:   9    -0.136377139442E+04    0.87886E-05   -0.18038E-04  2448   0.289E-02    0.281E-02
DAV:  10    -0.136377139637E+04   -0.19482E-05   -0.82707E-05  2488   0.171E-02    0.154E-02
DAV:  11    -0.136377139712E+04   -0.74685E-06   -0.29115E-05  2384   0.120E-02    0.890E-03
DAV:  12    -0.136377139725E+04   -0.12689E-06   -0.12498E-05  1896   0.843E-03    0.790E-03
DAV:  13    -0.136377139685E+04    0.39690E-06   -0.10213E-05  1728   0.613E-03    0.424E-03
DAV:  14    -0.136377139663E+04    0.21620E-06   -0.15919E-06   968   0.454E-03
  12 F= -.13637714E+04 E0= -.13637714E+04  d E =-.303826E+00
 BRION: g(F)=  0.131E+00 g(S)=  0.000E+00 retain N=  9 mean eig= 2.30
 eig:   6.003  6.003  3.401  1.287  1.287  0.013  0.876  0.876  0.940
 bond charge predicted
       N       E                     dE             d eps       ncg     rms          rms(c)
DAV:   1    -0.136385446943E+04   -0.83073E-01   -0.28257E+01  1384   0.761E+00    0.878E-01
DAV:   2    -0.136400103920E+04   -0.14657E+00   -0.15488E+00  2304   0.295E+00    0.448E-01
DAV:   3    -0.136401010206E+04   -0.90629E-02   -0.12489E-01  2600   0.584E-01    0.374E-01
DAV:   4    -0.136400858196E+04    0.15201E-02   -0.11248E-02  2608   0.255E-01    0.277E-01
DAV:   5    -0.136400648920E+04    0.20928E-02   -0.61174E-03  2312   0.160E-01    0.115E-01
DAV:   6    -0.136400661756E+04   -0.12836E-03   -0.53167E-03  2304   0.135E-01    0.892E-02
DAV:   7    -0.136400661255E+04    0.50111E-05   -0.21922E-03  2416   0.862E-02    0.697E-02
DAV:   8    -0.136400659254E+04    0.20006E-04   -0.70300E-04  2600   0.521E-02    0.378E-02
DAV:   9    -0.136400657848E+04    0.14061E-04   -0.18942E-04  2432   0.273E-02    0.236E-02
DAV:  10    -0.136400658174E+04   -0.32570E-05   -0.65367E-05  2448   0.153E-02    0.147E-02
DAV:  11    -0.136400658167E+04    0.65425E-07   -0.22384E-05  2232   0.103E-02    0.963E-03
DAV:  12    -0.136400658133E+04    0.34530E-06   -0.13751E-05  1912   0.828E-03    0.821E-03
DAV:  13    -0.136400658080E+04    0.52659E-06   -0.90678E-06  1728   0.610E-03
  13 F= -.13640066E+04 E0= -.13640066E+04  d E =-.235184E+00
 BRION: g(F)=  0.111E+00 g(S)=  0.000E+00 retain N=  9 mean eig= 2.83
 eig:   7.916  7.916  1.782  1.782  1.473  1.473  0.698  1.201  1.201
 bond charge predicted
       N       E                     dE             d eps       ncg     rms          rms(c)
DAV:   1    -0.136394522352E+04    0.61358E-01   -0.74048E+01  1384   0.123E+01    0.139E+00
DAV:   2    -0.136433106310E+04   -0.38584E+00   -0.40656E+00  2296   0.479E+00    0.716E-01
DAV:   3    -0.136435456408E+04   -0.23501E-01   -0.32705E-01  2608   0.937E-01    0.599E-01
DAV:   4    -0.136435084476E+04    0.37193E-02   -0.28073E-02  2616   0.406E-01    0.456E-01
DAV:   5    -0.136434498388E+04    0.58609E-02   -0.14595E-02  2344   0.244E-01    0.209E-01
DAV:   6    -0.136434472719E+04    0.25669E-03   -0.14459E-02  2240   0.220E-01    0.128E-01
DAV:   7    -0.136434492602E+04   -0.19884E-03   -0.72213E-03  2400   0.151E-01    0.118E-01
DAV:   8    -0.136434485061E+04    0.75410E-04   -0.16367E-03  2560   0.860E-02    0.747E-02
DAV:   9    -0.136434478664E+04    0.63979E-04   -0.76269E-04  2568   0.496E-02    0.377E-02
DAV:  10    -0.136434480401E+04   -0.17376E-04   -0.22458E-04  2536   0.301E-02    0.261E-02
DAV:  11    -0.136434480535E+04   -0.13345E-05   -0.74733E-05  2264   0.175E-02    0.191E-02
DAV:  12    -0.136434480462E+04    0.72242E-06   -0.72795E-05  2248   0.168E-02    0.179E-02
DAV:  13    -0.136434480169E+04    0.29326E-05   -0.33492E-05  2200   0.115E-02    0.118E-02
DAV:  14    -0.136434480066E+04    0.10317E-05   -0.13957E-05  1800   0.705E-03    0.416E-03
DAV:  15    -0.136434480050E+04    0.15895E-06   -0.15506E-06   952   0.437E-03
  14 F= -.13643448E+04 E0= -.13643448E+04  d E =-.338220E+00
 BRION: g(F)=  0.915E-01 g(S)=  0.000E+00 retain N=  5 mean eig= 4.43
 eig:   7.978  7.978  1.512  2.347  2.347
 bond charge predicted
       N       E                     dE             d eps       ncg     rms          rms(c)
DAV:   1    -0.136435988292E+04   -0.15082E-01   -0.43362E+01  1384   0.937E+00    0.105E+00
DAV:   2    -0.136458025891E+04   -0.22038E+00   -0.23180E+00  2296   0.361E+00    0.538E-01
DAV:   3    -0.136459375407E+04   -0.13495E-01   -0.18466E-01  2584   0.701E-01    0.442E-01
DAV:   4    -0.136459165843E+04    0.20956E-02   -0.16417E-02  2616   0.302E-01    0.330E-01
DAV:   5    -0.136458857734E+04    0.30811E-02   -0.86071E-03  2304   0.189E-01    0.137E-01
DAV:   6    -0.136458871934E+04   -0.14199E-03   -0.71979E-03  2312   0.153E-01    0.975E-02
DAV:   7    -0.136458873024E+04   -0.10907E-04   -0.28393E-03  2472   0.982E-02    0.757E-02
DAV:   8    -0.136458870739E+04    0.22851E-04   -0.83502E-04  2552   0.580E-02    0.442E-02
DAV:   9    -0.136458868956E+04    0.17830E-04   -0.24839E-04  2400   0.309E-02    0.270E-02
DAV:  10    -0.136458869505E+04   -0.54872E-05   -0.89514E-05  2456   0.178E-02    0.164E-02
DAV:  11    -0.136458869532E+04   -0.27196E-06   -0.26192E-05  2312   0.114E-02    0.104E-02
DAV:  12    -0.136458869518E+04    0.13765E-06   -0.18583E-05  2056   0.894E-03    0.902E-03
DAV:  13    -0.136458869444E+04    0.74414E-06   -0.10267E-05  1760   0.660E-03    0.471E-03
DAV:  14    -0.136458869425E+04    0.18493E-06   -0.30742E-06  1088   0.483E-03
  15 F= -.13645887E+04 E0= -.13645887E+04  d E =-.243894E+00
 BRION: g(F)=  0.755E-01 g(S)=  0.000E+00 retain N=  3 mean eig= 4.97
 eig:   6.432  6.432  2.033
 bond charge predicted
       N       E                     dE             d eps       ncg     rms          rms(c)
DAV:   1    -0.136463111309E+04   -0.42419E-01   -0.30337E+01  1384   0.786E+00    0.894E-01
DAV:   2    -0.136478634798E+04   -0.15523E+00   -0.16360E+00  2296   0.304E+00    0.452E-01
DAV:   3    -0.136479609241E+04   -0.97444E-02   -0.13179E-01  2584   0.596E-01    0.369E-01
DAV:   4    -0.136479463841E+04    0.14540E-02   -0.11611E-02  2600   0.255E-01    0.276E-01
DAV:   5    -0.136479251513E+04    0.21233E-02   -0.64292E-03  2304   0.163E-01    0.112E-01
DAV:   6    -0.136479265188E+04   -0.13675E-03   -0.50908E-03  2360   0.130E-01    0.860E-02
DAV:   7    -0.136479264279E+04    0.90858E-05   -0.19485E-03  2448   0.815E-02    0.633E-02
DAV:   8    -0.136479262583E+04    0.16962E-04   -0.62076E-04  2552   0.495E-02    0.354E-02
DAV:   9    -0.136479261724E+04    0.85847E-05   -0.16191E-04  2400   0.255E-02    0.225E-02
DAV:  10    -0.136479262028E+04   -0.30323E-05   -0.52496E-05  2472   0.140E-02    0.135E-02
DAV:  11    -0.136479262055E+04   -0.27189E-06   -0.17768E-05  2160   0.946E-03    0.831E-03
DAV:  12    -0.136479262041E+04    0.13478E-06   -0.10916E-05  1816   0.721E-03    0.714E-03
DAV:  13    -0.136479261995E+04    0.46214E-06   -0.60222E-06  1464   0.547E-03
  16 F= -.13647926E+04 E0= -.13647926E+04  d E =-.203926E+00
 BRION: g(F)=  0.680E-01 g(S)=  0.000E+00 retain N=  3 mean eig= 5.52
 eig:   7.121  7.121  2.323
 bond charge predicted
       N       E                     dE             d eps       ncg     rms          rms(c)
DAV:   1    -0.136483679674E+04   -0.44176E-01   -0.24796E+01  1384   0.711E+00    0.804E-01
DAV:   2    -0.136496415733E+04   -0.12736E+00   -0.13450E+00  2296   0.277E+00    0.406E-01
DAV:   3    -0.136497212915E+04   -0.79718E-02   -0.10897E-01  2584   0.540E-01    0.331E-01
DAV:   4    -0.136497082636E+04    0.13028E-02   -0.94985E-03  2592   0.233E-01    0.245E-01
DAV:   5    -0.136496911525E+04    0.17111E-02   -0.55364E-03  2296   0.147E-01    0.966E-02
DAV:   6    -0.136496923230E+04   -0.11706E-03   -0.38729E-03  2328   0.114E-01    0.771E-02
DAV:   7    -0.136496923135E+04    0.95383E-06   -0.16159E-03  2480   0.736E-02    0.549E-02
DAV:   8    -0.136496921889E+04    0.12455E-04   -0.47951E-04  2560   0.440E-02    0.312E-02
DAV:   9    -0.136496921303E+04    0.58655E-05   -0.12654E-04  2416   0.225E-02    0.205E-02
DAV:  10    -0.136496921513E+04   -0.21047E-05   -0.41717E-05  2480   0.124E-02    0.120E-02
DAV:  11    -0.136496921541E+04   -0.27697E-06   -0.15581E-05  2072   0.894E-03    0.688E-03
DAV:  12    -0.136496921543E+04   -0.16531E-07   -0.88390E-06  1696   0.671E-03
  17 F= -.13649692E+04 E0= -.13649692E+04  d E =-.176595E+00
 BRION: g(F)=  0.622E-01 g(S)=  0.000E+00 retain N=  3 mean eig= 5.90
 eig:   7.866  7.866  1.961
 bond charge predicted
       N       E                     dE             d eps       ncg     rms          rms(c)
DAV:   1    -0.136499184323E+04   -0.22628E-01   -0.31544E+01  1384   0.804E+00    0.915E-01
DAV:   2    -0.136515394368E+04   -0.16210E+00   -0.17118E+00  2296   0.312E+00    0.460E-01
DAV:   3    -0.136516422556E+04   -0.10282E-01   -0.13844E-01  2584   0.612E-01    0.373E-01
DAV:   4    -0.136516270491E+04    0.15206E-02   -0.12349E-02  2616   0.264E-01    0.277E-01
DAV:   5    -0.136516059780E+04    0.21071E-02   -0.65259E-03  2328   0.165E-01    0.112E-01
DAV:   6    -0.136516073950E+04   -0.14170E-03   -0.50071E-03  2336   0.129E-01    0.854E-02
DAV:   7    -0.136516072908E+04    0.10418E-04   -0.19382E-03  2456   0.817E-02    0.624E-02
DAV:   8    -0.136516071757E+04    0.11507E-04   -0.64453E-04  2552   0.499E-02    0.363E-02
DAV:   9    -0.136516070779E+04    0.97850E-05   -0.16333E-04  2376   0.259E-02    0.234E-02
DAV:  10    -0.136516071051E+04   -0.27181E-05   -0.58793E-05  2464   0.145E-02    0.137E-02
DAV:  11    -0.136516071089E+04   -0.38785E-06   -0.17798E-05  2184   0.967E-03    0.842E-03
DAV:  12    -0.136516071080E+04    0.96421E-07   -0.11542E-05  1824   0.743E-03    0.713E-03
DAV:  13    -0.136516071038E+04    0.41861E-06   -0.67084E-06  1560   0.559E-03
  18 F= -.13651607E+04 E0= -.13651607E+04  d E =-.191495E+00
 BRION: g(F)=  0.544E-01 g(S)=  0.000E+00 retain N=  2 mean eig= 3.71
 eig:   3.714  3.714
 bond charge predicted
       N       E                     dE             d eps       ncg     rms          rms(c)
DAV:   1    -0.136521453524E+04   -0.53824E-01   -0.67207E+00  1376   0.373E+00    0.438E-01
DAV:   2    -0.136524984439E+04   -0.35309E-01   -0.37524E-01  2296   0.147E+00    0.218E-01
DAV:   3    -0.136525212248E+04   -0.22781E-02   -0.30804E-02  2576   0.296E-01    0.181E-01
DAV:   4    -0.136525178839E+04    0.33409E-03   -0.28374E-03  2608   0.127E-01    0.136E-01
DAV:   5    -0.136525128803E+04    0.50036E-03   -0.17002E-03  2320   0.823E-02    0.555E-02
DAV:   6    -0.136525131848E+04   -0.30450E-04   -0.12448E-03  2328   0.660E-02    0.473E-02
DAV:   7    -0.136525131356E+04    0.49200E-05   -0.56029E-04  2448   0.432E-02    0.336E-02
DAV:   8    -0.136525130851E+04    0.50535E-05   -0.18020E-04  2512   0.268E-02    0.184E-02
DAV:   9    -0.136525130667E+04    0.18324E-05   -0.44567E-05  2376   0.133E-02    0.117E-02
DAV:  10    -0.136525130724E+04   -0.56361E-06   -0.13402E-05  1960   0.747E-03    0.689E-03
DAV:  11    -0.136525130705E+04    0.18819E-06   -0.19871E-06  1008   0.545E-03
  19 F= -.13652513E+04 E0= -.13652513E+04  d E =-.905967E-01
 BRION: g(F)=  0.510E-01 g(S)=  0.000E+00 retain N=  3 mean eig= 4.04
 eig:   5.380  5.380  1.348
 bond charge predicted
       N       E                     dE             d eps       ncg     rms          rms(c)
DAV:   1    -0.136529079519E+04   -0.39488E-01   -0.19165E+01  1384   0.627E+00    0.708E-01
DAV:   2    -0.136538984788E+04   -0.99053E-01   -0.10475E+00  2288   0.245E+00    0.356E-01
DAV:   3    -0.136539611395E+04   -0.62661E-02   -0.84388E-02  2576   0.480E-01    0.288E-01
DAV:   4    -0.136539521492E+04    0.89903E-03   -0.75449E-03  2608   0.207E-01    0.217E-01
DAV:   5    -0.136539389740E+04    0.13175E-02   -0.39477E-03  2320   0.128E-01    0.904E-02
DAV:   6    -0.136539394962E+04   -0.52217E-04   -0.31070E-03  2288   0.101E-01    0.650E-02
DAV:   7    -0.136539395596E+04   -0.63365E-05   -0.12651E-03  2456   0.652E-02    0.495E-02
DAV:   8    -0.136539394918E+04    0.67712E-05   -0.40925E-04  2536   0.399E-02    0.300E-02
DAV:   9    -0.136539394168E+04    0.75008E-05   -0.11358E-04  2400   0.212E-02    0.186E-02
DAV:  10    -0.136539394358E+04   -0.18989E-05   -0.39234E-05  2448   0.120E-02    0.112E-02
DAV:  11    -0.136539394364E+04   -0.58862E-07   -0.94960E-06  1704   0.775E-03
  20 F= -.13653939E+04 E0= -.13653939E+04  d E =-.142637E+00
 BRION: g(F)=  0.471E-01 g(S)=  0.000E+00 retain N=  3 mean eig= 5.50
 eig:   7.511  7.511  1.492
