 running on  160 total cores
 distrk:  each k-point on  160 cores,    1 groups
 distr:  one band on   20 cores,    8 groups
 using from now: INCAR     
 vasp.5.4.4.18Apr17-6-g9f103f2a35 (build May 01 2020 14:22:42) gamma-only       
  
 POSCAR found type information on POSCAR  O  La Zr Li Al
 POSCAR found :  5 types and     188 ions
 scaLAPACK will be used
 LDA part: xc-table for Pade appr. of Perdew
 POSCAR, INCAR and KPOINTS ok, starting setup
 FFT: planning ...
 WAVECAR not read
 WARNING: random wavefunctions but no delay for mixing, default for NELMDL
 entering main loop
       N       E                     dE             d eps       ncg     rms          rms(c)
DAV:   1     0.251936827511E+05    0.25194E+05   -0.42183E+05  1640   0.253E+03
DAV:   2     0.944479023023E+04   -0.15749E+05   -0.14465E+05  1424   0.712E+02
DAV:   3     0.268955071581E+04   -0.67552E+04   -0.61629E+04  1504   0.357E+02
DAV:   4    -0.342471081781E+03   -0.30320E+04   -0.28324E+04  2032   0.224E+02
DAV:   5    -0.139096562246E+04   -0.10485E+04   -0.10073E+04  2536   0.141E+02    0.116E+02
DAV:   6    -0.129336439760E+04    0.97601E+02   -0.15209E+03  2440   0.667E+01    0.503E+01
DAV:   7    -0.131610880579E+04   -0.22744E+02   -0.41168E+02  2560   0.346E+01    0.260E+01
DAV:   8    -0.132212861037E+04   -0.60198E+01   -0.25841E+02  2520   0.276E+01    0.248E+01
DAV:   9    -0.131711923789E+04    0.50094E+01   -0.46839E+01  2536   0.144E+01    0.778E+00
DAV:  10    -0.131786396829E+04   -0.74473E+00   -0.15227E+01  2624   0.774E+00    0.687E+00
DAV:  11    -0.131822026152E+04   -0.35629E+00   -0.55183E+00  2624   0.408E+00    0.397E+00
DAV:  12    -0.131809604849E+04    0.12421E+00   -0.21364E+00  2560   0.340E+00    0.271E+00
DAV:  13    -0.131814172862E+04   -0.45680E-01   -0.84185E-01  2568   0.164E+00    0.182E+00
DAV:  14    -0.131813246302E+04    0.92656E-02   -0.25766E-01  2624   0.104E+00    0.103E+00
DAV:  15    -0.131813919802E+04   -0.67350E-02   -0.79496E-02  2544   0.552E-01    0.792E-01
DAV:  16    -0.131813917363E+04    0.24389E-04   -0.29624E-02  2616   0.322E-01    0.425E-01
DAV:  17    -0.131813879346E+04    0.38018E-03   -0.20291E-02  2464   0.269E-01    0.240E-01
DAV:  18    -0.131813906155E+04   -0.26809E-03   -0.43048E-03  2488   0.140E-01    0.111E-01
DAV:  19    -0.131813906367E+04   -0.21197E-05   -0.19521E-03  2568   0.844E-02    0.792E-02
DAV:  20    -0.131813912349E+04   -0.59820E-04   -0.50073E-04  2568   0.434E-02    0.198E-02
DAV:  21    -0.131813913580E+04   -0.12313E-04   -0.17088E-04  2616   0.238E-02    0.270E-02
DAV:  22    -0.131813915193E+04   -0.16129E-04   -0.65772E-05  2416   0.154E-02    0.114E-02
DAV:  23    -0.131813915090E+04    0.10286E-05   -0.33121E-05  2032   0.950E-03    0.634E-03
DAV:  24    -0.131813915506E+04   -0.41529E-05   -0.10156E-05  1184   0.777E-03    0.201E-03
DAV:  25    -0.131813915547E+04   -0.41079E-06   -0.38250E-06  1016   0.451E-03
   1 F= -.13181392E+04 E0= -.13181391E+04  d E =-.131814E+04
 BRION: g(F)=  0.835E+02 g(S)=  0.000E+00
 bond charge predicted
       N       E                     dE             d eps       ncg     rms          rms(c)
DAV:   1    -0.126958706870E+04    0.48552E+02   -0.90095E+03  1744   0.144E+02    0.326E+01
DAV:   2    -0.134478851440E+04   -0.75201E+02   -0.86294E+02  2576   0.670E+01    0.172E+01
DAV:   3    -0.134196328967E+04    0.28252E+01   -0.50081E+01  2608   0.179E+01    0.115E+01
DAV:   4    -0.133926639336E+04    0.26969E+01   -0.20177E+01  2440   0.889E+00    0.548E+00
DAV:   5    -0.133901842236E+04    0.24797E+00   -0.47553E+00  2536   0.494E+00    0.375E+00
DAV:   6    -0.133886608487E+04    0.15234E+00   -0.35091E+00  2536   0.336E+00    0.202E+00
DAV:   7    -0.133885115810E+04    0.14927E-01   -0.74850E-01  2552   0.205E+00    0.148E+00
DAV:   8    -0.133883926298E+04    0.11895E-01   -0.46448E-01  2584   0.116E+00    0.687E-01
DAV:   9    -0.133884057845E+04   -0.13155E-02   -0.74801E-02  2600   0.602E-01    0.447E-01
DAV:  10    -0.133883916209E+04    0.14164E-02   -0.20992E-02  2624   0.325E-01    0.239E-01
DAV:  11    -0.133884015417E+04   -0.99208E-03   -0.19489E-02  2592   0.241E-01    0.182E-01
DAV:  12    -0.133883995083E+04    0.20334E-03   -0.32137E-03  2568   0.125E-01    0.906E-02
DAV:  13    -0.133883994350E+04    0.73278E-05   -0.16869E-03  2624   0.722E-02    0.262E-02
DAV:  14    -0.133883996396E+04   -0.20459E-04   -0.25452E-04  2616   0.347E-02    0.143E-02
DAV:  15    -0.133883997072E+04   -0.67644E-05   -0.72663E-05  2616   0.175E-02    0.761E-03
DAV:  16    -0.133883997248E+04   -0.17600E-05   -0.22635E-05  2152   0.107E-02    0.532E-03
DAV:  17    -0.133883997295E+04   -0.47014E-06   -0.72813E-06  1560   0.695E-03
   2 F= -.13388400E+04 E0= -.13388400E+04  d E =-.207008E+02
 BRION: g(F)=  0.845E+02 g(S)=  0.000E+00 retain N=  1 mean eig= 0.50
 eig:   0.498
 bond charge predicted
       N       E                     dE             d eps       ncg     rms          rms(c)
DAV:   1    -0.131535313575E+04    0.23487E+02   -0.37561E+03  1400   0.814E+01    0.220E+01
DAV:   2    -0.135627772745E+04   -0.40925E+02   -0.50884E+02  2520   0.392E+01    0.207E+01
DAV:   3    -0.135317062504E+04    0.31071E+01   -0.38466E+01  2560   0.142E+01    0.158E+01
DAV:   4    -0.135034113128E+04    0.28295E+01   -0.31372E+01  2192   0.711E+00    0.750E+00
DAV:   5    -0.135124594610E+04   -0.90481E+00   -0.10104E+01  2424   0.497E+00    0.899E+00
DAV:   6    -0.134981006342E+04    0.14359E+01   -0.10843E+01  2480   0.433E+00    0.201E+00
DAV:   7    -0.134992761572E+04   -0.11755E+00   -0.20351E+00  2472   0.294E+00    0.174E+00
DAV:   8    -0.134989224984E+04    0.35366E-01   -0.38910E-01  2608   0.118E+00    0.840E-01
DAV:   9    -0.134989047269E+04    0.17772E-02   -0.15689E-01  2488   0.685E-01    0.435E-01
DAV:  10    -0.134989100001E+04   -0.52732E-03   -0.26451E-02  2336   0.349E-01    0.169E-01
DAV:  11    -0.134989113079E+04   -0.13078E-03   -0.86530E-03  2608   0.181E-01    0.123E-01
DAV:  12    -0.134989113404E+04   -0.32504E-05   -0.28051E-03  2600   0.105E-01    0.649E-02
DAV:  13    -0.134989118448E+04   -0.50439E-04   -0.12795E-03  2592   0.662E-02    0.510E-02
DAV:  14    -0.134989117121E+04    0.13271E-04   -0.43064E-04  2552   0.421E-02    0.244E-02
DAV:  15    -0.134989117821E+04   -0.70006E-05   -0.14092E-04  2584   0.253E-02    0.154E-02
DAV:  16    -0.134989117982E+04   -0.16156E-05   -0.50499E-05  2568   0.130E-02    0.779E-03
DAV:  17    -0.134989117993E+04   -0.10617E-06   -0.77362E-06  1520   0.751E-03
   3 F= -.13498912E+04 E0= -.13498912E+04  d E =-.110512E+02
 BRION: g(F)=  0.107E+02 g(S)=  0.000E+00 retain N=  2 mean eig= 1.15
 eig:   0.326  1.965
 bond charge predicted
       N       E                     dE             d eps       ncg     rms          rms(c)
DAV:   1    -0.135123880039E+04   -0.13476E+01   -0.47655E+02  1360   0.300E+01    0.574E+00
DAV:   2    -0.135376457278E+04   -0.25258E+01   -0.28627E+01  2280   0.115E+01    0.290E+00
DAV:   3    -0.135381551922E+04   -0.50946E-01   -0.22434E+00  2584   0.308E+00    0.241E+00
DAV:   4    -0.135373233601E+04    0.83183E-01   -0.51978E-01  2528   0.149E+00    0.129E+00
DAV:   5    -0.135371407286E+04    0.18263E-01   -0.22816E-01  2376   0.957E-01    0.804E-01
DAV:   6    -0.135371038788E+04    0.36850E-02   -0.11499E-01  2504   0.674E-01    0.538E-01
DAV:   7    -0.135370988014E+04    0.50774E-03   -0.57701E-02  2512   0.423E-01    0.340E-01
DAV:   8    -0.135370932773E+04    0.55241E-03   -0.99945E-03  2624   0.210E-01    0.192E-01
DAV:   9    -0.135370919277E+04    0.13496E-03   -0.44007E-03  2616   0.119E-01    0.101E-01
DAV:  10    -0.135370926093E+04   -0.68158E-04   -0.13876E-03  2240   0.751E-02    0.806E-02
DAV:  11    -0.135370919554E+04    0.65389E-04   -0.65673E-04  2400   0.464E-02    0.319E-02
DAV:  12    -0.135370920540E+04   -0.98676E-05   -0.28548E-04  2552   0.309E-02    0.217E-02
DAV:  13    -0.135370920496E+04    0.44900E-06   -0.61330E-05  2600   0.173E-02    0.133E-02
DAV:  14    -0.135370920537E+04   -0.41568E-06   -0.35801E-05  2280   0.102E-02    0.685E-03
DAV:  15    -0.135370920551E+04   -0.13683E-06   -0.67371E-06  1528   0.636E-03
   4 F= -.13537092E+04 E0= -.13537092E+04  d E =-.381803E+01
 BRION: g(F)=  0.462E+01 g(S)=  0.000E+00 retain N=  3 mean eig= 1.39
 eig:   3.323  0.428  0.428
 bond charge predicted
       N       E                     dE             d eps       ncg     rms          rms(c)
DAV:   1    -0.135481202686E+04   -0.11028E+01   -0.20861E+02  1376   0.197E+01    0.376E+00
DAV:   2    -0.135584996570E+04   -0.10379E+01   -0.11145E+01  2272   0.722E+00    0.185E+00
DAV:   3    -0.135586144283E+04   -0.11477E-01   -0.75541E-01  2608   0.159E+00    0.152E+00
DAV:   4    -0.135582679330E+04    0.34650E-01   -0.27372E-01  2496   0.979E-01    0.662E-01
DAV:   5    -0.135582648301E+04    0.31028E-03   -0.67047E-02  2488   0.545E-01    0.521E-01
DAV:   6    -0.135582506209E+04    0.14209E-02   -0.58254E-02  2528   0.394E-01    0.216E-01
DAV:   7    -0.135582489498E+04    0.16711E-03   -0.98037E-03  2384   0.200E-01    0.175E-01
DAV:   8    -0.135582480032E+04    0.94667E-04   -0.44964E-03  2424   0.109E-01    0.732E-02
DAV:   9    -0.135582481044E+04   -0.10122E-04   -0.13583E-03  2616   0.669E-02    0.561E-02
DAV:  10    -0.135582479008E+04    0.20360E-04   -0.39364E-04  2520   0.405E-02    0.363E-02
DAV:  11    -0.135582479033E+04   -0.25211E-06   -0.23784E-04  2544   0.272E-02    0.168E-02
DAV:  12    -0.135582479045E+04   -0.12119E-06   -0.52005E-05  2480   0.132E-02    0.981E-03
DAV:  13    -0.135582479106E+04   -0.60782E-06   -0.14506E-05  1960   0.831E-03    0.672E-03
DAV:  14    -0.135582479062E+04    0.43910E-06   -0.38116E-06  1168   0.570E-03
   5 F= -.13558248E+04 E0= -.13558248E+04  d E =-.211559E+01
 BRION: g(F)=  0.228E+01 g(S)=  0.000E+00 retain N=  4 mean eig= 1.13
 eig:   3.514  0.152  0.431  0.431
 bond charge predicted
       N       E                     dE             d eps       ncg     rms          rms(c)
DAV:   1    -0.135643573229E+04   -0.61094E+00   -0.27049E+02  1368   0.229E+01    0.337E+00
DAV:   2    -0.135774025374E+04   -0.13045E+01   -0.13700E+01  2280   0.845E+00    0.167E+00
DAV:   3    -0.135777452136E+04   -0.34268E-01   -0.91804E-01  2568   0.174E+00    0.137E+00
DAV:   4    -0.135773863388E+04    0.35887E-01   -0.18456E-01  2520   0.895E-01    0.752E-01
DAV:   5    -0.135773005072E+04    0.85832E-02   -0.81993E-02  2448   0.555E-01    0.409E-01
DAV:   6    -0.135772997736E+04    0.73354E-04   -0.33331E-02  2584   0.360E-01    0.240E-01
DAV:   7    -0.135772992124E+04    0.56119E-04   -0.13105E-02  2512   0.216E-01    0.153E-01
DAV:   8    -0.135772998343E+04   -0.62188E-04   -0.37885E-03  2568   0.116E-01    0.921E-02
DAV:   9    -0.135772990624E+04    0.77190E-04   -0.11328E-03  2624   0.651E-02    0.551E-02
DAV:  10    -0.135772995480E+04   -0.48561E-04   -0.76293E-04  2488   0.469E-02    0.507E-02
DAV:  11    -0.135772991217E+04    0.42635E-04   -0.27598E-04  2504   0.352E-02    0.166E-02
DAV:  12    -0.135772992214E+04   -0.99766E-05   -0.14056E-04  2496   0.214E-02    0.134E-02
DAV:  13    -0.135772992102E+04    0.11251E-05   -0.20571E-05  2120   0.102E-02    0.730E-03
DAV:  14    -0.135772992121E+04   -0.19434E-06   -0.12397E-05  1728   0.657E-03    0.377E-03
DAV:  15    -0.135772992124E+04   -0.22730E-07   -0.11544E-06  1008   0.429E-03
   6 F= -.13577299E+04 E0= -.13577299E+04  d E =-.190513E+01
 BRION: g(F)=  0.105E+01 g(S)=  0.000E+00 retain N=  5 mean eig= 1.03
 eig:   2.955  0.696  0.696  0.701  0.105
 bond charge predicted
       N       E                     dE             d eps       ncg     rms          rms(c)
DAV:   1    -0.135809735926E+04   -0.36744E+00   -0.16399E+02  1344   0.183E+01    0.277E+00
DAV:   2    -0.135888693722E+04   -0.78958E+00   -0.83079E+00  2280   0.679E+00    0.133E+00
DAV:   3    -0.135891688560E+04   -0.29948E-01   -0.59589E-01  2608   0.140E+00    0.103E+00
DAV:   4    -0.135889810702E+04    0.18779E-01   -0.11028E-01  2512   0.713E-01    0.524E-01
DAV:   5    -0.135889655777E+04    0.15492E-02   -0.40905E-02  2480   0.413E-01    0.298E-01
DAV:   6    -0.135889681516E+04   -0.25739E-03   -0.18425E-02  2600   0.251E-01    0.151E-01
DAV:   7    -0.135889676669E+04    0.48469E-04   -0.36105E-03  2440   0.131E-01    0.104E-01
DAV:   8    -0.135889680331E+04   -0.36626E-04   -0.17450E-03  2528   0.747E-02    0.574E-02
DAV:   9    -0.135889677034E+04    0.32972E-04   -0.41467E-04  2600   0.465E-02    0.322E-02
DAV:  10    -0.135889679042E+04   -0.20078E-04   -0.33367E-04  2520   0.308E-02    0.291E-02
DAV:  11    -0.135889678033E+04    0.10088E-04   -0.83532E-05  2496   0.200E-02    0.119E-02
DAV:  12    -0.135889678233E+04   -0.19958E-05   -0.40874E-05  2256   0.113E-02    0.833E-03
DAV:  13    -0.135889678153E+04    0.79969E-06   -0.43626E-06  1184   0.707E-03
   7 F= -.13588968E+04 E0= -.13588968E+04  d E =-.116686E+01
 BRION: g(F)=  0.917E+00 g(S)=  0.000E+00 retain N=  6 mean eig= 1.34
 eig:   3.002  1.685  1.685  0.321  0.667  0.667
 bond charge predicted
       N       E                     dE             d eps       ncg     rms          rms(c)
DAV:   1    -0.135926371473E+04   -0.36693E+00   -0.42336E+01  1376   0.918E+00    0.130E+00
DAV:   2    -0.135947662737E+04   -0.21291E+00   -0.22588E+00  2264   0.347E+00    0.693E-01
DAV:   3    -0.135948371433E+04   -0.70870E-02   -0.16820E-01  2624   0.735E-01    0.546E-01
DAV:   4    -0.135947758692E+04    0.61274E-02   -0.31160E-02  2520   0.380E-01    0.276E-01
DAV:   5    -0.135947675526E+04    0.83166E-03   -0.10819E-02  2496   0.213E-01    0.144E-01
DAV:   6    -0.135947686867E+04   -0.11341E-03   -0.53523E-03  2592   0.133E-01    0.752E-02
DAV:   7    -0.135947688236E+04   -0.13683E-04   -0.13355E-03  2304   0.759E-02    0.583E-02
DAV:   8    -0.135947688698E+04   -0.46272E-05   -0.42563E-04  2456   0.357E-02    0.295E-02
DAV:   9    -0.135947688557E+04    0.14150E-05   -0.10735E-04  2592   0.231E-02    0.172E-02
DAV:  10    -0.135947688889E+04   -0.33232E-05   -0.61205E-05  2544   0.150E-02    0.137E-02
DAV:  11    -0.135947688775E+04    0.11431E-05   -0.26486E-05  2360   0.104E-02    0.565E-03
DAV:  12    -0.135947688791E+04   -0.16407E-06   -0.67817E-06  1536   0.608E-03
   8 F= -.13594769E+04 E0= -.13594769E+04  d E =-.580106E+00
 BRION: g(F)=  0.568E+00 g(S)=  0.000E+00 retain N=  7 mean eig= 1.64
 eig:   2.931  3.258  3.258  0.598  0.598  0.133  0.693
 bond charge predicted
       N       E                     dE             d eps       ncg     rms          rms(c)
DAV:   1    -0.135980685149E+04   -0.32996E+00   -0.94334E+01  1384   0.139E+01    0.178E+00
DAV:   2    -0.136029123869E+04   -0.48439E+00   -0.51327E+00  2272   0.544E+00    0.909E-01
DAV:   3    -0.136031872857E+04   -0.27490E-01   -0.41038E-01  2608   0.113E+00    0.732E-01
DAV:   4    -0.136031126363E+04    0.74649E-02   -0.45654E-02  2600   0.506E-01    0.480E-01
DAV:   5    -0.136030699500E+04    0.42686E-02   -0.24794E-02  2320   0.309E-01    0.190E-01
DAV:   6    -0.136030776157E+04   -0.76657E-03   -0.12127E-02  2560   0.210E-01    0.166E-01
DAV:   7    -0.136030765534E+04    0.10623E-03   -0.50860E-03  2504   0.134E-01    0.107E-01
DAV:   8    -0.136030761671E+04    0.38622E-04   -0.17587E-03  2616   0.815E-02    0.560E-02
DAV:   9    -0.136030760584E+04    0.10874E-04   -0.30910E-04  2560   0.388E-02    0.400E-02
DAV:  10    -0.136030761602E+04   -0.10182E-04   -0.25059E-04  2360   0.283E-02    0.249E-02
DAV:  11    -0.136030761074E+04    0.52772E-05   -0.72546E-05  2496   0.202E-02    0.104E-02
DAV:  12    -0.136030761441E+04   -0.36637E-05   -0.48409E-05  2376   0.122E-02    0.122E-02
DAV:  13    -0.136030761221E+04    0.22027E-05   -0.11962E-05  1800   0.762E-03    0.525E-03
DAV:  14    -0.136030761224E+04   -0.38461E-07   -0.51107E-06  1392   0.557E-03
   9 F= -.13603076E+04 E0= -.13603076E+04  d E =-.830724E+00
 BRION: g(F)=  0.359E+00 g(S)=  0.000E+00 retain N=  8 mean eig= 2.24
 eig:   5.245  5.245  2.873  1.353  1.353  0.208  0.802  0.802
 bond charge predicted
       N       E                     dE             d eps       ncg     rms          rms(c)
DAV:   1    -0.136061280893E+04   -0.30520E+00   -0.60525E+01  1392   0.112E+01    0.135E+00
DAV:   2    -0.136093216200E+04   -0.31935E+00   -0.34039E+00  2304   0.446E+00    0.686E-01
DAV:   3    -0.136095099367E+04   -0.18832E-01   -0.27013E-01  2608   0.890E-01    0.558E-01
DAV:   4    -0.136094692367E+04    0.40700E-02   -0.27284E-02  2608   0.403E-01    0.385E-01
DAV:   5    -0.136094369841E+04    0.32253E-02   -0.13781E-02  2344   0.239E-01    0.155E-01
DAV:   6    -0.136094406407E+04   -0.36567E-03   -0.85316E-03  2416   0.179E-01    0.125E-01
DAV:   7    -0.136094406589E+04   -0.18138E-05   -0.39973E-03  2408   0.116E-01    0.892E-02
DAV:   8    -0.136094405404E+04    0.11844E-04   -0.13742E-03  2624   0.719E-02    0.507E-02
DAV:   9    -0.136094403709E+04    0.16954E-04   -0.30866E-04  2568   0.371E-02    0.349E-02
DAV:  10    -0.136094404186E+04   -0.47710E-05   -0.15946E-04  2584   0.232E-02    0.214E-02
DAV:  11    -0.136094404208E+04   -0.21499E-06   -0.71442E-05  2424   0.176E-02    0.128E-02
DAV:  12    -0.136094404146E+04    0.61525E-06   -0.25820E-05  2320   0.122E-02    0.111E-02
DAV:  13    -0.136094404058E+04    0.87547E-06   -0.19311E-05  1952   0.775E-03    0.549E-03
DAV:  14    -0.136094404027E+04    0.31230E-06   -0.31163E-06  1136   0.537E-03
  10 F= -.13609440E+04 E0= -.13609440E+04  d E =-.636428E+00
 BRION: g(F)=  0.277E+00 g(S)=  0.000E+00 retain N=  9 mean eig= 2.61
 eig:   6.550  6.550  2.874  2.412  2.412  0.147  0.810  0.810  0.940
 bond charge predicted
       N       E                     dE             d eps       ncg     rms          rms(c)
DAV:   1    -0.136116941231E+04   -0.22537E+00   -0.76869E+01  1392   0.125E+01    0.153E+00
DAV:   2    -0.136158206755E+04   -0.41266E+00   -0.43859E+00  2312   0.510E+00    0.765E-01
DAV:   3    -0.136160586892E+04   -0.23801E-01   -0.34228E-01  2592   0.970E-01    0.616E-01
DAV:   4    -0.136160061480E+04    0.52541E-02   -0.34865E-02  2608   0.448E-01    0.423E-01
DAV:   5    -0.136159660066E+04    0.40141E-02   -0.15698E-02  2400   0.255E-01    0.172E-01
DAV:   6    -0.136159693174E+04   -0.33108E-03   -0.10025E-02  2400   0.187E-01    0.120E-01
DAV:   7    -0.136159697891E+04   -0.47171E-04   -0.45250E-03  2432   0.125E-01    0.928E-02
DAV:   8    -0.136159697275E+04    0.61663E-05   -0.15196E-03  2616   0.743E-02    0.555E-02
DAV:   9    -0.136159695250E+04    0.20248E-04   -0.38076E-04  2568   0.402E-02    0.371E-02
DAV:  10    -0.136159695914E+04   -0.66463E-05   -0.19126E-04  2560   0.256E-02    0.235E-02
DAV:  11    -0.136159695898E+04    0.16417E-06   -0.79823E-05  2440   0.185E-02    0.131E-02
DAV:  12    -0.136159695831E+04    0.67179E-06   -0.31156E-05  2304   0.130E-02    0.106E-02
DAV:  13    -0.136159695797E+04    0.33350E-06   -0.22699E-05  2144   0.842E-03    0.584E-03
DAV:  14    -0.136159695779E+04    0.18845E-06   -0.47151E-06  1352   0.524E-03
  11 F= -.13615970E+04 E0= -.13615970E+04  d E =-.652918E+00
 BRION: g(F)=  0.215E+00 g(S)=  0.000E+00 retain N= 10 mean eig= 3.26
 eig:   7.347  7.347  5.530  5.530  2.775  0.922  0.922  0.103  1.056  1.056
 bond charge predicted
       N       E                     dE             d eps       ncg     rms          rms(c)
DAV:   1    -0.136175116986E+04   -0.15421E+00   -0.77096E+01  1392   0.126E+01    0.151E+00
DAV:   2    -0.136215962980E+04   -0.40846E+00   -0.43412E+00  2304   0.505E+00    0.754E-01
DAV:   3    -0.136218374435E+04   -0.24115E-01   -0.34253E-01  2584   0.964E-01    0.604E-01
DAV:   4    -0.136217870900E+04    0.50353E-02   -0.34076E-02  2600   0.440E-01    0.413E-01
DAV:   5    -0.136217500202E+04    0.37070E-02   -0.15218E-02  2384   0.243E-01    0.168E-01
DAV:   6    -0.136217530033E+04   -0.29832E-03   -0.87110E-03  2424   0.171E-01    0.115E-01
DAV:   7    -0.136217533601E+04   -0.35681E-04   -0.40768E-03  2440   0.118E-01    0.841E-02
DAV:   8    -0.136217534865E+04   -0.12638E-04   -0.14333E-03  2616   0.731E-02    0.574E-02
DAV:   9    -0.136217532551E+04    0.23140E-04   -0.34042E-04  2552   0.388E-02    0.388E-02
DAV:  10    -0.136217532766E+04   -0.21469E-05   -0.17936E-04  2576   0.239E-02    0.211E-02
DAV:  11    -0.136217532919E+04   -0.15340E-05   -0.58258E-05  2480   0.159E-02    0.123E-02
DAV:  12    -0.136217532830E+04    0.89120E-06   -0.24259E-05  2288   0.112E-02    0.867E-03
DAV:  13    -0.136217532836E+04   -0.61351E-07   -0.17481E-05  2072   0.742E-03    0.504E-03
DAV:  14    -0.136217532811E+04    0.25793E-06   -0.18423E-06  1000   0.466E-03
  12 F= -.13621753E+04 E0= -.13621753E+04  d E =-.578370E+00
 BRION: g(F)=  0.179E+00 g(S)=  0.000E+00 retain N=  7 mean eig= 3.51
 eig:   7.358  7.358  2.542  2.542  1.756  1.756  1.234
 bond charge predicted
       N       E                     dE             d eps       ncg     rms          rms(c)
DAV:   1    -0.136229893754E+04   -0.12361E+00   -0.49589E+01  1384   0.100E+01    0.118E+00
DAV:   2    -0.136255442813E+04   -0.25549E+00   -0.26969E+00  2296   0.398E+00    0.598E-01
DAV:   3    -0.136256887038E+04   -0.14442E-01   -0.20912E-01  2600   0.756E-01    0.482E-01
DAV:   4    -0.136256546273E+04    0.34076E-02   -0.20199E-02  2600   0.338E-01    0.334E-01
DAV:   5    -0.136256259235E+04    0.28704E-02   -0.92901E-03  2352   0.196E-01    0.137E-01
DAV:   6    -0.136256272896E+04   -0.13661E-03   -0.66808E-03  2408   0.152E-01    0.953E-02
DAV:   7    -0.136256275595E+04   -0.26993E-04   -0.29690E-03  2400   0.100E-01    0.746E-02
DAV:   8    -0.136256274493E+04    0.11023E-04   -0.90363E-04  2600   0.582E-02    0.451E-02
DAV:   9    -0.136256272905E+04    0.15875E-04   -0.26407E-04  2536   0.325E-02    0.292E-02
DAV:  10    -0.136256273360E+04   -0.45426E-05   -0.12591E-04  2528   0.207E-02    0.193E-02
DAV:  11    -0.136256273303E+04    0.56863E-06   -0.49937E-05  2344   0.148E-02    0.106E-02
DAV:  12    -0.136256273293E+04    0.95402E-07   -0.23680E-05  2280   0.106E-02    0.954E-03
DAV:  13    -0.136256273219E+04    0.74411E-06   -0.13200E-05  1816   0.696E-03    0.495E-03
DAV:  14    -0.136256273213E+04    0.56942E-07   -0.55603E-06  1448   0.532E-03
  13 F= -.13625627E+04 E0= -.13625627E+04  d E =-.387404E+00
 BRION: g(F)=  0.155E+00 g(S)=  0.000E+00 retain N=  3 mean eig= 4.87
 eig:   6.313  6.313  1.988
 bond charge predicted
       N       E                     dE             d eps       ncg     rms          rms(c)
DAV:   1    -0.136269040182E+04   -0.12767E+00   -0.40234E+01  1384   0.906E+00    0.106E+00
DAV:   2    -0.136289640417E+04   -0.20600E+00   -0.21826E+00  2296   0.359E+00    0.534E-01
DAV:   3    -0.136290880713E+04   -0.12403E-01   -0.17408E-01  2592   0.691E-01    0.427E-01
DAV:   4    -0.136290643563E+04    0.23715E-02   -0.16388E-02  2600   0.304E-01    0.298E-01
DAV:   5    -0.136290444568E+04    0.19899E-02   -0.77263E-03  2360   0.173E-01    0.125E-01
DAV:   6    -0.136290454896E+04   -0.10329E-03   -0.46538E-03  2416   0.126E-01    0.864E-02
DAV:   7    -0.136290456138E+04   -0.12413E-04   -0.22451E-03  2440   0.877E-02    0.631E-02
DAV:   8    -0.136290456496E+04   -0.35800E-05   -0.79037E-04  2600   0.544E-02    0.440E-02
DAV:   9    -0.136290454991E+04    0.15043E-04   -0.19320E-04  2536   0.286E-02    0.291E-02
DAV:  10    -0.136290455017E+04   -0.26106E-06   -0.93517E-05  2568   0.173E-02    0.156E-02
DAV:  11    -0.136290455152E+04   -0.13414E-05   -0.28519E-05  2352   0.113E-02    0.101E-02
DAV:  12    -0.136290455054E+04    0.97624E-06   -0.14152E-05  2032   0.876E-03    0.697E-03
DAV:  13    -0.136290455055E+04   -0.70286E-08   -0.10514E-05  1752   0.608E-03    0.402E-03
DAV:  14    -0.136290455037E+04    0.17745E-06   -0.14156E-06   944   0.432E-03
  14 F= -.13629046E+04 E0= -.13629046E+04  d E =-.341818E+00
 BRION: g(F)=  0.139E+00 g(S)=  0.000E+00 retain N=  3 mean eig= 5.07
 eig:   6.752  6.752  1.705
 bond charge predicted
       N       E                     dE             d eps       ncg     rms          rms(c)
DAV:   1    -0.136302127540E+04   -0.11672E+00   -0.22007E+01  1392   0.668E+00    0.757E-01
DAV:   2    -0.136313023426E+04   -0.10896E+00   -0.11469E+00  2296   0.261E+00    0.385E-01
DAV:   3    -0.136313651054E+04   -0.62763E-02   -0.88937E-02  2592   0.491E-01    0.306E-01
DAV:   4    -0.136313518323E+04    0.13273E-02   -0.80295E-03  2584   0.212E-01    0.215E-01
DAV:   5    -0.136313398196E+04    0.12013E-02   -0.41009E-03  2312   0.130E-01    0.854E-02
DAV:   6    -0.136313405927E+04   -0.77315E-04   -0.26982E-03  2376   0.960E-02    0.637E-02
DAV:   7    -0.136313407015E+04   -0.10875E-04   -0.11058E-03  2424   0.610E-02    0.465E-02
DAV:   8    -0.136313406269E+04    0.74554E-05   -0.36681E-04  2552   0.377E-02    0.265E-02
DAV:   9    -0.136313405852E+04    0.41710E-05   -0.93587E-05  2432   0.199E-02    0.182E-02
DAV:  10    -0.136313405936E+04   -0.83157E-06   -0.43918E-05  2472   0.124E-02    0.110E-02
DAV:  11    -0.136313405897E+04    0.38589E-06   -0.15645E-05  2008   0.912E-03    0.556E-03
DAV:  12    -0.136313405921E+04   -0.23734E-06   -0.78322E-06  1744   0.635E-03
  15 F= -.13631341E+04 E0= -.13631341E+04  d E =-.229509E+00
 BRION: g(F)=  0.127E+00 g(S)=  0.000E+00 retain N=  3 mean eig= 3.47
 eig:   4.559  4.559  1.297
 bond charge predicted
       N       E                     dE             d eps       ncg     rms          rms(c)
DAV:   1    -0.136321844064E+04   -0.84382E-01   -0.43227E+01  1376   0.934E+00    0.107E+00
DAV:   2    -0.136343506544E+04   -0.21662E+00   -0.22790E+00  2304   0.367E+00    0.544E-01
DAV:   3    -0.136344694427E+04   -0.11879E-01   -0.17130E-01  2592   0.696E-01    0.430E-01
DAV:   4    -0.136344425780E+04    0.26865E-02   -0.16566E-02  2568   0.301E-01    0.297E-01
DAV:   5    -0.136344210616E+04    0.21516E-02   -0.77535E-03  2352   0.178E-01    0.123E-01
DAV:   6    -0.136344223291E+04   -0.12675E-03   -0.49623E-03  2392   0.129E-01    0.844E-02
DAV:   7    -0.136344225518E+04   -0.22270E-04   -0.21145E-03  2432   0.860E-02    0.642E-02
DAV:   8    -0.136344224740E+04    0.77827E-05   -0.73005E-04  2600   0.521E-02    0.395E-02
DAV:   9    -0.136344223725E+04    0.10148E-04   -0.19665E-04  2520   0.283E-02    0.259E-02
DAV:  10    -0.136344223954E+04   -0.22924E-05   -0.94798E-05  2544   0.180E-02    0.165E-02
DAV:  11    -0.136344223855E+04    0.99641E-06   -0.35617E-05  2280   0.127E-02    0.835E-03
DAV:  12    -0.136344223862E+04   -0.70824E-07   -0.14490E-05  1952   0.888E-03    0.724E-03
DAV:  13    -0.136344223827E+04    0.34361E-06   -0.79015E-06  1584   0.581E-03
  16 F= -.13634422E+04 E0= -.13634422E+04  d E =-.308179E+00
 BRION: g(F)=  0.112E+00 g(S)=  0.000E+00 retain N=  3 mean eig= 4.80
 eig:   6.491  6.491  1.416
 bond charge predicted
       N       E                     dE             d eps       ncg     rms          rms(c)
DAV:   1    -0.136342860574E+04    0.13633E-01   -0.72260E+01  1376   0.121E+01    0.135E+00
DAV:   2    -0.136378784177E+04   -0.35924E+00   -0.37745E+00  2296   0.473E+00    0.693E-01
DAV:   3    -0.136380852470E+04   -0.20683E-01   -0.28993E-01  2584   0.890E-01    0.554E-01
DAV:   4    -0.136380491446E+04    0.36102E-02   -0.26632E-02  2592   0.380E-01    0.401E-01
DAV:   5    -0.136380099832E+04    0.39161E-02   -0.11602E-02  2368   0.220E-01    0.185E-01
DAV:   6    -0.136380080956E+04    0.18876E-03   -0.91277E-03  2240   0.178E-01    0.106E-01
DAV:   7    -0.136380097761E+04   -0.16805E-03   -0.49516E-03  2456   0.125E-01    0.990E-02
DAV:   8    -0.136380093684E+04    0.40774E-04   -0.12766E-03  2568   0.728E-02    0.718E-02
DAV:   9    -0.136380088149E+04    0.55349E-04   -0.56004E-04  2464   0.435E-02    0.361E-02
DAV:  10    -0.136380089267E+04   -0.11179E-04   -0.21011E-04  2488   0.266E-02    0.231E-02
DAV:  11    -0.136380089471E+04   -0.20374E-05   -0.45218E-05  2352   0.151E-02    0.170E-02
DAV:  12    -0.136380089114E+04    0.35698E-05   -0.53840E-05  2104   0.142E-02    0.125E-02
DAV:  13    -0.136380089093E+04    0.21137E-06   -0.25087E-05  2160   0.967E-03    0.897E-03
DAV:  14    -0.136380089019E+04    0.73321E-06   -0.80080E-06  1624   0.579E-03
  17 F= -.13638009E+04 E0= -.13638009E+04  d E =-.358652E+00
 BRION: g(F)=  0.943E-01 g(S)=  0.000E+00 retain N=  3 mean eig= 5.46
 eig:   1.515  7.426  7.426
 bond charge predicted
       N       E                     dE             d eps       ncg     rms          rms(c)
DAV:   1    -0.136377603605E+04    0.24855E-01   -0.61214E+01  1376   0.111E+01    0.124E+00
DAV:   2    -0.136407817536E+04   -0.30214E+00   -0.31674E+00  2304   0.433E+00    0.641E-01
DAV:   3    -0.136409473235E+04   -0.16557E-01   -0.23923E-01  2592   0.808E-01    0.509E-01
DAV:   4    -0.136409123953E+04    0.34928E-02   -0.22143E-02  2576   0.345E-01    0.363E-01
DAV:   5    -0.136408778234E+04    0.34572E-02   -0.96172E-03  2336   0.205E-01    0.164E-01
DAV:   6    -0.136408760635E+04    0.17600E-03   -0.78107E-03  2248   0.168E-01    0.919E-02
DAV:   7    -0.136408777919E+04   -0.17285E-03   -0.40570E-03  2448   0.113E-01    0.881E-02
DAV:   8    -0.136408774144E+04    0.37751E-04   -0.93908E-04  2584   0.632E-02    0.600E-02
DAV:   9    -0.136408770480E+04    0.36638E-04   -0.48401E-04  2496   0.398E-02    0.293E-02
DAV:  10    -0.136408771654E+04   -0.11735E-04   -0.16835E-04  2488   0.251E-02    0.228E-02
DAV:  11    -0.136408771444E+04    0.21034E-05   -0.45131E-05  2416   0.148E-02    0.141E-02
DAV:  12    -0.136408771295E+04    0.14820E-05   -0.46742E-05  2032   0.130E-02    0.111E-02
DAV:  13    -0.136408771266E+04    0.28983E-06   -0.19538E-05  1968   0.877E-03    0.804E-03
DAV:  14    -0.136408771200E+04    0.66566E-06   -0.71586E-06  1568   0.572E-03
  18 F= -.13640877E+04 E0= -.13640877E+04  d E =-.286822E+00
 BRION: g(F)=  0.790E-01 g(S)=  0.000E+00 retain N=  2 mean eig= 5.17
 eig:   5.169  5.169
 bond charge predicted
       N       E                     dE             d eps       ncg     rms          rms(c)
DAV:   1    -0.136409115480E+04   -0.34421E-02   -0.38918E+01  1384   0.883E+00    0.992E-01
DAV:   2    -0.136428272379E+04   -0.19157E+00   -0.20111E+00  2296   0.344E+00    0.512E-01
DAV:   3    -0.136429338249E+04   -0.10659E-01   -0.15338E-01  2584   0.646E-01    0.406E-01
DAV:   4    -0.136429120793E+04    0.21746E-02   -0.14421E-02  2568   0.278E-01    0.289E-01
DAV:   5    -0.136428913402E+04    0.20739E-02   -0.63177E-03  2376   0.162E-01    0.131E-01
DAV:   6    -0.136428903741E+04    0.96611E-04   -0.47015E-03  2240   0.130E-01    0.747E-02
DAV:   7    -0.136428913025E+04   -0.92841E-04   -0.24758E-03  2456   0.888E-02    0.708E-02
DAV:   8    -0.136428910827E+04    0.21981E-04   -0.65718E-04  2576   0.514E-02    0.493E-02
DAV:   9    -0.136428908462E+04    0.23655E-04   -0.28905E-04  2512   0.311E-02    0.253E-02
DAV:  10    -0.136428908961E+04   -0.49954E-05   -0.96068E-05  2528   0.190E-02    0.172E-02
DAV:  11    -0.136428908956E+04    0.51747E-07   -0.20971E-05  2232   0.104E-02    0.114E-02
DAV:  12    -0.136428908807E+04    0.14935E-05   -0.27801E-05  1888   0.102E-02    0.785E-03
DAV:  13    -0.136428908817E+04   -0.99375E-07   -0.11958E-05  1792   0.713E-03    0.592E-03
DAV:  14    -0.136428908777E+04    0.39818E-06   -0.36104E-06  1248   0.472E-03
  19 F= -.13642891E+04 E0= -.13642891E+04  d E =-.201376E+00
 BRION: g(F)=  0.646E-01 g(S)=  0.000E+00 retain N=  2 mean eig= 4.23
 eig:   4.232  4.232
 bond charge predicted
       N       E                     dE             d eps       ncg     rms          rms(c)
DAV:   1    -0.136432111245E+04   -0.32024E-01   -0.19691E+01  1368   0.632E+00    0.711E-01
DAV:   2    -0.136441827449E+04   -0.97162E-01   -0.10242E+00  2288   0.245E+00    0.365E-01
DAV:   3    -0.136442393160E+04   -0.56571E-02   -0.80561E-02  2584   0.475E-01    0.292E-01
DAV:   4    -0.136442281865E+04    0.11129E-02   -0.73617E-03  2584   0.203E-01    0.210E-01
DAV:   5    -0.136442165580E+04    0.11629E-02   -0.36626E-03  2360   0.127E-01    0.913E-02
DAV:   6    -0.136442165344E+04    0.23618E-05   -0.28477E-03  2336   0.103E-01    0.641E-02
DAV:   7    -0.136442168081E+04   -0.27374E-04   -0.13182E-03  2416   0.675E-02    0.525E-02
DAV:   8    -0.136442167004E+04    0.10775E-04   -0.41785E-04  2568   0.393E-02    0.313E-02
DAV:   9    -0.136442166075E+04    0.92898E-05   -0.13029E-04  2464   0.222E-02    0.183E-02
DAV:  10    -0.136442166282E+04   -0.20784E-05   -0.52760E-05  2488   0.138E-02    0.127E-02
DAV:  11    -0.136442166234E+04    0.48103E-06   -0.17762E-05  1992   0.952E-03    0.775E-03
DAV:  12    -0.136442166215E+04    0.19545E-06   -0.10831E-05  1808   0.737E-03    0.692E-03
DAV:  13    -0.136442166166E+04    0.49164E-06   -0.51996E-06  1408   0.524E-03
  20 F= -.13644217E+04 E0= -.13644217E+04  d E =-.132574E+00
 BRION: g(F)=  0.559E-01 g(S)=  0.000E+00 retain N=  3 mean eig= 5.50
 eig:   7.424  7.424  1.640
