 running on  160 total cores
 distrk:  each k-point on  160 cores,    1 groups
 distr:  one band on   20 cores,    8 groups
 using from now: INCAR     
 vasp.5.4.4.18Apr17-6-g9f103f2a35 (build May 01 2020 14:22:42) gamma-only       
  
 POSCAR found type information on POSCAR  O  La Zr Li Al
 POSCAR found :  5 types and     188 ions
 scaLAPACK will be used
 LDA part: xc-table for Pade appr. of Perdew
 POSCAR, INCAR and KPOINTS ok, starting setup
 FFT: planning ...
 WAVECAR not read
 WARNING: random wavefunctions but no delay for mixing, default for NELMDL
 entering main loop
       N       E                     dE             d eps       ncg     rms          rms(c)
DAV:   1     0.252803428449E+05    0.25280E+05   -0.41954E+05  1584   0.253E+03
DAV:   2     0.935107848740E+04   -0.15929E+05   -0.14725E+05  1432   0.706E+02
DAV:   3     0.263337064949E+04   -0.67177E+04   -0.61243E+04  1528   0.355E+02
DAV:   4    -0.384356992818E+03   -0.30177E+04   -0.28193E+04  2048   0.222E+02
DAV:   5    -0.140613418574E+04   -0.10218E+04   -0.98588E+03  2536   0.139E+02    0.117E+02
DAV:   6    -0.129253610021E+04    0.11360E+03   -0.14595E+03  2432   0.661E+01    0.502E+01
DAV:   7    -0.131480368036E+04   -0.22268E+02   -0.39376E+02  2560   0.346E+01    0.261E+01
DAV:   8    -0.131979794678E+04   -0.49943E+01   -0.22412E+02  2544   0.262E+01    0.224E+01
DAV:   9    -0.131775953894E+04    0.20384E+01   -0.31842E+01  2552   0.131E+01    0.109E+01
DAV:  10    -0.131699456824E+04    0.76497E+00   -0.21003E+01  2544   0.725E+00    0.676E+00
DAV:  11    -0.131742948929E+04   -0.43492E+00   -0.50489E+00  2568   0.433E+00    0.607E+00
DAV:  12    -0.131746517504E+04   -0.35686E-01   -0.15425E+00  2600   0.220E+00    0.589E+00
DAV:  13    -0.131747092491E+04   -0.57499E-02   -0.11623E+00  2496   0.213E+00    0.522E+00
DAV:  14    -0.131755777009E+04   -0.86845E-01   -0.33065E+00  2416   0.172E+00    0.395E+00
DAV:  15    -0.131743193114E+04    0.12584E+00   -0.60901E-01  2344   0.133E+00    0.222E+00
DAV:  16    -0.131740063717E+04    0.31294E-01   -0.26181E-01  2448   0.804E-01    0.155E+00
DAV:  17    -0.131739343814E+04    0.71990E-02   -0.40612E-02  2496   0.390E-01    0.132E+00
DAV:  18    -0.131738086816E+04    0.12570E-01   -0.21635E-02  2560   0.249E-01    0.912E-01
DAV:  19    -0.131737648777E+04    0.43804E-02   -0.77132E-03  2520   0.168E-01    0.711E-01
DAV:  20    -0.131737136162E+04    0.51262E-02   -0.83900E-03  2400   0.131E-01    0.364E-01
DAV:  21    -0.131737062380E+04    0.73782E-03   -0.33165E-03  2464   0.872E-02    0.217E-01
DAV:  22    -0.131737035062E+04    0.27317E-03   -0.10436E-03  2568   0.535E-02    0.116E-01
DAV:  23    -0.131737030637E+04    0.44248E-04   -0.57550E-04  2592   0.404E-02    0.704E-02
DAV:  24    -0.131737029691E+04    0.94644E-05   -0.16140E-04  2568   0.234E-02    0.501E-02
DAV:  25    -0.131737028103E+04    0.15881E-04   -0.16918E-04  2456   0.166E-02    0.128E-02
DAV:  26    -0.131737028551E+04   -0.44755E-05   -0.32400E-05  2184   0.100E-02    0.854E-03
DAV:  27    -0.131737028439E+04    0.11190E-05   -0.76607E-06  1160   0.566E-03    0.389E-03
DAV:  28    -0.131737028640E+04   -0.20166E-05   -0.42775E-06  1152   0.473E-03    0.283E-03
DAV:  29    -0.131737028645E+04   -0.46712E-07   -0.14314E-06   968   0.412E-03
   1 F= -.13173703E+04 E0= -.13173193E+04  d E =-.131737E+04
 BRION: g(F)=  0.755E+02 g(S)=  0.000E+00
 bond charge predicted
       N       E                     dE             d eps       ncg     rms          rms(c)
DAV:   1    -0.125563093801E+04    0.61739E+02   -0.10068E+04  1768   0.154E+02    0.344E+01
DAV:   2    -0.133930212504E+04   -0.83671E+02   -0.96611E+02  2568   0.693E+01    0.183E+01
DAV:   3    -0.133631766401E+04    0.29845E+01   -0.57509E+01  2616   0.189E+01    0.119E+01
DAV:   4    -0.133309897358E+04    0.32187E+01   -0.21677E+01  2488   0.937E+00    0.547E+00
DAV:   5    -0.133285611025E+04    0.24286E+00   -0.61787E+00  2552   0.549E+00    0.382E+00
DAV:   6    -0.133271451033E+04    0.14160E+00   -0.37687E+00  2592   0.346E+00    0.215E+00
DAV:   7    -0.133266258724E+04    0.51923E-01   -0.62247E-01  2536   0.211E+00    0.127E+00
DAV:   8    -0.133267049195E+04   -0.79047E-02   -0.60071E-01  2552   0.133E+00    0.930E-01
DAV:   9    -0.133266908246E+04    0.14095E-02   -0.96570E-02  2560   0.674E-01    0.701E-01
DAV:  10    -0.133266316645E+04    0.59160E-02   -0.68976E-02  2584   0.465E-01    0.248E-01
DAV:  11    -0.133266456938E+04   -0.14029E-02   -0.18450E-02  2536   0.280E-01    0.183E-01
DAV:  12    -0.133266468240E+04   -0.11302E-03   -0.34606E-03  2624   0.134E-01    0.129E-01
DAV:  13    -0.133266449720E+04    0.18520E-03   -0.33857E-03  2496   0.106E-01    0.339E-02
DAV:  14    -0.133266454269E+04   -0.45489E-04   -0.69879E-04  2384   0.631E-02    0.203E-02
DAV:  15    -0.133266455580E+04   -0.13112E-04   -0.18540E-04  2528   0.256E-02    0.111E-02
DAV:  16    -0.133266455843E+04   -0.26263E-05   -0.36310E-05  2560   0.128E-02    0.646E-03
DAV:  17    -0.133266455971E+04   -0.12765E-05   -0.98265E-06  1688   0.720E-03    0.361E-03
DAV:  18    -0.133266456018E+04   -0.47561E-06   -0.30334E-06  1144   0.505E-03
   2 F= -.13326646E+04 E0= -.13326646E+04  d E =-.152943E+02
 BRION: g(F)=  0.250E+03 g(S)=  0.000E+00 retain N=  1 mean eig= 0.31
 eig:   0.305
 bond charge predicted
       N       E                     dE             d eps       ncg     rms          rms(c)
DAV:   1    -0.131635433958E+04    0.16310E+02   -0.27408E+03  1344   0.629E+01    0.239E+01
DAV:   2    -0.135246551158E+04   -0.36111E+02   -0.48684E+02  2544   0.334E+01    0.207E+01
DAV:   3    -0.134816429087E+04    0.43012E+01   -0.52386E+01  2568   0.147E+01    0.155E+01
DAV:   4    -0.134439812323E+04    0.37662E+01   -0.42578E+01  2192   0.742E+00    0.605E+00
DAV:   5    -0.134538801833E+04   -0.98990E+00   -0.10477E+01  2464   0.468E+00    0.803E+00
DAV:   6    -0.134419591246E+04    0.11921E+01   -0.88394E+00  2512   0.349E+00    0.141E+00
DAV:   7    -0.134433110104E+04   -0.13519E+00   -0.16732E+00  2552   0.256E+00    0.171E+00
DAV:   8    -0.134427912057E+04    0.51980E-01   -0.25899E-01  2536   0.106E+00    0.100E+00
DAV:   9    -0.134427239753E+04    0.67230E-02   -0.13882E-01  2544   0.620E-01    0.352E-01
DAV:  10    -0.134427249843E+04   -0.10090E-03   -0.21400E-02  2480   0.300E-01    0.236E-01
DAV:  11    -0.134427215544E+04    0.34299E-03   -0.12024E-02  2528   0.180E-01    0.121E-01
DAV:  12    -0.134427235240E+04   -0.19696E-03   -0.49203E-03  2560   0.115E-01    0.974E-02
DAV:  13    -0.134427229939E+04    0.53009E-04   -0.69137E-04  2616   0.663E-02    0.721E-02
DAV:  14    -0.134427225242E+04    0.46965E-04   -0.87399E-04  2376   0.463E-02    0.334E-02
DAV:  15    -0.134427226045E+04   -0.80258E-05   -0.23807E-04  2536   0.312E-02    0.206E-02
DAV:  16    -0.134427225600E+04    0.44539E-05   -0.73340E-05  2568   0.157E-02    0.751E-03
DAV:  17    -0.134427225630E+04   -0.30377E-06   -0.15106E-05  2096   0.885E-03    0.338E-03
DAV:  18    -0.134427225641E+04   -0.11374E-06   -0.25842E-06  1112   0.465E-03
   3 F= -.13442723E+04 E0= -.13442723E+04  d E =-.116077E+02
 BRION: g(F)=  0.271E+02 g(S)=  0.000E+00 retain N=  2 mean eig= 2.43
 eig:   0.179  4.682
 bond charge predicted
       N       E                     dE             d eps       ncg     rms          rms(c)
DAV:   1    -0.134185121169E+04    0.24210E+01   -0.10304E+03  1384   0.408E+01    0.945E+00
DAV:   2    -0.134923872646E+04   -0.73875E+01   -0.89946E+01  2408   0.190E+01    0.581E+00
DAV:   3    -0.134913401650E+04    0.10471E+00   -0.69596E+00  2544   0.628E+00    0.494E+00
DAV:   4    -0.134876301239E+04    0.37100E+00   -0.26490E+00  2352   0.272E+00    0.229E+00
DAV:   5    -0.134876043211E+04    0.25803E-02   -0.12306E+00  2408   0.197E+00    0.240E+00
DAV:   6    -0.134866790188E+04    0.92530E-01   -0.59030E-01  2504   0.164E+00    0.124E+00
DAV:   7    -0.134867291122E+04   -0.50093E-02   -0.45582E-01  2480   0.110E+00    0.844E-01
DAV:   8    -0.134866759545E+04    0.53158E-02   -0.68800E-02  2560   0.533E-01    0.485E-01
DAV:   9    -0.134866500872E+04    0.25867E-02   -0.25204E-02  2528   0.279E-01    0.243E-01
DAV:  10    -0.134866557120E+04   -0.56248E-03   -0.15031E-02  2504   0.198E-01    0.158E-01
DAV:  11    -0.134866533002E+04    0.24118E-03   -0.15176E-03  2504   0.104E-01    0.920E-02
DAV:  12    -0.134866531518E+04    0.14845E-04   -0.17678E-03  2344   0.679E-02    0.379E-02
DAV:  13    -0.134866533054E+04   -0.15358E-04   -0.30040E-04  2488   0.378E-02    0.185E-02
DAV:  14    -0.134866533526E+04   -0.47259E-05   -0.65033E-05  2608   0.148E-02    0.116E-02
DAV:  15    -0.134866533609E+04   -0.82886E-06   -0.14434E-05  2072   0.883E-03    0.602E-03
DAV:  16    -0.134866533638E+04   -0.28778E-06   -0.46942E-06  1312   0.515E-03
   4 F= -.13486653E+04 E0= -.13486653E+04  d E =-.439308E+01
 BRION: g(F)=  0.894E+01 g(S)=  0.000E+00 retain N=  2 mean eig= 0.32
 eig:   0.317  0.317
 bond charge predicted
       N       E                     dE             d eps       ncg     rms          rms(c)
DAV:   1    -0.135032101553E+04   -0.16557E+01   -0.30133E+02  1376   0.239E+01    0.418E+00
DAV:   2    -0.135184905729E+04   -0.15280E+01   -0.16835E+01  2304   0.904E+00    0.227E+00
DAV:   3    -0.135185861078E+04   -0.95535E-02   -0.11720E+00  2624   0.210E+00    0.183E+00
DAV:   4    -0.135179609349E+04    0.62517E-01   -0.32790E-01  2528   0.119E+00    0.845E-01
DAV:   5    -0.135178881149E+04    0.72820E-02   -0.11904E-01  2424   0.755E-01    0.587E-01
DAV:   6    -0.135178827871E+04    0.53278E-03   -0.94838E-02  2544   0.546E-01    0.326E-01
DAV:   7    -0.135178826915E+04    0.95561E-05   -0.18607E-02  2488   0.271E-01    0.272E-01
DAV:   8    -0.135178778048E+04    0.48867E-03   -0.67874E-03  2448   0.139E-01    0.126E-01
DAV:   9    -0.135178774615E+04    0.34331E-04   -0.28647E-03  2584   0.933E-02    0.796E-02
DAV:  10    -0.135178777986E+04   -0.33713E-04   -0.92164E-04  2248   0.601E-02    0.770E-02
DAV:  11    -0.135178772058E+04    0.59281E-04   -0.54496E-04  2344   0.424E-02    0.339E-02
DAV:  12    -0.135178772618E+04   -0.55937E-05   -0.33706E-04  2448   0.313E-02    0.247E-02
DAV:  13    -0.135178772583E+04    0.34666E-06   -0.76597E-05  2384   0.181E-02    0.180E-02
DAV:  14    -0.135178772328E+04    0.25543E-05   -0.43223E-05  2184   0.106E-02    0.683E-03
DAV:  15    -0.135178772330E+04   -0.20649E-07   -0.83593E-06  1488   0.700E-03
   5 F= -.13517877E+04 E0= -.13517877E+04  d E =-.312239E+01
 BRION: g(F)=  0.413E+01 g(S)=  0.000E+00 retain N=  3 mean eig= 0.20
 eig:   0.179  0.179  0.236
 bond charge predicted
       N       E                     dE             d eps       ncg     rms          rms(c)
DAV:   1    -0.135257213385E+04   -0.78441E+00   -0.14595E+02  1376   0.161E+01    0.292E+00
DAV:   2    -0.135325015071E+04   -0.67802E+00   -0.73316E+00  2272   0.605E+00    0.142E+00
DAV:   3    -0.135325158240E+04   -0.14317E-02   -0.47386E-01  2608   0.128E+00    0.113E+00
DAV:   4    -0.135322337055E+04    0.28212E-01   -0.14428E-01  2480   0.761E-01    0.496E-01
DAV:   5    -0.135322224330E+04    0.11272E-02   -0.48770E-02  2448   0.438E-01    0.360E-01
DAV:   6    -0.135322190380E+04    0.33950E-03   -0.36159E-02  2528   0.327E-01    0.178E-01
DAV:   7    -0.135322178850E+04    0.11530E-03   -0.62788E-03  2480   0.164E-01    0.143E-01
DAV:   8    -0.135322168784E+04    0.10066E-03   -0.28156E-03  2456   0.850E-02    0.537E-02
DAV:   9    -0.135322171583E+04   -0.27987E-04   -0.87902E-04  2616   0.542E-02    0.448E-02
DAV:  10    -0.135322170408E+04    0.11749E-04   -0.24677E-04  2488   0.309E-02    0.290E-02
DAV:  11    -0.135322170418E+04   -0.94908E-07   -0.16381E-04  2536   0.218E-02    0.131E-02
DAV:  12    -0.135322170585E+04   -0.16737E-05   -0.35823E-05  2408   0.114E-02    0.940E-03
DAV:  13    -0.135322170496E+04    0.89570E-06   -0.70426E-06  1400   0.689E-03
   6 F= -.13532217E+04 E0= -.13532217E+04  d E =-.143398E+01
 BRION: g(F)=  0.298E+01 g(S)=  0.000E+00 retain N=  4 mean eig= 0.99
 eig:   2.807  0.422  0.422  0.308
 bond charge predicted
       N       E                     dE             d eps       ncg     rms          rms(c)
DAV:   1    -0.135310100850E+04    0.12070E+00   -0.47810E+02  1344   0.304E+01    0.412E+00
DAV:   2    -0.135558190983E+04   -0.24809E+01   -0.25825E+01  2312   0.113E+01    0.225E+00
DAV:   3    -0.135564276548E+04   -0.60856E-01   -0.16321E+00  2592   0.239E+00    0.191E+00
DAV:   4    -0.135558611893E+04    0.56647E-01   -0.27476E-01  2536   0.108E+00    0.116E+00
DAV:   5    -0.135555444035E+04    0.31679E-01   -0.16121E-01  2376   0.739E-01    0.493E-01
DAV:   6    -0.135555678053E+04   -0.23402E-02   -0.69331E-02  2520   0.491E-01    0.424E-01
DAV:   7    -0.135555545326E+04    0.13273E-02   -0.23251E-02  2536   0.282E-01    0.234E-01
DAV:   8    -0.135555536000E+04    0.93253E-04   -0.90919E-03  2584   0.170E-01    0.106E-01
DAV:   9    -0.135555534627E+04    0.13729E-04   -0.11275E-03  2600   0.775E-02    0.767E-02
DAV:  10    -0.135555536849E+04   -0.22221E-04   -0.80481E-04  2384   0.488E-02    0.411E-02
DAV:  11    -0.135555536164E+04    0.68511E-05   -0.20454E-04  2552   0.325E-02    0.217E-02
DAV:  12    -0.135555536529E+04   -0.36451E-05   -0.13870E-04  2544   0.198E-02    0.148E-02
DAV:  13    -0.135555536363E+04    0.16569E-05   -0.30788E-05  2264   0.119E-02    0.698E-03
DAV:  14    -0.135555536387E+04   -0.23491E-06   -0.75694E-06  1536   0.642E-03
   7 F= -.13555554E+04 E0= -.13555554E+04  d E =-.233366E+01
 BRION: g(F)=  0.238E+01 g(S)=  0.000E+00 retain N=  5 mean eig= 1.12
 eig:   3.977  0.497  0.497  0.283  0.360
 bond charge predicted
       N       E                     dE             d eps       ncg     rms          rms(c)
DAV:   1    -0.135603740869E+04   -0.48205E+00   -0.62310E+01  1392   0.109E+01    0.181E+00
DAV:   2    -0.135634845421E+04   -0.31105E+00   -0.33532E+00  2312   0.406E+00    0.904E-01
DAV:   3    -0.135635843672E+04   -0.99825E-02   -0.24980E-01  2624   0.918E-01    0.694E-01
DAV:   4    -0.135635053101E+04    0.79057E-02   -0.40741E-02  2584   0.446E-01    0.375E-01
DAV:   5    -0.135634887001E+04    0.16610E-02   -0.19485E-02  2400   0.269E-01    0.185E-01
DAV:   6    -0.135634902826E+04   -0.15825E-03   -0.79692E-03  2568   0.170E-01    0.127E-01
DAV:   7    -0.135634900782E+04    0.20442E-04   -0.23290E-03  2512   0.910E-02    0.878E-02
DAV:   8    -0.135634895716E+04    0.50657E-04   -0.80416E-04  2608   0.534E-02    0.472E-02
DAV:   9    -0.135634894663E+04    0.10533E-04   -0.23189E-04  2536   0.333E-02    0.240E-02
DAV:  10    -0.135634895777E+04   -0.11135E-04   -0.18591E-04  2520   0.232E-02    0.248E-02
DAV:  11    -0.135634894895E+04    0.88198E-05   -0.53107E-05  2432   0.151E-02    0.982E-03
DAV:  12    -0.135634895014E+04   -0.11974E-05   -0.23783E-05  2136   0.861E-03    0.621E-03
DAV:  13    -0.135634894971E+04    0.43471E-06   -0.18289E-06  1024   0.512E-03
   8 F= -.13563489E+04 E0= -.13563489E+04  d E =-.793586E+00
 BRION: g(F)=  0.795E+00 g(S)=  0.000E+00 retain N=  6 mean eig= 1.62
 eig:   4.951  1.903  1.903  0.234  0.353  0.353
 bond charge predicted
       N       E                     dE             d eps       ncg     rms          rms(c)
DAV:   1    -0.135642188697E+04   -0.72937E-01   -0.16370E+02  1384   0.182E+01    0.233E+00
DAV:   2    -0.135724889122E+04   -0.82700E+00   -0.86676E+00  2288   0.667E+00    0.120E+00
DAV:   3    -0.135728686048E+04   -0.37969E-01   -0.64509E-01  2616   0.138E+00    0.963E-01
DAV:   4    -0.135727150283E+04    0.15358E-01   -0.79631E-02  2592   0.666E-01    0.604E-01
DAV:   5    -0.135726350471E+04    0.79981E-02   -0.37556E-02  2384   0.386E-01    0.241E-01
DAV:   6    -0.135726435988E+04   -0.85518E-03   -0.19737E-02  2496   0.265E-01    0.184E-01
DAV:   7    -0.135726429094E+04    0.68946E-04   -0.65433E-03  2488   0.157E-01    0.129E-01
DAV:   8    -0.135726428103E+04    0.99054E-05   -0.28520E-03  2552   0.942E-02    0.712E-02
DAV:   9    -0.135726424600E+04    0.35031E-04   -0.50540E-04  2528   0.489E-02    0.509E-02
DAV:  10    -0.135726424431E+04    0.16937E-05   -0.36605E-04  2568   0.346E-02    0.291E-02
DAV:  11    -0.135726424132E+04    0.29830E-05   -0.12996E-04  2504   0.242E-02    0.116E-02
DAV:  12    -0.135726424399E+04   -0.26684E-05   -0.40965E-05  2384   0.139E-02    0.114E-02
DAV:  13    -0.135726424278E+04    0.12172E-05   -0.17299E-05  1832   0.819E-03    0.574E-03
DAV:  14    -0.135726424270E+04    0.71290E-07   -0.35089E-06  1152   0.574E-03
   9 F= -.13572642E+04 E0= -.13572642E+04  d E =-.915293E+00
 BRION: g(F)=  0.561E+00 g(S)=  0.000E+00 retain N=  7 mean eig= 2.18
 eig:   5.662  5.662  2.789  0.399  0.399  0.243  0.112
 bond charge predicted
       N       E                     dE             d eps       ncg     rms          rms(c)
DAV:   1    -0.135752319854E+04   -0.25896E+00   -0.51101E+01  1384   0.102E+01    0.131E+00
DAV:   2    -0.135777674302E+04   -0.25354E+00   -0.26706E+00  2272   0.380E+00    0.629E-01
DAV:   3    -0.135779114764E+04   -0.14405E-01   -0.20901E-01  2616   0.784E-01    0.504E-01
DAV:   4    -0.135778750853E+04    0.36391E-02   -0.22797E-02  2600   0.367E-01    0.328E-01
DAV:   5    -0.135778536744E+04    0.21411E-02   -0.12152E-02  2344   0.228E-01    0.124E-01
DAV:   6    -0.135778581210E+04   -0.44467E-03   -0.61735E-03  2528   0.150E-01    0.113E-01
DAV:   7    -0.135778576527E+04    0.46833E-04   -0.19173E-03  2568   0.839E-02    0.734E-02
DAV:   8    -0.135778573318E+04    0.32096E-04   -0.76883E-04  2608   0.538E-02    0.362E-02
DAV:   9    -0.135778573155E+04    0.16214E-05   -0.12290E-04  2504   0.255E-02    0.263E-02
DAV:  10    -0.135778573285E+04   -0.12956E-05   -0.93820E-05  2400   0.187E-02    0.133E-02
DAV:  11    -0.135778573277E+04    0.77343E-07   -0.23667E-05  2320   0.117E-02    0.698E-03
DAV:  12    -0.135778573371E+04   -0.93371E-06   -0.14249E-05  1888   0.685E-03    0.591E-03
DAV:  13    -0.135778573310E+04    0.60571E-06   -0.12367E-06  1000   0.492E-03
  10 F= -.13577857E+04 E0= -.13577857E+04  d E =-.521490E+00
 BRION: g(F)=  0.496E+00 g(S)=  0.000E+00 retain N=  8 mean eig= 2.58
 eig:   7.541  7.541  3.051  0.688  0.688  0.229  0.366  0.550
 bond charge predicted
       N       E                     dE             d eps       ncg     rms          rms(c)
DAV:   1    -0.135802807388E+04   -0.24234E+00   -0.75823E+01  1368   0.124E+01    0.151E+00
DAV:   2    -0.135841263086E+04   -0.38456E+00   -0.40551E+00  2288   0.467E+00    0.749E-01
DAV:   3    -0.135843572549E+04   -0.23095E-01   -0.32574E-01  2616   0.971E-01    0.602E-01
DAV:   4    -0.135843109066E+04    0.46348E-02   -0.33253E-02  2608   0.445E-01    0.413E-01
DAV:   5    -0.135842730287E+04    0.37878E-02   -0.15886E-02  2368   0.258E-01    0.167E-01
DAV:   6    -0.135842771693E+04   -0.41406E-03   -0.96971E-03  2480   0.187E-01    0.129E-01
DAV:   7    -0.135842769964E+04    0.17291E-04   -0.37092E-03  2464   0.118E-01    0.927E-02
DAV:   8    -0.135842768571E+04    0.13926E-04   -0.15591E-03  2616   0.741E-02    0.535E-02
DAV:   9    -0.135842766738E+04    0.18336E-04   -0.31474E-04  2528   0.374E-02    0.368E-02
DAV:  10    -0.135842766765E+04   -0.27342E-06   -0.14321E-04  2592   0.227E-02    0.200E-02
DAV:  11    -0.135842766946E+04   -0.18089E-05   -0.49880E-05  2456   0.152E-02    0.115E-02
DAV:  12    -0.135842766896E+04    0.49731E-06   -0.19368E-05  2208   0.106E-02    0.904E-03
DAV:  13    -0.135842766878E+04    0.17969E-06   -0.16304E-05  1880   0.726E-03    0.479E-03
DAV:  14    -0.135842766859E+04    0.18842E-06   -0.17095E-06  1000   0.481E-03
  11 F= -.13584277E+04 E0= -.13584277E+04  d E =-.641935E+00
 BRION: g(F)=  0.310E+00 g(S)=  0.000E+00 retain N=  8 mean eig= 2.02
 eig:   5.099  5.099  1.934  1.934  0.860  0.309  0.053  0.883
 bond charge predicted
       N       E                     dE             d eps       ncg     rms          rms(c)
DAV:   1    -0.135862356257E+04   -0.19589E+00   -0.69911E+01  1368   0.120E+01    0.148E+00
DAV:   2    -0.135898376650E+04   -0.36020E+00   -0.38296E+00  2280   0.462E+00    0.754E-01
DAV:   3    -0.135900564821E+04   -0.21882E-01   -0.31838E-01  2616   0.970E-01    0.611E-01
DAV:   4    -0.135900052579E+04    0.51224E-02   -0.32760E-02  2600   0.442E-01    0.415E-01
DAV:   5    -0.135899660313E+04    0.39227E-02   -0.16866E-02  2360   0.265E-01    0.163E-01
DAV:   6    -0.135899704891E+04   -0.44578E-03   -0.10008E-02  2464   0.192E-01    0.137E-01
DAV:   7    -0.135899701360E+04    0.35308E-04   -0.39207E-03  2472   0.120E-01    0.971E-02
DAV:   8    -0.135899699086E+04    0.22740E-04   -0.16419E-03  2600   0.753E-02    0.520E-02
DAV:   9    -0.135899697376E+04    0.17101E-04   -0.29694E-04  2528   0.374E-02    0.367E-02
DAV:  10    -0.135899697572E+04   -0.19602E-05   -0.17141E-04  2568   0.241E-02    0.206E-02
DAV:  11    -0.135899697560E+04    0.12483E-06   -0.58641E-05  2448   0.168E-02    0.102E-02
DAV:  12    -0.135899697638E+04   -0.78393E-06   -0.21563E-05  2312   0.105E-02    0.959E-03
DAV:  13    -0.135899697564E+04    0.73799E-06   -0.12866E-05  1744   0.682E-03    0.475E-03
DAV:  14    -0.135899697545E+04    0.18968E-06   -0.19266E-06  1008   0.505E-03
  12 F= -.13589970E+04 E0= -.13589970E+04  d E =-.569307E+00
 BRION: g(F)=  0.238E+00 g(S)=  0.000E+00 retain N=  9 mean eig= 2.06
 eig:   6.632  4.707  2.016  2.016  0.802  0.802  0.301  0.211  1.088
 bond charge predicted
       N       E                     dE             d eps       ncg     rms          rms(c)
DAV:   1    -0.135919833579E+04   -0.20136E+00   -0.40477E+01  1368   0.907E+00    0.110E+00
DAV:   2    -0.135940340314E+04   -0.20507E+00   -0.21688E+00  2280   0.340E+00    0.549E-01
DAV:   3    -0.135941556989E+04   -0.12167E-01   -0.17559E-01  2608   0.713E-01    0.444E-01
DAV:   4    -0.135941282816E+04    0.27417E-02   -0.17976E-02  2584   0.323E-01    0.301E-01
DAV:   5    -0.135941056737E+04    0.22608E-02   -0.88219E-03  2336   0.199E-01    0.117E-01
DAV:   6    -0.135941081581E+04   -0.24845E-03   -0.56617E-03  2472   0.145E-01    0.976E-02
DAV:   7    -0.135941080309E+04    0.12725E-04   -0.19488E-03  2480   0.851E-02    0.701E-02
DAV:   8    -0.135941078936E+04    0.13729E-04   -0.85137E-04  2608   0.537E-02    0.367E-02
DAV:   9    -0.135941078160E+04    0.77632E-05   -0.16400E-04  2472   0.276E-02    0.264E-02
DAV:  10    -0.135941078124E+04    0.35088E-06   -0.76944E-05  2512   0.172E-02    0.150E-02
DAV:  11    -0.135941078124E+04    0.83819E-08   -0.27991E-05  2376   0.117E-02    0.715E-03
DAV:  12    -0.135941078178E+04   -0.54113E-06   -0.10921E-05  1768   0.770E-03    0.653E-03
DAV:  13    -0.135941078128E+04    0.49963E-06   -0.35646E-06  1184   0.536E-03
  13 F= -.13594108E+04 E0= -.13594108E+04  d E =-.413806E+00
 BRION: g(F)=  0.202E+00 g(S)=  0.000E+00 retain N=  6 mean eig= 3.01
 eig:   7.475  7.475  0.102  1.062  1.062  0.884
 bond charge predicted
       N       E                     dE             d eps       ncg     rms          rms(c)
DAV:   1    -0.135957000242E+04   -0.15922E+00   -0.60426E+01  1368   0.110E+01    0.125E+00
DAV:   2    -0.135987574073E+04   -0.30574E+00   -0.32096E+00  2296   0.417E+00    0.648E-01
DAV:   3    -0.135989393359E+04   -0.18193E-01   -0.25839E-01  2608   0.834E-01    0.528E-01
DAV:   4    -0.135989052254E+04    0.34110E-02   -0.23298E-02  2592   0.368E-01    0.389E-01
DAV:   5    -0.135988585912E+04    0.46634E-02   -0.11560E-02  2328   0.232E-01    0.171E-01
DAV:   6    -0.135988583028E+04    0.28842E-04   -0.11371E-02  2328   0.199E-01    0.113E-01
DAV:   7    -0.135988592755E+04   -0.97272E-04   -0.42965E-03  2424   0.124E-01    0.100E-01
DAV:   8    -0.135988588580E+04    0.41750E-04   -0.12753E-03  2568   0.705E-02    0.548E-02
DAV:   9    -0.135988583938E+04    0.46413E-04   -0.49440E-04  2456   0.429E-02    0.294E-02
DAV:  10    -0.135988585197E+04   -0.12581E-04   -0.16170E-04  2536   0.248E-02    0.239E-02
DAV:  11    -0.135988584736E+04    0.46052E-05   -0.73438E-05  2312   0.170E-02    0.124E-02
DAV:  12    -0.135988584773E+04   -0.36733E-06   -0.26965E-05  2256   0.116E-02    0.111E-02
DAV:  13    -0.135988584688E+04    0.84522E-06   -0.18182E-05  1864   0.763E-03    0.542E-03
DAV:  14    -0.135988584659E+04    0.29216E-06   -0.26598E-06  1064   0.519E-03
  14 F= -.13598858E+04 E0= -.13598858E+04  d E =-.475065E+00
 BRION: g(F)=  0.181E+00 g(S)=  0.000E+00 retain N=  5 mean eig= 2.76
 eig:   4.799  4.799  1.519  1.519  1.159
 bond charge predicted
       N       E                     dE             d eps       ncg     rms          rms(c)
DAV:   1    -0.136004782932E+04   -0.16198E+00   -0.35665E+01  1368   0.848E+00    0.992E-01
DAV:   2    -0.136022930874E+04   -0.18148E+00   -0.19204E+00  2272   0.321E+00    0.512E-01
DAV:   3    -0.136024020760E+04   -0.10899E-01   -0.15914E-01  2600   0.669E-01    0.416E-01
DAV:   4    -0.136023782507E+04    0.23825E-02   -0.15490E-02  2576   0.301E-01    0.292E-01
DAV:   5    -0.136023551276E+04    0.23123E-02   -0.76086E-03  2336   0.180E-01    0.122E-01
DAV:   6    -0.136023558483E+04   -0.72067E-04   -0.54375E-03  2408   0.140E-01    0.895E-02
DAV:   7    -0.136023560037E+04   -0.15535E-04   -0.21722E-03  2424   0.899E-02    0.696E-02
DAV:   8    -0.136023558900E+04    0.11369E-04   -0.84470E-04  2592   0.546E-02    0.395E-02
DAV:   9    -0.136023557671E+04    0.12287E-04   -0.19871E-04  2488   0.290E-02    0.258E-02
DAV:  10    -0.136023557878E+04   -0.20656E-05   -0.85091E-05  2512   0.172E-02    0.156E-02
DAV:  11    -0.136023557911E+04   -0.33289E-06   -0.29898E-05  2384   0.118E-02    0.908E-03
DAV:  12    -0.136023557897E+04    0.14178E-06   -0.13241E-05  1928   0.844E-03    0.799E-03
DAV:  13    -0.136023557851E+04    0.45539E-06   -0.10193E-05  1696   0.625E-03    0.404E-03
DAV:  14    -0.136023557833E+04    0.18263E-06   -0.18055E-06   976   0.460E-03
  15 F= -.13602356E+04 E0= -.13602356E+04  d E =-.349732E+00
 BRION: g(F)=  0.162E+00 g(S)=  0.000E+00 retain N=  4 mean eig= 4.61
 eig:   7.966  7.966  1.244  1.244
 bond charge predicted
       N       E                     dE             d eps       ncg     rms          rms(c)
DAV:   1    -0.136035102871E+04   -0.11545E+00   -0.51024E+01  1368   0.100E+01    0.113E+00
DAV:   2    -0.136060407919E+04   -0.25305E+00   -0.26542E+00  2280   0.380E+00    0.583E-01
DAV:   3    -0.136061943343E+04   -0.15354E-01   -0.21548E-01  2600   0.765E-01    0.481E-01
DAV:   4    -0.136061672832E+04    0.27051E-02   -0.18376E-02  2600   0.327E-01    0.358E-01
DAV:   5    -0.136061274040E+04    0.39879E-02   -0.10384E-02  2280   0.212E-01    0.149E-01
DAV:   6    -0.136061286696E+04   -0.12656E-03   -0.91752E-03  2296   0.174E-01    0.113E-01
DAV:   7    -0.136061287208E+04   -0.51199E-05   -0.33381E-03  2400   0.108E-01    0.903E-02
DAV:   8    -0.136061282915E+04    0.42930E-04   -0.11615E-03  2568   0.669E-02    0.470E-02
DAV:   9    -0.136061280236E+04    0.26795E-04   -0.35422E-04  2288   0.374E-02    0.279E-02
DAV:  10    -0.136061280994E+04   -0.75826E-05   -0.10825E-04  2384   0.196E-02    0.201E-02
DAV:  11    -0.136061280660E+04    0.33426E-05   -0.41656E-05  2352   0.133E-02    0.103E-02
DAV:  12    -0.136061280728E+04   -0.68131E-06   -0.21821E-05  2160   0.973E-03    0.954E-03
DAV:  13    -0.136061280650E+04    0.77912E-06   -0.99781E-06  1656   0.650E-03
  16 F= -.13606128E+04 E0= -.13606128E+04  d E =-.377228E+00
 BRION: g(F)=  0.138E+00 g(S)=  0.000E+00 retain N=  4 mean eig= 3.91
 eig:   6.409  6.409  1.409  1.409
 bond charge predicted
       N       E                     dE             d eps       ncg     rms          rms(c)
DAV:   1    -0.136073861976E+04   -0.12581E+00   -0.31867E+01  1368   0.794E+00    0.903E-01
DAV:   2    -0.136089671067E+04   -0.15809E+00   -0.16606E+00  2288   0.298E+00    0.473E-01
DAV:   3    -0.136090573460E+04   -0.90239E-02   -0.13289E-01  2608   0.602E-01    0.379E-01
DAV:   4    -0.136090350778E+04    0.22268E-02   -0.12308E-02  2584   0.267E-01    0.266E-01
DAV:   5    -0.136090121562E+04    0.22922E-02   -0.66314E-03  2328   0.173E-01    0.106E-01
DAV:   6    -0.136090136045E+04   -0.14483E-03   -0.53437E-03  2384   0.136E-01    0.862E-02
DAV:   7    -0.136090136354E+04   -0.30892E-05   -0.17230E-03  2424   0.803E-02    0.680E-02
DAV:   8    -0.136090134526E+04    0.18280E-04   -0.66494E-04  2576   0.473E-02    0.345E-02
DAV:   9    -0.136090132803E+04    0.17231E-04   -0.18038E-04  2272   0.277E-02    0.212E-02
DAV:  10    -0.136090133117E+04   -0.31474E-05   -0.60533E-05  2352   0.151E-02    0.154E-02
DAV:  11    -0.136090132931E+04    0.18630E-05   -0.25275E-05  2232   0.103E-02    0.686E-03
DAV:  12    -0.136090132977E+04   -0.45527E-06   -0.90616E-06  1728   0.698E-03
  17 F= -.13609013E+04 E0= -.13609013E+04  d E =-.288523E+00
 BRION: g(F)=  0.124E+00 g(S)=  0.000E+00 retain N=  3 mean eig= 3.03
 eig:   3.943  3.943  1.208
 bond charge predicted
       N       E                     dE             d eps       ncg     rms          rms(c)
DAV:   1    -0.136101615601E+04   -0.11483E+00   -0.27332E+01  1368   0.739E+00    0.838E-01
DAV:   2    -0.136115115826E+04   -0.13500E+00   -0.14175E+00  2288   0.280E+00    0.427E-01
DAV:   3    -0.136115923676E+04   -0.80785E-02   -0.11422E-01  2600   0.558E-01    0.347E-01
DAV:   4    -0.136115758196E+04    0.16548E-02   -0.98648E-03  2592   0.240E-01    0.250E-01
DAV:   5    -0.136115566237E+04    0.19196E-02   -0.60239E-03  2232   0.155E-01    0.950E-02
DAV:   6    -0.136115585727E+04   -0.19490E-03   -0.42742E-03  2368   0.115E-01    0.873E-02
DAV:   7    -0.136115582415E+04    0.33120E-04   -0.13306E-03  2488   0.697E-02    0.616E-02
DAV:   8    -0.136115579807E+04    0.26081E-04   -0.56637E-04  2552   0.449E-02    0.305E-02
DAV:   9    -0.136115579136E+04    0.67075E-05   -0.11320E-04  2200   0.223E-02    0.204E-02
DAV:  10    -0.136115579205E+04   -0.69337E-06   -0.41560E-05  2344   0.126E-02    0.961E-03
DAV:  11    -0.136115579214E+04   -0.82116E-07   -0.97185E-06  1784   0.754E-03
  18 F= -.13611558E+04 E0= -.13611558E+04  d E =-.254462E+00
 BRION: g(F)=  0.112E+00 g(S)=  0.000E+00 retain N=  4 mean eig= 4.66
 eig:   7.972  7.972  1.346  1.346
 bond charge predicted
       N       E                     dE             d eps       ncg     rms          rms(c)
DAV:   1    -0.136125304898E+04   -0.97257E-01   -0.91758E+00  1368   0.427E+00    0.480E-01
DAV:   2    -0.136129758860E+04   -0.44540E-01   -0.46816E-01  2296   0.163E+00    0.249E-01
DAV:   3    -0.136130012507E+04   -0.25365E-02   -0.36940E-02  2608   0.312E-01    0.204E-01
DAV:   4    -0.136129950439E+04    0.62068E-03   -0.32304E-03  2584   0.138E-01    0.145E-01
DAV:   5    -0.136129884272E+04    0.66167E-03   -0.23508E-03  2152   0.967E-02    0.502E-02
DAV:   6    -0.136129894358E+04   -0.10086E-03   -0.15190E-03  2456   0.689E-02    0.571E-02
DAV:   7    -0.136129892825E+04    0.15332E-04   -0.41961E-04  2536   0.385E-02    0.380E-02
DAV:   8    -0.136129891360E+04    0.14644E-04   -0.14583E-04  2520   0.232E-02    0.180E-02
DAV:   9    -0.136129891144E+04    0.21617E-05   -0.31500E-05  2360   0.120E-02    0.108E-02
DAV:  10    -0.136129891172E+04   -0.28385E-06   -0.73794E-06  1720   0.657E-03
  19 F= -.13612989E+04 E0= -.13612989E+04  d E =-.143120E+00
 BRION: g(F)=  0.107E+00 g(S)=  0.000E+00 retain N=  4 mean eig= 3.60
 eig:   6.073  6.073  1.119  1.119
 bond charge predicted
       N       E                     dE             d eps       ncg     rms          rms(c)
DAV:   1    -0.136140638108E+04   -0.10747E+00   -0.29235E+01  1384   0.759E+00    0.852E-01
DAV:   2    -0.136155094621E+04   -0.14457E+00   -0.15140E+00  2304   0.290E+00    0.438E-01
DAV:   3    -0.136155888973E+04   -0.79435E-02   -0.11616E-01  2608   0.565E-01    0.349E-01
DAV:   4    -0.136155689030E+04    0.19994E-02   -0.10537E-02  2584   0.246E-01    0.243E-01
DAV:   5    -0.136155497332E+04    0.19170E-02   -0.61806E-03  2288   0.159E-01    0.903E-02
DAV:   6    -0.136155517480E+04   -0.20148E-03   -0.41436E-03  2400   0.116E-01    0.810E-02
DAV:   7    -0.136155515180E+04    0.23004E-04   -0.12278E-03  2456   0.676E-02    0.578E-02
DAV:   8    -0.136155513536E+04    0.16438E-04   -0.50427E-04  2568   0.417E-02    0.294E-02
DAV:   9    -0.136155512721E+04    0.81535E-05   -0.11124E-04  2208   0.222E-02    0.200E-02
DAV:  10    -0.136155512787E+04   -0.66012E-06   -0.40833E-05  2344   0.127E-02    0.110E-02
DAV:  11    -0.136155512752E+04    0.34389E-06   -0.14753E-05  2048   0.842E-03    0.466E-03
DAV:  12    -0.136155512795E+04   -0.43321E-06   -0.59585E-06  1520   0.579E-03
  20 F= -.13615551E+04 E0= -.13615551E+04  d E =-.256216E+00
 BRION: g(F)=  0.998E-01 g(S)=  0.000E+00 retain N=  4 mean eig= 4.14
 eig:   6.994  6.994  1.295  1.295
