 running on  160 total cores
 distrk:  each k-point on  160 cores,    1 groups
 distr:  one band on   20 cores,    8 groups
 using from now: INCAR     
 vasp.5.4.4.18Apr17-6-g9f103f2a35 (build May 01 2020 14:22:42) gamma-only       
  
 POSCAR found type information on POSCAR  O  La Zr Li Al
 POSCAR found :  5 types and     188 ions
 scaLAPACK will be used
 LDA part: xc-table for Pade appr. of Perdew
 POSCAR, INCAR and KPOINTS ok, starting setup
 FFT: planning ...
 WAVECAR not read
 WARNING: random wavefunctions but no delay for mixing, default for NELMDL
 entering main loop
       N       E                     dE             d eps       ncg     rms          rms(c)
DAV:   1     0.253508178879E+05    0.25351E+05   -0.42022E+05  1592   0.253E+03
DAV:   2     0.943319295540E+04   -0.15918E+05   -0.14733E+05  1424   0.707E+02
DAV:   3     0.266822440730E+04   -0.67650E+04   -0.61649E+04  1520   0.356E+02
DAV:   4    -0.392274719796E+03   -0.30605E+04   -0.28604E+04  2072   0.221E+02
DAV:   5    -0.142454782285E+04   -0.10323E+04   -0.99241E+03  2528   0.139E+02    0.117E+02
DAV:   6    -0.130147917851E+04    0.12307E+03   -0.13881E+03  2408   0.649E+01    0.502E+01
DAV:   7    -0.132442428960E+04   -0.22945E+02   -0.37538E+02  2568   0.333E+01    0.241E+01
DAV:   8    -0.133288434298E+04   -0.84601E+01   -0.23209E+02  2536   0.252E+01    0.248E+01
DAV:   9    -0.132666605775E+04    0.62183E+01   -0.53284E+01  2488   0.146E+01    0.729E+00
DAV:  10    -0.132774852634E+04   -0.10825E+01   -0.15068E+01  2608   0.810E+00    0.744E+00
DAV:  11    -0.132797746850E+04   -0.22894E+00   -0.60835E+00  2624   0.437E+00    0.400E+00
DAV:  12    -0.132781869610E+04    0.15877E+00   -0.25402E+00  2584   0.350E+00    0.268E+00
DAV:  13    -0.132788986123E+04   -0.71165E-01   -0.83001E-01  2560   0.176E+00    0.200E+00
DAV:  14    -0.132787136646E+04    0.18495E-01   -0.29320E-01  2592   0.108E+00    0.105E+00
DAV:  15    -0.132787906082E+04   -0.76944E-02   -0.89431E-02  2536   0.614E-01    0.929E-01
DAV:  16    -0.132787881549E+04    0.24534E-03   -0.30528E-02  2600   0.319E-01    0.513E-01
DAV:  17    -0.132787692485E+04    0.18906E-02   -0.21831E-02  2480   0.287E-01    0.242E-01
DAV:  18    -0.132787725036E+04   -0.32550E-03   -0.50583E-03  2480   0.151E-01    0.102E-01
DAV:  19    -0.132787730260E+04   -0.52239E-04   -0.15721E-03  2592   0.784E-02    0.703E-02
DAV:  20    -0.132787735106E+04   -0.48467E-04   -0.48492E-04  2624   0.418E-02    0.218E-02
DAV:  21    -0.132787736114E+04   -0.10076E-04   -0.14615E-04  2616   0.230E-02    0.197E-02
DAV:  22    -0.132787737463E+04   -0.13490E-04   -0.59919E-05  2464   0.142E-02    0.933E-03
DAV:  23    -0.132787737297E+04    0.16624E-05   -0.23860E-05  1736   0.911E-03    0.426E-03
DAV:  24    -0.132787737644E+04   -0.34752E-05   -0.79094E-06  1112   0.681E-03    0.189E-03
DAV:  25    -0.132787737599E+04    0.45457E-06   -0.36961E-06  1016   0.485E-03
   1 F= -.13278774E+04 E0= -.13278774E+04  d E =-.132788E+04
 BRION: g(F)=  0.592E+02 g(S)=  0.000E+00
 bond charge predicted
       N       E                     dE             d eps       ncg     rms          rms(c)
DAV:   1    -0.129723735539E+04    0.30640E+02   -0.63465E+03  1760   0.120E+02    0.237E+01
DAV:   2    -0.134521102416E+04   -0.47974E+02   -0.55188E+02  2568   0.563E+01    0.136E+01
DAV:   3    -0.134370880028E+04    0.15022E+01   -0.32591E+01  2624   0.145E+01    0.932E+00
DAV:   4    -0.134187355609E+04    0.18352E+01   -0.11661E+01  2440   0.691E+00    0.447E+00
DAV:   5    -0.134163842476E+04    0.23513E+00   -0.31216E+00  2552   0.393E+00    0.306E+00
DAV:   6    -0.134152868607E+04    0.10974E+00   -0.25907E+00  2512   0.294E+00    0.158E+00
DAV:   7    -0.134153276328E+04   -0.40772E-02   -0.52163E-01  2528   0.164E+00    0.129E+00
DAV:   8    -0.134151941247E+04    0.13351E-01   -0.30330E-01  2616   0.931E-01    0.506E-01
DAV:   9    -0.134152180683E+04   -0.23944E-02   -0.51627E-02  2584   0.502E-01    0.411E-01
DAV:  10    -0.134151995388E+04    0.18529E-02   -0.19510E-02  2616   0.300E-01    0.183E-01
DAV:  11    -0.134152080467E+04   -0.85079E-03   -0.13509E-02  2608   0.211E-01    0.154E-01
DAV:  12    -0.134152075221E+04    0.52461E-04   -0.20567E-03  2624   0.970E-02    0.999E-02
DAV:  13    -0.134152062995E+04    0.12227E-03   -0.12780E-03  2512   0.654E-02    0.226E-02
DAV:  14    -0.134152065841E+04   -0.28460E-04   -0.25710E-04  2376   0.345E-02    0.117E-02
DAV:  15    -0.134152066682E+04   -0.84153E-05   -0.79212E-05  2576   0.178E-02    0.117E-02
DAV:  16    -0.134152066546E+04    0.13599E-05   -0.25255E-05  2496   0.118E-02    0.800E-03
DAV:  17    -0.134152066672E+04   -0.12567E-05   -0.22690E-05  2256   0.884E-03    0.534E-03
DAV:  18    -0.134152066637E+04    0.34334E-06   -0.16481E-06  1040   0.469E-03
   2 F= -.13415207E+04 E0= -.13415207E+04  d E =-.136433E+02
 BRION: g(F)=  0.184E+03 g(S)=  0.000E+00 retain N=  1 mean eig= 0.31
 eig:   0.310
 bond charge predicted
       N       E                     dE             d eps       ncg     rms          rms(c)
DAV:   1    -0.133127849097E+04    0.10242E+02   -0.21298E+03  1320   0.521E+01    0.196E+01
DAV:   2    -0.135682476296E+04   -0.25546E+02   -0.33703E+02  2528   0.281E+01    0.169E+01
DAV:   3    -0.135324593241E+04    0.35788E+01   -0.29661E+01  2432   0.106E+01    0.114E+01
DAV:   4    -0.135114753700E+04    0.20984E+01   -0.24805E+01  2136   0.625E+00    0.388E+00
DAV:   5    -0.135155743217E+04   -0.40990E+00   -0.55801E+00  2456   0.373E+00    0.535E+00
DAV:   6    -0.135103130572E+04    0.52613E+00   -0.31293E+00  2528   0.249E+00    0.140E+00
DAV:   7    -0.135108393246E+04   -0.52627E-01   -0.99957E-01  2480   0.160E+00    0.119E+00
DAV:   8    -0.135106548278E+04    0.18450E-01   -0.12950E-01  2568   0.812E-01    0.730E-01
DAV:   9    -0.135106225307E+04    0.32297E-02   -0.69883E-02  2536   0.410E-01    0.234E-01
DAV:  10    -0.135106288136E+04   -0.62830E-03   -0.89985E-03  2528   0.207E-01    0.138E-01
DAV:  11    -0.135106284612E+04    0.35245E-04   -0.31142E-03  2624   0.999E-02    0.834E-02
DAV:  12    -0.135106288149E+04   -0.35373E-04   -0.18650E-03  2624   0.734E-02    0.508E-02
DAV:  13    -0.135106291071E+04   -0.29221E-04   -0.33150E-04  2624   0.379E-02    0.476E-02
DAV:  14    -0.135106287992E+04    0.30792E-04   -0.12364E-04  2616   0.226E-02    0.263E-02
DAV:  15    -0.135106287669E+04    0.32299E-05   -0.13614E-04  2520   0.181E-02    0.574E-03
DAV:  16    -0.135106287799E+04   -0.13003E-05   -0.15542E-05  2160   0.932E-03    0.222E-03
DAV:  17    -0.135106287802E+04   -0.32611E-07   -0.96773E-07  1024   0.377E-03
   3 F= -.13510629E+04 E0= -.13510629E+04  d E =-.954221E+01
 BRION: g(F)=  0.130E+02 g(S)=  0.000E+00 retain N=  2 mean eig= 3.13
 eig:   0.188  6.077
 bond charge predicted
       N       E                     dE             d eps       ncg     rms          rms(c)
DAV:   1    -0.135143243372E+04   -0.36956E+00   -0.71943E+02  1424   0.380E+01    0.834E+00
DAV:   2    -0.135533142379E+04   -0.38990E+01   -0.46050E+01  2248   0.152E+01    0.412E+00
DAV:   3    -0.135545587446E+04   -0.12445E+00   -0.44549E+00  2576   0.429E+00    0.361E+00
DAV:   4    -0.135530261378E+04    0.15326E+00   -0.84024E-01  2552   0.199E+00    0.209E+00
DAV:   5    -0.135526993100E+04    0.32683E-01   -0.65903E-01  2168   0.144E+00    0.128E+00
DAV:   6    -0.135525888428E+04    0.11047E-01   -0.27118E-01  2512   0.102E+00    0.929E-01
DAV:   7    -0.135525344065E+04    0.54436E-02   -0.18381E-01  2488   0.722E-01    0.509E-01
DAV:   8    -0.135525174137E+04    0.16993E-02   -0.22300E-02  2512   0.328E-01    0.340E-01
DAV:   9    -0.135525153541E+04    0.20596E-03   -0.16040E-02  2560   0.217E-01    0.155E-01
DAV:  10    -0.135525168052E+04   -0.14511E-03   -0.23834E-03  2608   0.107E-01    0.122E-01
DAV:  11    -0.135525146665E+04    0.21387E-03   -0.18076E-03  2584   0.801E-02    0.383E-02
DAV:  12    -0.135525151707E+04   -0.50416E-04   -0.65562E-04  2488   0.512E-02    0.270E-02
DAV:  13    -0.135525151658E+04    0.48667E-06   -0.96400E-05  2624   0.206E-02    0.137E-02
DAV:  14    -0.135525151984E+04   -0.32568E-05   -0.68239E-05  2432   0.150E-02    0.101E-02
DAV:  15    -0.135525151888E+04    0.95539E-06   -0.11158E-05  1992   0.861E-03    0.670E-03
DAV:  16    -0.135525151903E+04   -0.15053E-06   -0.14344E-05  1704   0.602E-03    0.263E-03
DAV:  17    -0.135525151898E+04    0.47148E-07   -0.10053E-06  1008   0.414E-03
   4 F= -.13552515E+04 E0= -.13552515E+04  d E =-.418864E+01
 BRION: g(F)=  0.529E+01 g(S)=  0.000E+00 retain N=  2 mean eig= 0.37
 eig:   0.375  0.375
 bond charge predicted
       N       E                     dE             d eps       ncg     rms          rms(c)
DAV:   1    -0.135646165983E+04   -0.12101E+01   -0.18930E+02  1368   0.188E+01    0.341E+00
DAV:   2    -0.135741715553E+04   -0.95550E+00   -0.10760E+01  2344   0.746E+00    0.171E+00
DAV:   3    -0.135742101264E+04   -0.38571E-02   -0.77189E-01  2592   0.174E+00    0.142E+00
DAV:   4    -0.135738528522E+04    0.35727E-01   -0.20521E-01  2560   0.906E-01    0.713E-01
DAV:   5    -0.135737754768E+04    0.77375E-02   -0.70776E-02  2376   0.553E-01    0.444E-01
DAV:   6    -0.135737685709E+04    0.69059E-03   -0.49189E-02  2448   0.422E-01    0.252E-01
DAV:   7    -0.135737711679E+04   -0.25970E-03   -0.19790E-02  2264   0.246E-01    0.210E-01
DAV:   8    -0.135737708705E+04    0.29738E-04   -0.57522E-03  2320   0.129E-01    0.121E-01
DAV:   9    -0.135737693062E+04    0.15643E-03   -0.21850E-03  2616   0.873E-02    0.755E-02
DAV:  10    -0.135737700706E+04   -0.76440E-04   -0.14887E-03  2536   0.702E-02    0.903E-02
DAV:  11    -0.135737689659E+04    0.11048E-03   -0.70752E-04  2376   0.491E-02    0.309E-02
DAV:  12    -0.135737690983E+04   -0.13243E-04   -0.23885E-04  2376   0.300E-02    0.176E-02
DAV:  13    -0.135737691264E+04   -0.28060E-05   -0.52273E-05  2392   0.132E-02    0.105E-02
DAV:  14    -0.135737691255E+04    0.84168E-07   -0.15831E-05  1880   0.768E-03    0.772E-03
DAV:  15    -0.135737691291E+04   -0.35383E-06   -0.71709E-06  1504   0.612E-03
   5 F= -.13573769E+04 E0= -.13573769E+04  d E =-.212539E+01
 BRION: g(F)=  0.308E+01 g(S)=  0.000E+00 retain N=  3 mean eig= 0.46
 eig:   0.838  0.277  0.277
 bond charge predicted
       N       E                     dE             d eps       ncg     rms          rms(c)
DAV:   1    -0.135838065767E+04   -0.10037E+01   -0.23887E+02  1352   0.215E+01    0.291E+00
DAV:   2    -0.135958093598E+04   -0.12003E+01   -0.12628E+01  2272   0.817E+00    0.158E+00
DAV:   3    -0.135961505546E+04   -0.34119E-01   -0.85874E-01  2584   0.166E+00    0.134E+00
DAV:   4    -0.135958308218E+04    0.31973E-01   -0.14978E-01  2504   0.804E-01    0.792E-01
DAV:   5    -0.135956799851E+04    0.15084E-01   -0.73426E-02  2368   0.542E-01    0.352E-01
DAV:   6    -0.135956962644E+04   -0.16279E-02   -0.37701E-02  2512   0.377E-01    0.319E-01
DAV:   7    -0.135956848434E+04    0.11421E-02   -0.15015E-02  2376   0.232E-01    0.195E-01
DAV:   8    -0.135956855430E+04   -0.69957E-04   -0.83344E-03  2440   0.153E-01    0.959E-02
DAV:   9    -0.135956847873E+04    0.75568E-04   -0.11617E-03  2392   0.734E-02    0.699E-02
DAV:  10    -0.135956848469E+04   -0.59585E-05   -0.99084E-04  2288   0.536E-02    0.481E-02
DAV:  11    -0.135956846405E+04    0.20643E-04   -0.31641E-04  2496   0.400E-02    0.184E-02
DAV:  12    -0.135956847632E+04   -0.12272E-04   -0.17807E-04  2448   0.243E-02    0.218E-02
DAV:  13    -0.135956847143E+04    0.48890E-05   -0.71743E-05  2312   0.161E-02    0.105E-02
DAV:  14    -0.135956847147E+04   -0.41749E-07   -0.19004E-05  1872   0.886E-03    0.541E-03
DAV:  15    -0.135956847155E+04   -0.74317E-07   -0.30380E-06  1112   0.528E-03
   6 F= -.13595685E+04 E0= -.13595685E+04  d E =-.219156E+01
 BRION: g(F)=  0.176E+01 g(S)=  0.000E+00 retain N=  4 mean eig= 0.64
 eig:   0.704  0.704  0.317  0.834
 bond charge predicted
       N       E                     dE             d eps       ncg     rms          rms(c)
DAV:   1    -0.135987135052E+04   -0.30288E+00   -0.25855E+02  1368   0.223E+01    0.305E+00
DAV:   2    -0.136122421396E+04   -0.13529E+01   -0.14257E+01  2304   0.857E+00    0.166E+00
DAV:   3    -0.136126403125E+04   -0.39817E-01   -0.98703E-01  2600   0.177E+00    0.138E+00
DAV:   4    -0.136122968100E+04    0.34350E-01   -0.17043E-01  2528   0.858E-01    0.783E-01
DAV:   5    -0.136121520526E+04    0.14476E-01   -0.68345E-02  2448   0.522E-01    0.345E-01
DAV:   6    -0.136121619538E+04   -0.99012E-03   -0.34333E-02  2480   0.356E-01    0.279E-01
DAV:   7    -0.136121555306E+04    0.64231E-03   -0.13424E-02  2464   0.233E-01    0.195E-01
DAV:   8    -0.136121555573E+04   -0.26639E-05   -0.65179E-03  2488   0.133E-01    0.976E-02
DAV:   9    -0.136121550226E+04    0.53470E-04   -0.11874E-03  2504   0.696E-02    0.678E-02
DAV:  10    -0.136121550069E+04    0.15637E-05   -0.64543E-04  2512   0.480E-02    0.454E-02
DAV:  11    -0.136121548837E+04    0.12324E-04   -0.26716E-04  2488   0.335E-02    0.178E-02
DAV:  12    -0.136121549430E+04   -0.59295E-05   -0.10230E-04  2408   0.201E-02    0.172E-02
DAV:  13    -0.136121549189E+04    0.24117E-05   -0.41965E-05  2352   0.126E-02    0.753E-03
DAV:  14    -0.136121549256E+04   -0.67288E-06   -0.11515E-05  1816   0.678E-03    0.481E-03
DAV:  15    -0.136121549245E+04    0.11591E-06   -0.11921E-06  1024   0.416E-03
   7 F= -.13612155E+04 E0= -.13612155E+04  d E =-.164702E+01
 BRION: g(F)=  0.707E+00 g(S)=  0.000E+00 retain N=  5 mean eig= 1.17
 eig:   2.153  2.153  0.622  0.622  0.323
 bond charge predicted
       N       E                     dE             d eps       ncg     rms          rms(c)
DAV:   1    -0.136153466940E+04   -0.31918E+00   -0.72408E+01  1376   0.119E+01    0.165E+00
DAV:   2    -0.136190883331E+04   -0.37416E+00   -0.39850E+00  2288   0.467E+00    0.822E-01
DAV:   3    -0.136192491283E+04   -0.16080E-01   -0.29728E-01  2608   0.932E-01    0.665E-01
DAV:   4    -0.136191672749E+04    0.81853E-02   -0.40861E-02  2536   0.460E-01    0.387E-01
DAV:   5    -0.136191360248E+04    0.31250E-02   -0.18607E-02  2376   0.277E-01    0.165E-01
DAV:   6    -0.136191401092E+04   -0.40844E-03   -0.85093E-03  2536   0.175E-01    0.130E-01
DAV:   7    -0.136191393688E+04    0.74037E-04   -0.29787E-03  2512   0.108E-01    0.917E-02
DAV:   8    -0.136191394196E+04   -0.50809E-05   -0.17408E-03  2512   0.706E-02    0.529E-02
DAV:   9    -0.136191391889E+04    0.23068E-04   -0.27134E-04  2440   0.369E-02    0.390E-02
DAV:  10    -0.136191391421E+04    0.46844E-05   -0.28081E-04  2232   0.302E-02    0.241E-02
DAV:  11    -0.136191391194E+04    0.22720E-05   -0.83264E-05  2376   0.206E-02    0.104E-02
DAV:  12    -0.136191391483E+04   -0.28926E-05   -0.44090E-05  2352   0.117E-02    0.103E-02
DAV:  13    -0.136191391343E+04    0.14031E-05   -0.10440E-05  1696   0.741E-03    0.447E-03
DAV:  14    -0.136191391348E+04   -0.50029E-07   -0.44446E-06  1256   0.562E-03
   8 F= -.13619139E+04 E0= -.13619139E+04  d E =-.698421E+00
 BRION: g(F)=  0.475E+00 g(S)=  0.000E+00 retain N=  6 mean eig= 1.45
 eig:   3.537  3.537  0.382  0.382  0.429  0.429
 bond charge predicted
       N       E                     dE             d eps       ncg     rms          rms(c)
DAV:   1    -0.136216018172E+04   -0.24627E+00   -0.90060E+01  1392   0.136E+01    0.166E+00
DAV:   2    -0.136263036507E+04   -0.47018E+00   -0.50014E+00  2288   0.544E+00    0.837E-01
DAV:   3    -0.136265588066E+04   -0.25516E-01   -0.38472E-01  2584   0.105E+00    0.699E-01
DAV:   4    -0.136264977781E+04    0.61028E-02   -0.42626E-02  2608   0.476E-01    0.491E-01
DAV:   5    -0.136264344453E+04    0.63333E-02   -0.18970E-02  2336   0.299E-01    0.218E-01
DAV:   6    -0.136264339840E+04    0.46128E-04   -0.16807E-02  2312   0.261E-01    0.151E-01
DAV:   7    -0.136264361473E+04   -0.21633E-03   -0.82163E-03  2384   0.167E-01    0.142E-01
DAV:   8    -0.136264351102E+04    0.10371E-03   -0.22767E-03  2576   0.931E-02    0.845E-02
DAV:   9    -0.136264344111E+04    0.69909E-04   -0.93913E-04  2576   0.565E-02    0.428E-02
DAV:  10    -0.136264346306E+04   -0.21948E-04   -0.31918E-04  2560   0.358E-02    0.326E-02
DAV:  11    -0.136264346028E+04    0.27738E-05   -0.10283E-04  2504   0.216E-02    0.215E-02
DAV:  12    -0.136264345812E+04    0.21692E-05   -0.84066E-05  2344   0.183E-02    0.187E-02
DAV:  13    -0.136264345486E+04    0.32547E-05   -0.41509E-05  2224   0.123E-02    0.999E-03
DAV:  14    -0.136264345457E+04    0.28948E-06   -0.14949E-05  1776   0.708E-03    0.341E-03
DAV:  15    -0.136264345461E+04   -0.42826E-07   -0.12842E-06   992   0.415E-03
   9 F= -.13626435E+04 E0= -.13626435E+04  d E =-.729541E+00
 BRION: g(F)=  0.439E+00 g(S)=  0.000E+00 retain N=  7 mean eig= 1.93
 eig:   4.514  4.514  1.104  1.104  0.326  0.984  0.984
 bond charge predicted
       N       E                     dE             d eps       ncg     rms          rms(c)
DAV:   1    -0.136271159356E+04   -0.68139E-01   -0.14148E+02  1384   0.171E+01    0.211E+00
DAV:   2    -0.136346141837E+04   -0.74982E+00   -0.80085E+00  2304   0.688E+00    0.105E+00
DAV:   3    -0.136350517628E+04   -0.43758E-01   -0.63213E-01  2600   0.132E+00    0.869E-01
DAV:   4    -0.136349609755E+04    0.90787E-02   -0.67278E-02  2624   0.611E-01    0.602E-01
DAV:   5    -0.136348782526E+04    0.82723E-02   -0.29233E-02  2376   0.354E-01    0.251E-01
DAV:   6    -0.136348830082E+04   -0.47555E-03   -0.20156E-02  2416   0.270E-01    0.176E-01
DAV:   7    -0.136348840646E+04   -0.10564E-03   -0.90549E-03  2448   0.178E-01    0.146E-01
DAV:   8    -0.136348832223E+04    0.84223E-04   -0.33214E-03  2592   0.112E-01    0.829E-02
DAV:   9    -0.136348828191E+04    0.40326E-04   -0.85403E-04  2552   0.575E-02    0.517E-02
DAV:  10    -0.136348829959E+04   -0.17682E-04   -0.31064E-04  2608   0.336E-02    0.354E-02
DAV:  11    -0.136348830008E+04   -0.49388E-06   -0.12435E-04  2520   0.235E-02    0.241E-02
DAV:  12    -0.136348829444E+04    0.56401E-05   -0.81755E-05  2352   0.192E-02    0.172E-02
DAV:  13    -0.136348829335E+04    0.10907E-05   -0.50217E-05  2328   0.128E-02    0.886E-03
DAV:  14    -0.136348829334E+04    0.17768E-07   -0.13480E-05  1832   0.691E-03    0.369E-03
DAV:  15    -0.136348829336E+04   -0.28202E-07   -0.17958E-06  1008   0.446E-03
  10 F= -.13634883E+04 E0= -.13634883E+04  d E =-.844839E+00
 BRION: g(F)=  0.252E+00 g(S)=  0.000E+00 retain N=  8 mean eig= 2.69
 eig:   6.408  6.408  2.711  2.711  0.986  0.986  0.299  1.035
 bond charge predicted
       N       E                     dE             d eps       ncg     rms          rms(c)
DAV:   1    -0.136354228466E+04   -0.53991E-01   -0.99514E+01  1384   0.144E+01    0.171E+00
DAV:   2    -0.136407335183E+04   -0.53107E+00   -0.56657E+00  2320   0.579E+00    0.864E-01
DAV:   3    -0.136410409717E+04   -0.30745E-01   -0.44347E-01  2600   0.111E+00    0.713E-01
DAV:   4    -0.136409819241E+04    0.59048E-02   -0.44996E-02  2616   0.500E-01    0.515E-01
DAV:   5    -0.136409131975E+04    0.68727E-02   -0.18832E-02  2384   0.292E-01    0.229E-01
DAV:   6    -0.136409113282E+04    0.18692E-03   -0.17038E-02  2312   0.253E-01    0.134E-01
DAV:   7    -0.136409146086E+04   -0.32803E-03   -0.86027E-03  2392   0.167E-01    0.132E-01
DAV:   8    -0.136409137800E+04    0.82854E-04   -0.20102E-03  2608   0.915E-02    0.820E-02
DAV:   9    -0.136409132354E+04    0.54468E-04   -0.84114E-04  2592   0.544E-02    0.434E-02
DAV:  10    -0.136409134577E+04   -0.22238E-04   -0.28390E-04  2576   0.333E-02    0.313E-02
DAV:  11    -0.136409134662E+04   -0.84193E-06   -0.99271E-05  2504   0.209E-02    0.218E-02
DAV:  12    -0.136409134264E+04    0.39736E-05   -0.93340E-05  2312   0.196E-02    0.170E-02
DAV:  13    -0.136409134071E+04    0.19279E-05   -0.41171E-05  2304   0.129E-02    0.103E-02
DAV:  14    -0.136409134032E+04    0.38985E-06   -0.17040E-05  1824   0.741E-03    0.342E-03
DAV:  15    -0.136409134032E+04    0.58208E-08   -0.12271E-06   984   0.437E-03
  11 F= -.13640913E+04 E0= -.13640913E+04  d E =-.603047E+00
 BRION: g(F)=  0.189E+00 g(S)=  0.000E+00 retain N=  8 mean eig= 2.50
 eig:   4.957  4.957  2.655  2.655  1.098  1.098  1.309  1.309
 bond charge predicted
       N       E                     dE             d eps       ncg     rms          rms(c)
DAV:   1    -0.136423451267E+04   -0.14317E+00   -0.31941E+01  1384   0.812E+00    0.973E-01
DAV:   2    -0.136440389950E+04   -0.16939E+00   -0.18091E+00  2304   0.325E+00    0.493E-01
DAV:   3    -0.136441317795E+04   -0.92784E-02   -0.13872E-01  2600   0.637E-01    0.402E-01
DAV:   4    -0.136441085205E+04    0.23259E-02   -0.14763E-02  2624   0.286E-01    0.275E-01
DAV:   5    -0.136440895140E+04    0.19006E-02   -0.67321E-03  2408   0.168E-01    0.108E-01
DAV:   6    -0.136440909330E+04   -0.14190E-03   -0.42430E-03  2448   0.121E-01    0.790E-02
DAV:   7    -0.136440910598E+04   -0.12682E-04   -0.17003E-03  2432   0.786E-02    0.601E-02
DAV:   8    -0.136440910178E+04    0.42034E-05   -0.63741E-04  2576   0.481E-02    0.339E-02
DAV:   9    -0.136440909710E+04    0.46816E-05   -0.13958E-04  2544   0.250E-02    0.238E-02
DAV:  10    -0.136440909960E+04   -0.25044E-05   -0.59878E-05  2568   0.146E-02    0.151E-02
DAV:  11    -0.136440909943E+04    0.17554E-06   -0.28032E-05  2288   0.111E-02    0.884E-03
DAV:  12    -0.136440909884E+04    0.58879E-06   -0.12378E-05  1872   0.848E-03    0.688E-03
DAV:  13    -0.136440909863E+04    0.20680E-06   -0.84125E-06  1664   0.573E-03
  12 F= -.13644091E+04 E0= -.13644091E+04  d E =-.317758E+00
 BRION: g(F)=  0.171E+00 g(S)=  0.000E+00 retain N=  3 mean eig= 3.14
 eig:   3.947  3.947  1.516
 bond charge predicted
       N       E                     dE             d eps       ncg     rms          rms(c)
DAV:   1    -0.136447448316E+04   -0.65384E-01   -0.60369E+01  1384   0.112E+01    0.131E+00
DAV:   2    -0.136479648129E+04   -0.32200E+00   -0.34318E+00  2312   0.455E+00    0.662E-01
DAV:   3    -0.136481533922E+04   -0.18858E-01   -0.26760E-01  2592   0.851E-01    0.548E-01
DAV:   4    -0.136481190400E+04    0.34352E-02   -0.25118E-02  2608   0.381E-01    0.405E-01
DAV:   5    -0.136480756938E+04    0.43346E-02   -0.12341E-02  2344   0.224E-01    0.171E-01
DAV:   6    -0.136480764386E+04   -0.74479E-04   -0.10065E-02  2336   0.184E-01    0.112E-01
DAV:   7    -0.136480773460E+04   -0.90736E-04   -0.46716E-03  2416   0.122E-01    0.955E-02
DAV:   8    -0.136480769558E+04    0.39021E-04   -0.13025E-03  2576   0.735E-02    0.590E-02
DAV:   9    -0.136480767203E+04    0.23547E-04   -0.39910E-04  2536   0.386E-02    0.343E-02
DAV:  10    -0.136480768054E+04   -0.85065E-05   -0.12769E-04  2568   0.221E-02    0.216E-02
DAV:  11    -0.136480768372E+04   -0.31891E-05   -0.44629E-05  2456   0.144E-02    0.164E-02
DAV:  12    -0.136480768143E+04    0.22896E-05   -0.40115E-05  2296   0.131E-02    0.127E-02
DAV:  13    -0.136480768026E+04    0.11786E-05   -0.20638E-05  2136   0.890E-03    0.714E-03
DAV:  14    -0.136480767998E+04    0.27835E-06   -0.67670E-06  1600   0.544E-03
  13 F= -.13648077E+04 E0= -.13648077E+04  d E =-.398581E+00
 BRION: g(F)=  0.141E+00 g(S)=  0.000E+00 retain N=  3 mean eig= 4.67
 eig:   6.316  6.316  1.379
 bond charge predicted
       N       E                     dE             d eps       ncg     rms          rms(c)
DAV:   1    -0.136489501824E+04   -0.87338E-01   -0.38146E+01  1384   0.891E+00    0.103E+00
DAV:   2    -0.136509849627E+04   -0.20348E+00   -0.21657E+00  2304   0.362E+00    0.532E-01
DAV:   3    -0.136511015499E+04   -0.11659E-01   -0.16745E-01  2600   0.675E-01    0.437E-01
DAV:   4    -0.136510782930E+04    0.23257E-02   -0.15882E-02  2616   0.302E-01    0.320E-01
DAV:   5    -0.136510502461E+04    0.28047E-02   -0.78084E-03  2320   0.184E-01    0.132E-01
DAV:   6    -0.136510511377E+04   -0.89165E-04   -0.65887E-03  2344   0.151E-01    0.893E-02
DAV:   7    -0.136510517127E+04   -0.57500E-04   -0.28539E-03  2408   0.946E-02    0.760E-02
DAV:   8    -0.136510514501E+04    0.26258E-04   -0.79066E-04  2600   0.574E-02    0.439E-02
DAV:   9    -0.136510513324E+04    0.11768E-04   -0.25393E-04  2584   0.308E-02    0.258E-02
DAV:  10    -0.136510513961E+04   -0.63653E-05   -0.77878E-05  2568   0.180E-02    0.179E-02
DAV:  11    -0.136510514006E+04   -0.44813E-06   -0.34551E-05  2400   0.122E-02    0.125E-02
DAV:  12    -0.136510513888E+04    0.11820E-05   -0.24213E-05  2192   0.106E-02    0.100E-02
DAV:  13    -0.136510513807E+04    0.81043E-06   -0.12247E-05  1760   0.721E-03    0.534E-03
DAV:  14    -0.136510513786E+04    0.20358E-06   -0.42938E-06  1264   0.512E-03
  14 F= -.13651051E+04 E0= -.13651051E+04  d E =-.297458E+00
 BRION: g(F)=  0.125E+00 g(S)=  0.000E+00 retain N=  3 mean eig= 3.55
 eig:   4.647  4.647  1.343
 bond charge predicted
       N       E                     dE             d eps       ncg     rms          rms(c)
DAV:   1    -0.136520770915E+04   -0.10257E+00   -0.22915E+01  1384   0.686E+00    0.782E-01
DAV:   2    -0.136532863494E+04   -0.12093E+00   -0.12805E+00  2304   0.280E+00    0.406E-01
DAV:   3    -0.136533554952E+04   -0.69146E-02   -0.98267E-02  2592   0.511E-01    0.331E-01
DAV:   4    -0.136533414471E+04    0.14048E-02   -0.86983E-03  2600   0.226E-01    0.243E-01
DAV:   5    -0.136533250910E+04    0.16356E-02   -0.50120E-03  2280   0.142E-01    0.938E-02
DAV:   6    -0.136533264746E+04   -0.13836E-03   -0.36392E-03  2352   0.109E-01    0.731E-02
DAV:   7    -0.136533264553E+04    0.19363E-05   -0.14066E-03  2472   0.672E-02    0.541E-02
DAV:   8    -0.136533263328E+04    0.12244E-04   -0.47338E-04  2576   0.433E-02    0.309E-02
DAV:   9    -0.136533262725E+04    0.60335E-05   -0.11010E-04  2440   0.215E-02    0.201E-02
DAV:  10    -0.136533262936E+04   -0.21153E-05   -0.38707E-05  2504   0.121E-02    0.114E-02
DAV:  11    -0.136533262965E+04   -0.28464E-06   -0.11239E-05  1808   0.806E-03    0.712E-03
DAV:  12    -0.136533262960E+04    0.46872E-07   -0.10002E-05  1600   0.694E-03    0.595E-03
DAV:  13    -0.136533262907E+04    0.52631E-06   -0.20776E-06   984   0.536E-03
  15 F= -.13653326E+04 E0= -.13653326E+04  d E =-.227491E+00
 BRION: g(F)=  0.111E+00 g(S)=  0.000E+00 retain N=  3 mean eig= 4.50
 eig:   5.982  5.982  1.534
 bond charge predicted
       N       E                     dE             d eps       ncg     rms          rms(c)
DAV:   1    -0.136543771825E+04   -0.10509E+00   -0.22468E+01  1384   0.677E+00    0.770E-01
DAV:   2    -0.136555513310E+04   -0.11741E+00   -0.12396E+00  2304   0.275E+00    0.401E-01
DAV:   3    -0.136556168480E+04   -0.65517E-02   -0.94321E-02  2592   0.500E-01    0.325E-01
DAV:   4    -0.136556021211E+04    0.14727E-02   -0.84435E-03  2608   0.221E-01    0.235E-01
DAV:   5    -0.136555860724E+04    0.16049E-02   -0.48678E-03  2288   0.144E-01    0.899E-02
DAV:   6    -0.136555875515E+04   -0.14791E-03   -0.36447E-03  2368   0.111E-01    0.733E-02
DAV:   7    -0.136555875072E+04    0.44302E-05   -0.13202E-03  2440   0.664E-02    0.550E-02
DAV:   8    -0.136555873598E+04    0.14741E-04   -0.44646E-04  2552   0.419E-02    0.294E-02
DAV:   9    -0.136555872871E+04    0.72621E-05   -0.10868E-04  2256   0.215E-02    0.190E-02
DAV:  10    -0.136555873120E+04   -0.24884E-05   -0.44186E-05  2320   0.127E-02    0.116E-02
DAV:  11    -0.136555873074E+04    0.46488E-06   -0.13512E-05  1928   0.868E-03    0.653E-03
DAV:  12    -0.136555873102E+04   -0.28043E-06   -0.10367E-05  1704   0.688E-03    0.607E-03
DAV:  13    -0.136555873049E+04    0.52786E-06   -0.18318E-06   992   0.510E-03
  16 F= -.13655587E+04 E0= -.13655587E+04  d E =-.226101E+00
 BRION: g(F)=  0.102E+00 g(S)=  0.000E+00 retain N=  3 mean eig= 4.33
 eig:   5.741  5.741  1.495
 bond charge predicted
       N       E                     dE             d eps       ncg     rms          rms(c)
DAV:   1    -0.136566290831E+04   -0.10418E+00   -0.19434E+01  1376   0.628E+00    0.716E-01
DAV:   2    -0.136576322591E+04   -0.10032E+00   -0.10611E+00  2296   0.254E+00    0.376E-01
DAV:   3    -0.136576872992E+04   -0.55040E-02   -0.80925E-02  2576   0.466E-01    0.302E-01
DAV:   4    -0.136576735967E+04    0.13703E-02   -0.76078E-03  2584   0.207E-01    0.214E-01
DAV:   5    -0.136576605211E+04    0.13076E-02   -0.45315E-03  2264   0.137E-01    0.797E-02
DAV:   6    -0.136576620495E+04   -0.15284E-03   -0.29917E-03  2416   0.100E-01    0.717E-02
DAV:   7    -0.136576619311E+04    0.11834E-04   -0.10471E-03  2472   0.598E-02    0.508E-02
DAV:   8    -0.136576617878E+04    0.14334E-04   -0.40168E-04  2584   0.389E-02    0.261E-02
DAV:   9    -0.136576617479E+04    0.39897E-05   -0.77600E-05  2264   0.190E-02    0.182E-02
DAV:  10    -0.136576617600E+04   -0.12135E-05   -0.35539E-05  2368   0.114E-02    0.991E-03
DAV:  11    -0.136576617555E+04    0.45403E-06   -0.67717E-06  1440   0.760E-03
  17 F= -.13657662E+04 E0= -.13657662E+04  d E =-.207445E+00
 BRION: g(F)=  0.932E-01 g(S)=  0.000E+00 retain N=  3 mean eig= 3.96
 eig:   5.210  5.210  1.456
 bond charge predicted
       N       E                     dE             d eps       ncg     rms          rms(c)
DAV:   1    -0.136586768611E+04   -0.10151E+00   -0.22270E+01  1376   0.668E+00    0.749E-01
DAV:   2    -0.136598160665E+04   -0.11392E+00   -0.12009E+00  2296   0.270E+00    0.395E-01
DAV:   3    -0.136598783074E+04   -0.62241E-02   -0.91212E-02  2576   0.490E-01    0.316E-01
DAV:   4    -0.136598626558E+04    0.15652E-02   -0.82810E-03  2592   0.215E-01    0.224E-01
DAV:   5    -0.136598478180E+04    0.14838E-02   -0.48170E-03  2272   0.141E-01    0.839E-02
DAV:   6    -0.136598492880E+04   -0.14700E-03   -0.32089E-03  2392   0.103E-01    0.709E-02
DAV:   7    -0.136598491942E+04    0.93756E-05   -0.11485E-03  2480   0.630E-02    0.507E-02
DAV:   8    -0.136598490711E+04    0.12307E-04   -0.42351E-04  2584   0.402E-02    0.273E-02
DAV:   9    -0.136598490256E+04    0.45511E-05   -0.85656E-05  2352   0.198E-02    0.188E-02
DAV:  10    -0.136598490367E+04   -0.11098E-05   -0.41048E-05  2384   0.121E-02    0.988E-03
DAV:  11    -0.136598490354E+04    0.13025E-06   -0.93435E-06  1696   0.803E-03
  18 F= -.13659849E+04 E0= -.13659849E+04  d E =-.218728E+00
 BRION: g(F)=  0.843E-01 g(S)=  0.000E+00 retain N=  3 mean eig= 4.52
 eig:   5.982  5.982  1.587
 bond charge predicted
       N       E                     dE             d eps       ncg     rms          rms(c)
DAV:   1    -0.136608631176E+04   -0.10141E+00   -0.12947E+01  1360   0.507E+00    0.569E-01
DAV:   2    -0.136615145373E+04   -0.65142E-01   -0.68555E-01  2312   0.202E+00    0.301E-01
DAV:   3    -0.136615467638E+04   -0.32227E-02   -0.49954E-02  2576   0.370E-01    0.236E-01
DAV:   4    -0.136615358860E+04    0.10878E-02   -0.49711E-03  2552   0.165E-01    0.157E-01
DAV:   5    -0.136615283840E+04    0.75019E-03   -0.27587E-03  2288   0.108E-01    0.571E-02
DAV:   6    -0.136615292879E+04   -0.90385E-04   -0.16446E-03  2456   0.738E-02    0.495E-02
DAV:   7    -0.136615292759E+04    0.11962E-05   -0.47060E-04  2496   0.421E-02    0.357E-02
DAV:   8    -0.136615292183E+04    0.57624E-05   -0.20475E-04  2568   0.268E-02    0.182E-02
DAV:   9    -0.136615292012E+04    0.17072E-05   -0.37817E-05  2408   0.139E-02    0.129E-02
DAV:  10    -0.136615292029E+04   -0.16190E-06   -0.18754E-05  2112   0.899E-03    0.662E-03
DAV:  11    -0.136615291997E+04    0.31274E-06   -0.22150E-06  1040   0.603E-03
  19 F= -.13661529E+04 E0= -.13661529E+04  d E =-.168016E+00
 BRION: g(F)=  0.789E-01 g(S)=  0.000E+00 retain N=  3 mean eig= 4.01
 eig:   5.238  5.238  1.543
 bond charge predicted
       N       E                     dE             d eps       ncg     rms          rms(c)
DAV:   1    -0.136625505390E+04   -0.10213E+00   -0.13707E+01  1360   0.519E+00    0.582E-01
DAV:   2    -0.136632380696E+04   -0.68753E-01   -0.72428E-01  2304   0.207E+00    0.305E-01
DAV:   3    -0.136632745999E+04   -0.36530E-02   -0.54796E-02  2584   0.381E-01    0.242E-01
DAV:   4    -0.136632642677E+04    0.10332E-02   -0.50756E-03  2568   0.166E-01    0.166E-01
DAV:   5    -0.136632558578E+04    0.84098E-03   -0.27884E-03  2264   0.105E-01    0.617E-02
DAV:   6    -0.136632566007E+04   -0.74283E-04   -0.16839E-03  2376   0.725E-02    0.504E-02
DAV:   7    -0.136632565937E+04    0.70022E-06   -0.58644E-04  2472   0.447E-02    0.360E-02
DAV:   8    -0.136632565480E+04    0.45658E-05   -0.23717E-04  2560   0.295E-02    0.207E-02
DAV:   9    -0.136632565249E+04    0.23135E-05   -0.46448E-05  2424   0.148E-02    0.145E-02
DAV:  10    -0.136632565259E+04   -0.10271E-06   -0.24038E-05  2256   0.926E-03    0.688E-03
DAV:  11    -0.136632565240E+04    0.19038E-06   -0.20884E-06  1024   0.594E-03
  20 F= -.13663257E+04 E0= -.13663257E+04  d E =-.172732E+00
 BRION: g(F)=  0.732E-01 g(S)=  0.000E+00 retain N=  3 mean eig= 5.05
 eig:   6.773  6.773  1.605
