 running on  160 total cores
 distrk:  each k-point on  160 cores,    1 groups
 distr:  one band on   20 cores,    8 groups
 using from now: INCAR     
 vasp.5.4.4.18Apr17-6-g9f103f2a35 (build May 01 2020 14:22:42) gamma-only       
  
 POSCAR found type information on POSCAR  O  La Zr Li Al
 POSCAR found :  5 types and     188 ions
 scaLAPACK will be used
 LDA part: xc-table for Pade appr. of Perdew
 POSCAR, INCAR and KPOINTS ok, starting setup
 FFT: planning ...
 WAVECAR not read
 WARNING: random wavefunctions but no delay for mixing, default for NELMDL
 entering main loop
       N       E                     dE             d eps       ncg     rms          rms(c)
DAV:   1     0.252976936217E+05    0.25298E+05   -0.42122E+05  1616   0.253E+03
DAV:   2     0.952171420539E+04   -0.15776E+05   -0.14572E+05  1432   0.713E+02
DAV:   3     0.273207834190E+04   -0.67896E+04   -0.61908E+04  1520   0.354E+02
DAV:   4    -0.337194124722E+03   -0.30693E+04   -0.28656E+04  2040   0.223E+02
DAV:   5    -0.139437672445E+04   -0.10572E+04   -0.10168E+04  2528   0.141E+02    0.116E+02
DAV:   6    -0.129243346854E+04    0.10194E+03   -0.14913E+03  2416   0.666E+01    0.504E+01
DAV:   7    -0.131544785308E+04   -0.23014E+02   -0.41862E+02  2544   0.344E+01    0.265E+01
DAV:   8    -0.131894287177E+04   -0.34950E+01   -0.23408E+02  2544   0.270E+01    0.227E+01
DAV:   9    -0.131667072152E+04    0.22722E+01   -0.35071E+01  2576   0.132E+01    0.863E+00
DAV:  10    -0.131685114955E+04   -0.18043E+00   -0.16330E+01  2608   0.695E+00    0.639E+00
DAV:  11    -0.131728213728E+04   -0.43099E+00   -0.47264E+00  2624   0.397E+00    0.434E+00
DAV:  12    -0.131724257056E+04    0.39567E-01   -0.18744E+00  2576   0.288E+00    0.323E+00
DAV:  13    -0.131718690628E+04    0.55664E-01   -0.14100E+00  2488   0.207E+00    0.189E+00
DAV:  14    -0.131718677387E+04    0.13241E-03   -0.21465E-01  2568   0.107E+00    0.126E+00
DAV:  15    -0.131718668166E+04    0.92206E-04   -0.77722E-02  2608   0.513E-01    0.697E-01
DAV:  16    -0.131718638807E+04    0.29359E-03   -0.28342E-02  2608   0.295E-01    0.449E-01
DAV:  17    -0.131718691839E+04   -0.53032E-03   -0.11282E-02  2576   0.204E-01    0.228E-01
DAV:  18    -0.131718705358E+04   -0.13520E-03   -0.38239E-03  2544   0.110E-01    0.140E-01
DAV:  19    -0.131718706805E+04   -0.14473E-04   -0.23484E-03  2568   0.918E-02    0.924E-02
DAV:  20    -0.131718710720E+04   -0.39151E-04   -0.74535E-04  2504   0.454E-02    0.373E-02
DAV:  21    -0.131718712202E+04   -0.14810E-04   -0.23810E-04  2576   0.304E-02    0.429E-02
DAV:  22    -0.131718713089E+04   -0.88762E-05   -0.10092E-04  2536   0.156E-02    0.106E-02
DAV:  23    -0.131718713328E+04   -0.23852E-05   -0.35640E-05  1984   0.112E-02    0.135E-02
DAV:  24    -0.131718713736E+04   -0.40831E-05   -0.11142E-05  1176   0.675E-03    0.452E-03
DAV:  25    -0.131718713684E+04    0.51710E-06   -0.53561E-06  1056   0.558E-03
   1 F= -.13171871E+04 E0= -.13171829E+04  d E =-.131719E+04
 BRION: g(F)=  0.689E+02 g(S)=  0.000E+00
 bond charge predicted
       N       E                     dE             d eps       ncg     rms          rms(c)
DAV:   1    -0.127690079314E+04    0.40286E+02   -0.85213E+03  1752   0.138E+02    0.302E+01
DAV:   2    -0.134425339537E+04   -0.67353E+02   -0.77456E+02  2568   0.605E+01    0.169E+01
DAV:   3    -0.134154083848E+04    0.27126E+01   -0.44730E+01  2608   0.173E+01    0.114E+01
DAV:   4    -0.133881142313E+04    0.27294E+01   -0.19376E+01  2368   0.842E+00    0.525E+00
DAV:   5    -0.133853688407E+04    0.27454E+00   -0.47547E+00  2552   0.490E+00    0.386E+00
DAV:   6    -0.133834282184E+04    0.19406E+00   -0.39810E+00  2544   0.356E+00    0.203E+00
DAV:   7    -0.133832819809E+04    0.14624E-01   -0.72328E-01  2536   0.205E+00    0.151E+00
DAV:   8    -0.133831477137E+04    0.13427E-01   -0.52305E-01  2608   0.120E+00    0.717E-01
DAV:   9    -0.133831774431E+04   -0.29729E-02   -0.79884E-02  2576   0.622E-01    0.571E-01
DAV:  10    -0.133831326161E+04    0.44827E-02   -0.36636E-02  2592   0.392E-01    0.235E-01
DAV:  11    -0.133831492332E+04   -0.16617E-02   -0.25357E-02  2592   0.286E-01    0.219E-01
DAV:  12    -0.133831460978E+04    0.31354E-03   -0.42220E-03  2600   0.141E-01    0.985E-02
DAV:  13    -0.133831461540E+04   -0.56232E-05   -0.23666E-03  2616   0.836E-02    0.324E-02
DAV:  14    -0.133831464272E+04   -0.27313E-04   -0.32108E-04  2592   0.407E-02    0.200E-02
DAV:  15    -0.133831465030E+04   -0.75775E-05   -0.81309E-05  2616   0.184E-02    0.119E-02
DAV:  16    -0.133831465085E+04   -0.55027E-06   -0.24422E-05  2408   0.108E-02    0.757E-03
DAV:  17    -0.133831465190E+04   -0.10539E-05   -0.13510E-05  2056   0.801E-03    0.256E-03
DAV:  18    -0.133831465210E+04   -0.20034E-06   -0.18926E-06  1040   0.467E-03
   2 F= -.13383147E+04 E0= -.13383147E+04  d E =-.211275E+02
 BRION: g(F)=  0.560E+02 g(S)=  0.000E+00 retain N=  1 mean eig= 0.54
 eig:   0.536
 bond charge predicted
       N       E                     dE             d eps       ncg     rms          rms(c)
DAV:   1    -0.132248232173E+04    0.15832E+02   -0.29702E+03  1400   0.740E+01    0.186E+01
DAV:   2    -0.135118905062E+04   -0.28707E+02   -0.35908E+02  2536   0.357E+01    0.171E+01
DAV:   3    -0.134942269103E+04    0.17664E+01   -0.27570E+01  2600   0.120E+01    0.130E+01
DAV:   4    -0.134761669813E+04    0.18060E+01   -0.17508E+01  2232   0.555E+00    0.640E+00
DAV:   5    -0.134790704762E+04   -0.29035E+00   -0.56332E+00  2496   0.428E+00    0.647E+00
DAV:   6    -0.134719364618E+04    0.71340E+00   -0.67193E+00  2480   0.426E+00    0.166E+00
DAV:   7    -0.134726635659E+04   -0.72710E-01   -0.13718E+00  2248   0.247E+00    0.165E+00
DAV:   8    -0.134724708646E+04    0.19270E-01   -0.50062E-01  2464   0.110E+00    0.713E-01
DAV:   9    -0.134724653616E+04    0.55030E-03   -0.12826E-01  2536   0.659E-01    0.447E-01
DAV:  10    -0.134724642216E+04    0.11400E-03   -0.29751E-02  2448   0.352E-01    0.237E-01
DAV:  11    -0.134724626943E+04    0.15274E-03   -0.11773E-02  2608   0.214E-01    0.152E-01
DAV:  12    -0.134724622088E+04    0.48549E-04   -0.42271E-03  2592   0.118E-01    0.700E-02
DAV:  13    -0.134724626233E+04   -0.41454E-04   -0.12120E-03  2624   0.692E-02    0.502E-02
DAV:  14    -0.134724625843E+04    0.38972E-05   -0.35705E-04  2592   0.379E-02    0.338E-02
DAV:  15    -0.134724625764E+04    0.79627E-06   -0.15400E-04  2608   0.240E-02    0.172E-02
DAV:  16    -0.134724625768E+04   -0.40731E-07   -0.53848E-05  2552   0.137E-02    0.678E-03
DAV:  17    -0.134724625875E+04   -0.10681E-05   -0.92187E-06  1728   0.755E-03    0.342E-03
DAV:  18    -0.134724625894E+04   -0.19567E-06   -0.30614E-06  1256   0.470E-03
   3 F= -.13472463E+04 E0= -.13472463E+04  d E =-.893161E+01
 BRION: g(F)=  0.735E+01 g(S)=  0.000E+00 retain N=  2 mean eig= 1.32
 eig:   0.368  2.264
 bond charge predicted
       N       E                     dE             d eps       ncg     rms          rms(c)
DAV:   1    -0.134863345204E+04   -0.13872E+01   -0.42406E+02  1376   0.297E+01    0.544E+00
DAV:   2    -0.135087722629E+04   -0.22438E+01   -0.24846E+01  2280   0.111E+01    0.266E+00
DAV:   3    -0.135095508692E+04   -0.77861E-01   -0.20306E+00  2592   0.272E+00    0.227E+00
DAV:   4    -0.135088825825E+04    0.66829E-01   -0.48027E-01  2592   0.144E+00    0.117E+00
DAV:   5    -0.135087804682E+04    0.10211E-01   -0.19838E-01  2440   0.899E-01    0.769E-01
DAV:   6    -0.135087526601E+04    0.27808E-02   -0.97980E-02  2592   0.630E-01    0.513E-01
DAV:   7    -0.135087421532E+04    0.10507E-02   -0.50414E-02  2488   0.406E-01    0.301E-01
DAV:   8    -0.135087405164E+04    0.16368E-03   -0.10145E-02  2600   0.204E-01    0.164E-01
DAV:   9    -0.135087392542E+04    0.12622E-03   -0.30535E-03  2616   0.108E-01    0.942E-02
DAV:  10    -0.135087406321E+04   -0.13779E-03   -0.18071E-03  2448   0.761E-02    0.867E-02
DAV:  11    -0.135087397492E+04    0.88290E-04   -0.76327E-04  2568   0.544E-02    0.316E-02
DAV:  12    -0.135087399036E+04   -0.15441E-04   -0.33655E-04  2520   0.350E-02    0.244E-02
DAV:  13    -0.135087398801E+04    0.23490E-05   -0.77186E-05  2600   0.185E-02    0.123E-02
DAV:  14    -0.135087398950E+04   -0.14877E-05   -0.35669E-05  2544   0.102E-02    0.579E-03
DAV:  15    -0.135087398961E+04   -0.11284E-06   -0.24839E-06  1072   0.544E-03
   4 F= -.13508740E+04 E0= -.13508740E+04  d E =-.362773E+01
 BRION: g(F)=  0.305E+01 g(S)=  0.000E+00 retain N=  3 mean eig= 1.18
 eig:   2.652  0.258  0.633
 bond charge predicted
       N       E                     dE             d eps       ncg     rms          rms(c)
DAV:   1    -0.135156811272E+04   -0.69412E+00   -0.22091E+02  1376   0.205E+01    0.329E+00
DAV:   2    -0.135265714991E+04   -0.10890E+01   -0.11695E+01  2296   0.753E+00    0.164E+00
DAV:   3    -0.135268253861E+04   -0.25389E-01   -0.81383E-01  2624   0.164E+00    0.137E+00
DAV:   4    -0.135264954794E+04    0.32991E-01   -0.17030E-01  2600   0.855E-01    0.732E-01
DAV:   5    -0.135264207437E+04    0.74736E-02   -0.69677E-02  2416   0.531E-01    0.398E-01
DAV:   6    -0.135264242672E+04   -0.35235E-03   -0.37970E-02  2576   0.373E-01    0.263E-01
DAV:   7    -0.135264211379E+04    0.31293E-03   -0.13741E-02  2432   0.217E-01    0.181E-01
DAV:   8    -0.135264208922E+04    0.24571E-04   -0.40902E-03  2536   0.116E-01    0.947E-02
DAV:   9    -0.135264201475E+04    0.74474E-04   -0.10963E-03  2592   0.652E-02    0.589E-02
DAV:  10    -0.135264206925E+04   -0.54504E-04   -0.76700E-04  2464   0.475E-02    0.604E-02
DAV:  11    -0.135264201709E+04    0.52162E-04   -0.33781E-04  2528   0.361E-02    0.208E-02
DAV:  12    -0.135264202476E+04   -0.76743E-05   -0.14808E-04  2456   0.226E-02    0.138E-02
DAV:  13    -0.135264202461E+04    0.15591E-06   -0.25725E-05  2456   0.110E-02    0.764E-03
DAV:  14    -0.135264202467E+04   -0.62151E-07   -0.84013E-06  1704   0.590E-03
   5 F= -.13526420E+04 E0= -.13526420E+04  d E =-.176804E+01
 BRION: g(F)=  0.168E+01 g(S)=  0.000E+00 retain N=  4 mean eig= 1.06
 eig:   1.533  1.533  0.586  0.586
 bond charge predicted
       N       E                     dE             d eps       ncg     rms          rms(c)
DAV:   1    -0.135276253408E+04   -0.12051E+00   -0.32861E+02  1368   0.253E+01    0.352E+00
DAV:   2    -0.135441074270E+04   -0.16482E+01   -0.17281E+01  2296   0.939E+00    0.186E+00
DAV:   3    -0.135446071691E+04   -0.49974E-01   -0.11817E+00  2584   0.190E+00    0.157E+00
DAV:   4    -0.135441780102E+04    0.42916E-01   -0.21700E-01  2576   0.968E-01    0.887E-01
DAV:   5    -0.135440286147E+04    0.14940E-01   -0.10918E-01  2472   0.621E-01    0.441E-01
DAV:   6    -0.135440385709E+04   -0.99562E-03   -0.44537E-02  2552   0.417E-01    0.353E-01
DAV:   7    -0.135440282031E+04    0.10368E-02   -0.21700E-02  2520   0.271E-01    0.195E-01
DAV:   8    -0.135440291361E+04   -0.93302E-04   -0.66507E-03  2568   0.151E-01    0.103E-01
DAV:   9    -0.135440283981E+04    0.73799E-04   -0.11817E-03  2576   0.703E-02    0.700E-02
DAV:  10    -0.135440287439E+04   -0.34577E-04   -0.98911E-04  2320   0.528E-02    0.475E-02
DAV:  11    -0.135440285160E+04    0.22791E-04   -0.28311E-04  2552   0.368E-02    0.188E-02
DAV:  12    -0.135440286534E+04   -0.13740E-04   -0.19626E-04  2472   0.240E-02    0.202E-02
DAV:  13    -0.135440286050E+04    0.48369E-05   -0.51665E-05  2352   0.145E-02    0.797E-03
DAV:  14    -0.135440286112E+04   -0.62041E-06   -0.14420E-05  1848   0.770E-03    0.420E-03
DAV:  15    -0.135440286132E+04   -0.19629E-06   -0.19881E-06  1048   0.475E-03
   6 F= -.13544029E+04 E0= -.13544029E+04  d E =-.176084E+01
 BRION: g(F)=  0.112E+01 g(S)=  0.000E+00 retain N=  5 mean eig= 1.30
 eig:   1.922  1.797  1.797  0.254  0.711
 bond charge predicted
       N       E                     dE             d eps       ncg     rms          rms(c)
DAV:   1    -0.135483639004E+04   -0.43353E+00   -0.73401E+01  1368   0.121E+01    0.181E+00
DAV:   2    -0.135519793344E+04   -0.36154E+00   -0.38308E+00  2296   0.457E+00    0.876E-01
DAV:   3    -0.135521265841E+04   -0.14725E-01   -0.28099E-01  2616   0.902E-01    0.687E-01
DAV:   4    -0.135520412508E+04    0.85333E-02   -0.43022E-02  2536   0.463E-01    0.361E-01
DAV:   5    -0.135520295114E+04    0.11739E-02   -0.18798E-02  2448   0.271E-01    0.170E-01
DAV:   6    -0.135520327398E+04   -0.32284E-03   -0.78981E-03  2576   0.163E-01    0.101E-01
DAV:   7    -0.135520327092E+04    0.30591E-05   -0.15932E-03  2568   0.863E-02    0.717E-02
DAV:   8    -0.135520327307E+04   -0.21523E-05   -0.65507E-04  2616   0.475E-02    0.370E-02
DAV:   9    -0.135520326815E+04    0.49265E-05   -0.16591E-04  2600   0.295E-02    0.201E-02
DAV:  10    -0.135520327578E+04   -0.76270E-05   -0.10150E-04  2568   0.182E-02    0.161E-02
DAV:  11    -0.135520327329E+04    0.24815E-05   -0.27462E-05  2432   0.112E-02    0.738E-03
DAV:  12    -0.135520327396E+04   -0.66856E-06   -0.11469E-05  1800   0.675E-03    0.487E-03
DAV:  13    -0.135520327369E+04    0.27136E-06   -0.18362E-06  1032   0.494E-03
   7 F= -.13552033E+04 E0= -.13552033E+04  d E =-.800412E+00
 BRION: g(F)=  0.598E+00 g(S)=  0.000E+00 retain N=  6 mean eig= 1.61
 eig:   3.187  3.187  1.492  0.492  0.642  0.642
 bond charge predicted
       N       E                     dE             d eps       ncg     rms          rms(c)
DAV:   1    -0.135553506154E+04   -0.33179E+00   -0.10464E+02  1384   0.147E+01    0.182E+00
DAV:   2    -0.135606373180E+04   -0.52867E+00   -0.56116E+00  2296   0.569E+00    0.925E-01
DAV:   3    -0.135609563182E+04   -0.31900E-01   -0.44779E-01  2608   0.114E+00    0.771E-01
DAV:   4    -0.135608912187E+04    0.65100E-02   -0.45517E-02  2608   0.511E-01    0.534E-01
DAV:   5    -0.135608346814E+04    0.56537E-02   -0.28805E-02  2272   0.328E-01    0.214E-01
DAV:   6    -0.135608446379E+04   -0.99565E-03   -0.15446E-02  2504   0.237E-01    0.211E-01
DAV:   7    -0.135608411214E+04    0.35165E-03   -0.70534E-03  2488   0.156E-01    0.128E-01
DAV:   8    -0.135608405106E+04    0.61084E-04   -0.28572E-03  2568   0.102E-01    0.645E-02
DAV:   9    -0.135608403794E+04    0.13122E-04   -0.43934E-04  2488   0.469E-02    0.459E-02
DAV:  10    -0.135608404470E+04   -0.67623E-05   -0.24301E-04  2544   0.276E-02    0.227E-02
DAV:  11    -0.135608404553E+04   -0.83086E-06   -0.75940E-05  2496   0.196E-02    0.120E-02
DAV:  12    -0.135608404698E+04   -0.14483E-05   -0.30843E-05  2440   0.123E-02    0.126E-02
DAV:  13    -0.135608404546E+04    0.15239E-05   -0.18752E-05  1912   0.778E-03    0.638E-03
DAV:  14    -0.135608404513E+04    0.32783E-06   -0.29285E-06  1160   0.530E-03
   8 F= -.13560840E+04 E0= -.13560840E+04  d E =-.880771E+00
 BRION: g(F)=  0.477E+00 g(S)=  0.000E+00 retain N=  7 mean eig= 2.32
 eig:   5.276  5.276  2.149  1.207  1.207  0.200  0.924
 bond charge predicted
       N       E                     dE             d eps       ncg     rms          rms(c)
DAV:   1    -0.135638638160E+04   -0.30234E+00   -0.96022E+01  1384   0.140E+01    0.175E+00
DAV:   2    -0.135689038920E+04   -0.50401E+00   -0.53225E+00  2288   0.558E+00    0.889E-01
DAV:   3    -0.135691870617E+04   -0.28317E-01   -0.41929E-01  2608   0.107E+00    0.704E-01
DAV:   4    -0.135691070437E+04    0.80018E-02   -0.44894E-02  2584   0.511E-01    0.455E-01
DAV:   5    -0.135690623097E+04    0.44734E-02   -0.21553E-02  2360   0.297E-01    0.179E-01
DAV:   6    -0.135690687583E+04   -0.64486E-03   -0.11448E-02  2496   0.201E-01    0.137E-01
DAV:   7    -0.135690686235E+04    0.13482E-04   -0.42702E-03  2504   0.128E-01    0.972E-02
DAV:   8    -0.135690686713E+04   -0.47825E-05   -0.17395E-03  2616   0.775E-02    0.560E-02
DAV:   9    -0.135690684347E+04    0.23656E-04   -0.34956E-04  2504   0.405E-02    0.395E-02
DAV:  10    -0.135690684899E+04   -0.55133E-05   -0.25270E-04  2552   0.290E-02    0.235E-02
DAV:  11    -0.135690684707E+04    0.19197E-05   -0.86895E-05  2440   0.204E-02    0.105E-02
DAV:  12    -0.135690684933E+04   -0.22619E-05   -0.33205E-05  2376   0.124E-02    0.113E-02
DAV:  13    -0.135690684786E+04    0.14653E-05   -0.15738E-05  1824   0.769E-03    0.506E-03
DAV:  14    -0.135690684788E+04   -0.16167E-07   -0.49247E-06  1360   0.571E-03
   9 F= -.13569068E+04 E0= -.13569068E+04  d E =-.822803E+00
 BRION: g(F)=  0.376E+00 g(S)=  0.000E+00 retain N=  8 mean eig= 2.73
 eig:   6.690  6.690  3.088  1.895  1.895  0.050  0.755  0.755
 bond charge predicted
       N       E                     dE             d eps       ncg     rms          rms(c)
DAV:   1    -0.135722196091E+04   -0.31511E+00   -0.59447E+01  1384   0.109E+01    0.132E+00
DAV:   2    -0.135753776427E+04   -0.31580E+00   -0.33468E+00  2288   0.443E+00    0.681E-01
DAV:   3    -0.135755616866E+04   -0.18404E-01   -0.26648E-01  2592   0.843E-01    0.550E-01
DAV:   4    -0.135755169482E+04    0.44738E-02   -0.25939E-02  2584   0.391E-01    0.376E-01
DAV:   5    -0.135754819422E+04    0.35006E-02   -0.13767E-02  2312   0.237E-01    0.143E-01
DAV:   6    -0.135754862923E+04   -0.43501E-03   -0.83123E-03  2464   0.168E-01    0.119E-01
DAV:   7    -0.135754860698E+04    0.22241E-04   -0.30912E-03  2488   0.105E-01    0.824E-02
DAV:   8    -0.135754859456E+04    0.12420E-04   -0.11938E-03  2616   0.661E-02    0.456E-02
DAV:   9    -0.135754857952E+04    0.15041E-04   -0.24042E-04  2424   0.334E-02    0.323E-02
DAV:  10    -0.135754858371E+04   -0.41825E-05   -0.12886E-04  2440   0.210E-02    0.178E-02
DAV:  11    -0.135754858392E+04   -0.21387E-06   -0.47810E-05  2376   0.152E-02    0.928E-03
DAV:  12    -0.135754858483E+04   -0.91143E-06   -0.19526E-05  2280   0.100E-02    0.936E-03
DAV:  13    -0.135754858394E+04    0.89202E-06   -0.11073E-05  1696   0.647E-03    0.448E-03
DAV:  14    -0.135754858381E+04    0.12915E-06   -0.23425E-06  1056   0.513E-03
  10 F= -.13575486E+04 E0= -.13575486E+04  d E =-.641736E+00
 BRION: g(F)=  0.304E+00 g(S)=  0.000E+00 retain N=  7 mean eig= 2.75
 eig:   4.246  4.246  3.858  3.858  1.028  1.028  1.005
 bond charge predicted
       N       E                     dE             d eps       ncg     rms          rms(c)
DAV:   1    -0.135784844137E+04   -0.29986E+00   -0.50390E+01  1392   0.101E+01    0.124E+00
DAV:   2    -0.135812049491E+04   -0.27205E+00   -0.28917E+00  2304   0.415E+00    0.638E-01
DAV:   3    -0.135813663995E+04   -0.16145E-01   -0.23353E-01  2584   0.786E-01    0.521E-01
DAV:   4    -0.135813284004E+04    0.37999E-02   -0.23648E-02  2584   0.370E-01    0.357E-01
DAV:   5    -0.135812977433E+04    0.30657E-02   -0.11745E-02  2344   0.222E-01    0.143E-01
DAV:   6    -0.135813010452E+04   -0.33020E-03   -0.77872E-03  2424   0.167E-01    0.115E-01
DAV:   7    -0.135813007968E+04    0.24841E-04   -0.32988E-03  2432   0.107E-01    0.857E-02
DAV:   8    -0.135813006514E+04    0.14546E-04   -0.12935E-03  2616   0.679E-02    0.477E-02
DAV:   9    -0.135813004771E+04    0.17426E-04   -0.28854E-04  2464   0.351E-02    0.327E-02
DAV:  10    -0.135813005184E+04   -0.41242E-05   -0.14062E-04  2480   0.219E-02    0.213E-02
DAV:  11    -0.135813005111E+04    0.72565E-06   -0.58837E-05  2376   0.163E-02    0.126E-02
DAV:  12    -0.135813005094E+04    0.17250E-06   -0.25405E-05  2296   0.115E-02    0.110E-02
DAV:  13    -0.135813005002E+04    0.91875E-06   -0.18503E-05  1880   0.782E-03    0.499E-03
DAV:  14    -0.135813004990E+04    0.12295E-06   -0.31645E-06  1176   0.524E-03
  11 F= -.13581300E+04 E0= -.13581300E+04  d E =-.581466E+00
 BRION: g(F)=  0.276E+00 g(S)=  0.000E+00 retain N=  8 mean eig= 3.13
 eig:   6.095  6.095  4.135  4.135  1.233  1.233  1.073  1.073
 bond charge predicted
       N       E                     dE             d eps       ncg     rms          rms(c)
DAV:   1    -0.135839564903E+04   -0.26560E+00   -0.42079E+01  1400   0.928E+00    0.109E+00
DAV:   2    -0.135862252941E+04   -0.22688E+00   -0.24018E+00  2296   0.379E+00    0.569E-01
DAV:   3    -0.135863592395E+04   -0.13395E-01   -0.19304E-01  2584   0.715E-01    0.460E-01
DAV:   4    -0.135863287122E+04    0.30527E-02   -0.18580E-02  2584   0.330E-01    0.324E-01
DAV:   5    -0.135863016033E+04    0.27109E-02   -0.90454E-03  2352   0.192E-01    0.132E-01
DAV:   6    -0.135863030212E+04   -0.14179E-03   -0.63920E-03  2384   0.148E-01    0.923E-02
DAV:   7    -0.135863034009E+04   -0.37971E-04   -0.26648E-03  2432   0.951E-02    0.724E-02
DAV:   8    -0.135863032697E+04    0.13128E-04   -0.91119E-04  2608   0.589E-02    0.417E-02
DAV:   9    -0.135863031368E+04    0.13289E-04   -0.23380E-04  2496   0.313E-02    0.273E-02
DAV:  10    -0.135863031728E+04   -0.36060E-05   -0.92222E-05  2512   0.184E-02    0.178E-02
DAV:  11    -0.135863031729E+04   -0.77125E-08   -0.42157E-05  2344   0.132E-02    0.106E-02
DAV:  12    -0.135863031697E+04    0.32454E-06   -0.18194E-05  2200   0.997E-03    0.905E-03
DAV:  13    -0.135863031637E+04    0.59356E-06   -0.11801E-05  1760   0.641E-03    0.477E-03
DAV:  14    -0.135863031612E+04    0.25648E-06   -0.23911E-06  1032   0.487E-03
  12 F= -.13586303E+04 E0= -.13586303E+04  d E =-.500266E+00
 BRION: g(F)=  0.251E+00 g(S)=  0.000E+00 retain N=  5 mean eig= 3.99
 eig:   7.593  7.593  1.761  1.761  1.240
 bond charge predicted
       N       E                     dE             d eps       ncg     rms          rms(c)
DAV:   1    -0.135887688198E+04   -0.24657E+00   -0.33006E+01  1384   0.817E+00    0.937E-01
DAV:   2    -0.135905087342E+04   -0.17399E+00   -0.18282E+00  2312   0.325E+00    0.483E-01
DAV:   3    -0.135906112503E+04   -0.10252E-01   -0.14349E-01  2576   0.613E-01    0.391E-01
DAV:   4    -0.135905915144E+04    0.19736E-02   -0.13487E-02  2584   0.276E-01    0.281E-01
DAV:   5    -0.135905714377E+04    0.20077E-02   -0.58715E-03  2344   0.159E-01    0.122E-01
DAV:   6    -0.135905713692E+04    0.68432E-05   -0.47805E-03  2328   0.129E-01    0.728E-02
DAV:   7    -0.135905720934E+04   -0.72421E-04   -0.22411E-03  2432   0.855E-02    0.661E-02
DAV:   8    -0.135905719130E+04    0.18044E-04   -0.58597E-04  2576   0.495E-02    0.415E-02
DAV:   9    -0.135905717537E+04    0.15928E-04   -0.22335E-04  2480   0.284E-02    0.231E-02
DAV:  10    -0.135905718065E+04   -0.52734E-05   -0.83304E-05  2504   0.176E-02    0.161E-02
DAV:  11    -0.135905718080E+04   -0.15531E-06   -0.28276E-05  2328   0.113E-02    0.102E-02
DAV:  12    -0.135905717992E+04    0.87806E-06   -0.19561E-05  2120   0.956E-03    0.810E-03
DAV:  13    -0.135905717950E+04    0.42097E-06   -0.10186E-05  1760   0.652E-03    0.463E-03
DAV:  14    -0.135905717926E+04    0.23970E-06   -0.21862E-06  1024   0.464E-03
  13 F= -.13590572E+04 E0= -.13590572E+04  d E =-.426863E+00
 BRION: g(F)=  0.242E+00 g(S)=  0.000E+00 retain N=  5 mean eig= 3.70
 eig:   6.997  6.997  1.271  1.607  1.607
 bond charge predicted
       N       E                     dE             d eps       ncg     rms          rms(c)
DAV:   1    -0.135927497714E+04   -0.21780E+00   -0.19684E+01  1376   0.629E+00    0.703E-01
DAV:   2    -0.135937635157E+04   -0.10137E+00   -0.10623E+00  2304   0.246E+00    0.363E-01
DAV:   3    -0.135938234292E+04   -0.59914E-02   -0.83104E-02  2576   0.469E-01    0.293E-01
DAV:   4    -0.135938125453E+04    0.10884E-02   -0.75142E-03  2576   0.204E-01    0.212E-01
DAV:   5    -0.135938007805E+04    0.11765E-02   -0.34183E-03  2336   0.119E-01    0.890E-02
DAV:   6    -0.135938008468E+04   -0.66295E-05   -0.26493E-03  2304   0.943E-02    0.546E-02
DAV:   7    -0.135938012033E+04   -0.35650E-04   -0.11943E-03  2432   0.623E-02    0.473E-02
DAV:   8    -0.135938011134E+04    0.89870E-05   -0.32562E-04  2552   0.367E-02    0.290E-02
DAV:   9    -0.135938010527E+04    0.60754E-05   -0.11465E-04  2488   0.208E-02    0.173E-02
DAV:  10    -0.135938010752E+04   -0.22505E-05   -0.39187E-05  2504   0.121E-02    0.119E-02
DAV:  11    -0.135938010746E+04    0.55341E-07   -0.14103E-05  1872   0.840E-03    0.759E-03
DAV:  12    -0.135938010704E+04    0.42786E-06   -0.10363E-05  1672   0.725E-03    0.607E-03
DAV:  13    -0.135938010657E+04    0.46389E-06   -0.29348E-06  1064   0.539E-03
  14 F= -.13593801E+04 E0= -.13593801E+04  d E =-.322927E+00
 BRION: g(F)=  0.235E+00 g(S)=  0.000E+00 retain N=  5 mean eig= 2.76
 eig:   4.543  4.543  1.613  1.613  1.490
 bond charge predicted
       N       E                     dE             d eps       ncg     rms          rms(c)
DAV:   1    -0.135960557967E+04   -0.22547E+00   -0.14781E+01  1368   0.548E+00    0.624E-01
DAV:   2    -0.135968248375E+04   -0.76904E-01   -0.80749E-01  2288   0.214E+00    0.317E-01
DAV:   3    -0.135968718810E+04   -0.47043E-02   -0.64946E-02  2576   0.428E-01    0.255E-01
DAV:   4    -0.135968635818E+04    0.82992E-03   -0.61200E-03  2568   0.184E-01    0.181E-01
DAV:   5    -0.135968554676E+04    0.81142E-03   -0.25468E-03  2376   0.104E-01    0.790E-02
DAV:   6    -0.135968553684E+04    0.99257E-05   -0.19128E-03  2296   0.824E-02    0.468E-02
DAV:   7    -0.135968556694E+04   -0.30106E-04   -0.90438E-04  2440   0.549E-02    0.422E-02
DAV:   8    -0.135968556016E+04    0.67884E-05   -0.25133E-04  2544   0.317E-02    0.275E-02
DAV:   9    -0.135968555383E+04    0.63256E-05   -0.97582E-05  2448   0.188E-02    0.152E-02
DAV:  10    -0.135968555580E+04   -0.19714E-05   -0.35838E-05  2392   0.115E-02    0.110E-02
DAV:  11    -0.135968555516E+04    0.63986E-06   -0.81823E-06  1488   0.743E-03
  15 F= -.13596856E+04 E0= -.13596856E+04  d E =-.305449E+00
 BRION: g(F)=  0.230E+00 g(S)=  0.000E+00 retain N=  6 mean eig= 2.93
 eig:   5.238  5.238  2.247  1.823  1.823  1.193
 bond charge predicted
       N       E                     dE             d eps       ncg     rms          rms(c)
DAV:   1    -0.135988098475E+04   -0.19543E+00   -0.13589E+01  1344   0.520E+00    0.576E-01
DAV:   2    -0.135994966193E+04   -0.68677E-01   -0.71917E-01  2272   0.202E+00    0.292E-01
DAV:   3    -0.135995388222E+04   -0.42203E-02   -0.56893E-02  2568   0.406E-01    0.237E-01
DAV:   4    -0.135995323700E+04    0.64522E-03   -0.50605E-03  2584   0.166E-01    0.173E-01
DAV:   5    -0.135995245846E+04    0.77854E-03   -0.23107E-03  2312   0.982E-02    0.733E-02
DAV:   6    -0.135995247275E+04   -0.14299E-04   -0.18239E-03  2272   0.784E-02    0.481E-02
DAV:   7    -0.135995249281E+04   -0.20051E-04   -0.84379E-04  2424   0.522E-02    0.406E-02
DAV:   8    -0.135995248561E+04    0.71947E-05   -0.23880E-04  2536   0.312E-02    0.257E-02
DAV:   9    -0.135995247987E+04    0.57444E-05   -0.84116E-05  2432   0.177E-02    0.148E-02
DAV:  10    -0.135995248142E+04   -0.15510E-05   -0.29710E-05  2416   0.104E-02    0.959E-03
DAV:  11    -0.135995248147E+04   -0.55952E-07   -0.74534E-06  1504   0.722E-03
  16 F= -.13599525E+04 E0= -.13599525E+04  d E =-.266926E+00
 BRION: g(F)=  0.231E+00 g(S)=  0.000E+00 retain N=  7 mean eig= 3.62
 eig:   7.976  7.976  3.801  1.825  1.825  0.969  0.969
 bond charge predicted
       N       E                     dE             d eps       ncg     rms          rms(c)
DAV:   1    -0.136014364701E+04   -0.19117E+00   -0.67807E+00  1376   0.367E+00    0.415E-01
DAV:   2    -0.136017878397E+04   -0.35137E-01   -0.36910E-01  2296   0.143E+00    0.210E-01
DAV:   3    -0.136018097967E+04   -0.21957E-02   -0.29936E-02  2560   0.285E-01    0.167E-01
DAV:   4    -0.136018062245E+04    0.35721E-03   -0.27564E-03  2576   0.124E-01    0.119E-01
DAV:   5    -0.136018027240E+04    0.35005E-03   -0.11010E-03  2392   0.693E-02    0.545E-02
DAV:   6    -0.136018025087E+04    0.21536E-04   -0.82741E-04  2288   0.546E-02    0.305E-02
DAV:   7    -0.136018026924E+04   -0.18377E-04   -0.44103E-04  2448   0.382E-02    0.294E-02
DAV:   8    -0.136018026681E+04    0.24308E-05   -0.11608E-04  2528   0.219E-02    0.215E-02
DAV:   9    -0.136018026136E+04    0.54489E-05   -0.51363E-05  2336   0.135E-02    0.107E-02
DAV:  10    -0.136018026239E+04   -0.10290E-05   -0.21284E-05  2056   0.879E-03    0.699E-03
DAV:  11    -0.136018026233E+04    0.66328E-07   -0.28795E-06  1152   0.575E-03
  17 F= -.13601803E+04 E0= -.13601803E+04  d E =-.227781E+00
 BRION: g(F)=  0.227E+00 g(S)=  0.000E+00 retain N=  6 mean eig= 2.73
 eig:   5.339  5.339  3.855  0.084  0.880  0.880
 bond charge predicted
       N       E                     dE             d eps       ncg     rms          rms(c)
DAV:   1    -0.136035299241E+04   -0.17273E+00   -0.51949E+00  1376   0.324E+00    0.373E-01
DAV:   2    -0.136038014008E+04   -0.27148E-01   -0.28727E-01  2288   0.126E+00    0.187E-01
DAV:   3    -0.136038190001E+04   -0.17599E-02   -0.23879E-02  2568   0.255E-01    0.152E-01
DAV:   4    -0.136038163151E+04    0.26850E-03   -0.22171E-03  2624   0.113E-01    0.110E-01
DAV:   5    -0.136038133571E+04    0.29580E-03   -0.97787E-04  2376   0.653E-02    0.494E-02
DAV:   6    -0.136038133006E+04    0.56504E-05   -0.74172E-04  2288   0.514E-02    0.331E-02
DAV:   7    -0.136038133618E+04   -0.61215E-05   -0.36128E-04  2440   0.356E-02    0.277E-02
DAV:   8    -0.136038133427E+04    0.19141E-05   -0.12191E-04  2520   0.213E-02    0.189E-02
DAV:   9    -0.136038133043E+04    0.38346E-05   -0.41304E-05  2392   0.123E-02    0.101E-02
DAV:  10    -0.136038133093E+04   -0.49584E-06   -0.13324E-05  1872   0.750E-03    0.636E-03
DAV:  11    -0.136038133088E+04    0.48007E-07   -0.14947E-06   984   0.497E-03
  18 F= -.13603813E+04 E0= -.13603813E+04  d E =-.201069E+00
 BRION: g(F)=  0.228E+00 g(S)=  0.000E+00 retain N=  7 mean eig= 3.14
 eig:   6.478  6.478  3.916  2.463  0.922  0.922  0.797
 bond charge predicted
       N       E                     dE             d eps       ncg     rms          rms(c)
DAV:   1    -0.136044008863E+04   -0.58758E-01   -0.43994E-01  1392   0.938E-01    0.111E-01
DAV:   2    -0.136044239955E+04   -0.23109E-02   -0.24546E-02  2288   0.360E-01    0.554E-02
DAV:   3    -0.136044254414E+04   -0.14459E-03   -0.20526E-03  2600   0.755E-02    0.445E-02
DAV:   4    -0.136044251361E+04    0.30537E-04   -0.18785E-04  2608   0.340E-02    0.316E-02
DAV:   5    -0.136044248373E+04    0.29878E-04   -0.94614E-05  2360   0.215E-02    0.129E-02
DAV:   6    -0.136044248484E+04   -0.11134E-05   -0.75204E-05  2304   0.165E-02    0.104E-02
DAV:   7    -0.136044248526E+04   -0.42327E-06   -0.28892E-05  2320   0.103E-02    0.824E-03
DAV:   8    -0.136044248484E+04    0.42673E-06   -0.85778E-06  1640   0.622E-03
  19 F= -.13604425E+04 E0= -.13604425E+04  d E =-.611540E-01
 BRION: g(F)=  0.229E+00 g(S)=  0.000E+00 retain N=  7 mean eig= 2.73
 eig:   6.283  6.283  1.353  1.760  1.760  1.274  0.369
 bond charge predicted
       N       E                     dE             d eps       ncg     rms          rms(c)
DAV:   1    -0.136034822724E+04    0.94258E-01   -0.10630E+00  1392   0.148E+00    0.188E-01
DAV:   2    -0.136035413502E+04   -0.59078E-02   -0.63829E-02  2320   0.603E-01    0.935E-02
DAV:   3    -0.136035452507E+04   -0.39005E-03   -0.54875E-03  2560   0.123E-01    0.787E-02
DAV:   4    -0.136035445111E+04    0.73961E-04   -0.54693E-04  2608   0.569E-02    0.554E-02
DAV:   5    -0.136035438068E+04    0.70434E-04   -0.31040E-04  2312   0.360E-02    0.229E-02
DAV:   6    -0.136035438882E+04   -0.81430E-05   -0.19127E-04  2392   0.262E-02    0.216E-02
DAV:   7    -0.136035438567E+04    0.31499E-05   -0.82384E-05  2448   0.175E-02    0.144E-02
DAV:   8    -0.136035438530E+04    0.37019E-06   -0.41107E-05  2480   0.117E-02    0.777E-03
DAV:   9    -0.136035438451E+04    0.79365E-06   -0.42467E-06  1264   0.576E-03
  20 F= -.13603544E+04 E0= -.13603544E+04  d E =0.881003E-01
 BRION: g(F)=  0.227E+00 g(S)=  0.000E+00 retain N=  7 mean eig= 2.60
 eig:   4.217  4.217  4.106  4.106  0.597  0.597  0.353
