 running on  160 total cores
 distrk:  each k-point on  160 cores,    1 groups
 distr:  one band on   20 cores,    8 groups
 using from now: INCAR     
 vasp.5.4.4.18Apr17-6-g9f103f2a35 (build May 01 2020 14:22:42) gamma-only       
  
 POSCAR found type information on POSCAR  O  La Zr Li Al
 POSCAR found :  5 types and     188 ions
 scaLAPACK will be used
 LDA part: xc-table for Pade appr. of Perdew
 POSCAR, INCAR and KPOINTS ok, starting setup
 FFT: planning ...
 WAVECAR not read
 WARNING: random wavefunctions but no delay for mixing, default for NELMDL
 entering main loop
       N       E                     dE             d eps       ncg     rms          rms(c)
DAV:   1     0.253309928871E+05    0.25331E+05   -0.42014E+05  1584   0.253E+03
DAV:   2     0.938008370181E+04   -0.15951E+05   -0.14722E+05  1424   0.705E+02
DAV:   3     0.266482228845E+04   -0.67153E+04   -0.61139E+04  1480   0.356E+02
DAV:   4    -0.365001633181E+03   -0.30298E+04   -0.28256E+04  2048   0.222E+02
DAV:   5    -0.139569036444E+04   -0.10307E+04   -0.98671E+03  2536   0.141E+02    0.116E+02
DAV:   6    -0.128927806113E+04    0.10641E+03   -0.14846E+03  2440   0.673E+01    0.502E+01
DAV:   7    -0.131222586728E+04   -0.22948E+02   -0.41490E+02  2552   0.350E+01    0.269E+01
DAV:   8    -0.131517185624E+04   -0.29460E+01   -0.21748E+02  2536   0.263E+01    0.216E+01
DAV:   9    -0.131412442395E+04    0.10474E+01   -0.31108E+01  2592   0.129E+01    0.101E+01
DAV:  10    -0.131361706895E+04    0.50736E+00   -0.17805E+01  2560   0.687E+00    0.618E+00
DAV:  11    -0.131400859552E+04   -0.39153E+00   -0.46268E+00  2608   0.407E+00    0.500E+00
DAV:  12    -0.131414915614E+04   -0.14056E+00   -0.22534E+00  2360   0.271E+00    0.424E+00
DAV:  13    -0.131396993256E+04    0.17922E+00   -0.16318E+00  2448   0.243E+00    0.141E+00
DAV:  14    -0.131398556626E+04   -0.15634E-01   -0.29821E-01  2568   0.120E+00    0.128E+00
DAV:  15    -0.131398071215E+04    0.48541E-02   -0.86192E-02  2520   0.610E-01    0.910E-01
DAV:  16    -0.131397856884E+04    0.21433E-02   -0.29147E-02  2616   0.311E-01    0.548E-01
DAV:  17    -0.131397895642E+04   -0.38758E-03   -0.92829E-03  2624   0.186E-01    0.447E-01
DAV:  18    -0.131397826496E+04    0.69146E-03   -0.45529E-03  2504   0.114E-01    0.183E-01
DAV:  19    -0.131397824897E+04    0.15986E-04   -0.20123E-03  2576   0.872E-02    0.162E-01
DAV:  20    -0.131397812321E+04    0.12576E-03   -0.15004E-03  2456   0.634E-02    0.553E-02
DAV:  21    -0.131397815316E+04   -0.29952E-04   -0.39889E-04  2528   0.444E-02    0.460E-02
DAV:  22    -0.131397815255E+04    0.61009E-06   -0.15509E-04  2584   0.204E-02    0.191E-02
DAV:  23    -0.131397816121E+04   -0.86569E-05   -0.47105E-05  2336   0.135E-02    0.141E-02
DAV:  24    -0.131397816250E+04   -0.12937E-05   -0.18305E-05  1552   0.720E-03    0.364E-03
DAV:  25    -0.131397816198E+04    0.52023E-06   -0.61044E-06  1048   0.666E-03
   1 F= -.13139782E+04 E0= -.13139424E+04  d E =-.131398E+04
 BRION: g(F)=  0.734E+02 g(S)=  0.000E+00
 bond charge predicted
       N       E                     dE             d eps       ncg     rms          rms(c)
DAV:   1    -0.125309588573E+04    0.60882E+02   -0.10496E+04  1760   0.158E+02    0.380E+01
DAV:   2    -0.134138633527E+04   -0.88290E+02   -0.10157E+03  2576   0.710E+01    0.182E+01
DAV:   3    -0.133856310930E+04    0.28232E+01   -0.59108E+01  2608   0.193E+01    0.117E+01
DAV:   4    -0.133567433836E+04    0.28888E+01   -0.23870E+01  2424   0.102E+01    0.546E+00
DAV:   5    -0.133563936514E+04    0.34973E-01   -0.72647E+00  2520   0.565E+00    0.419E+00
DAV:   6    -0.133548805266E+04    0.15131E+00   -0.34869E+00  2616   0.328E+00    0.198E+00
DAV:   7    -0.133545446382E+04    0.33589E-01   -0.46394E-01  2536   0.186E+00    0.115E+00
DAV:   8    -0.133545470501E+04   -0.24119E-03   -0.45321E-01  2592   0.124E+00    0.751E-01
DAV:   9    -0.133545831117E+04   -0.36062E-02   -0.92943E-02  2536   0.623E-01    0.649E-01
DAV:  10    -0.133545568394E+04    0.26272E-02   -0.43941E-02  2528   0.363E-01    0.351E-01
DAV:  11    -0.133545547515E+04    0.20879E-03   -0.26533E-02  2528   0.282E-01    0.177E-01
DAV:  12    -0.133545558687E+04   -0.11172E-03   -0.51243E-03  2344   0.165E-01    0.135E-01
DAV:  13    -0.133545557036E+04    0.16506E-04   -0.31603E-03  2456   0.940E-02    0.645E-02
DAV:  14    -0.133545558079E+04   -0.10421E-04   -0.10043E-03  2608   0.578E-02    0.262E-02
DAV:  15    -0.133545559063E+04   -0.98475E-05   -0.15828E-04  2560   0.308E-02    0.177E-02
DAV:  16    -0.133545559241E+04   -0.17781E-05   -0.73640E-05  2616   0.161E-02    0.150E-02
DAV:  17    -0.133545559132E+04    0.10912E-05   -0.27763E-05  2376   0.988E-03    0.565E-03
DAV:  18    -0.133545559160E+04   -0.28119E-06   -0.38787E-06  1256   0.549E-03
   2 F= -.13354556E+04 E0= -.13354556E+04  d E =-.214774E+02
 BRION: g(F)=  0.121E+03 g(S)=  0.000E+00 retain N=  1 mean eig= 0.41
 eig:   0.413
 bond charge predicted
       N       E                     dE             d eps       ncg     rms          rms(c)
DAV:   1    -0.131786019126E+04    0.17595E+02   -0.28313E+03  1384   0.658E+01    0.244E+01
DAV:   2    -0.135008726189E+04   -0.32227E+02   -0.42706E+02  2560   0.330E+01    0.232E+01
DAV:   3    -0.134685999416E+04    0.32273E+01   -0.49682E+01  2568   0.138E+01    0.163E+01
DAV:   4    -0.134458485434E+04    0.22751E+01   -0.44768E+01  2208   0.712E+00    0.807E+00
DAV:   5    -0.134524364277E+04   -0.65879E+00   -0.82069E+00  2480   0.458E+00    0.842E+00
DAV:   6    -0.134399312176E+04    0.12505E+01   -0.12786E+01  2456   0.375E+00    0.187E+00
DAV:   7    -0.134406645785E+04   -0.73336E-01   -0.15477E+00  2408   0.276E+00    0.153E+00
DAV:   8    -0.134404609389E+04    0.20364E-01   -0.49117E-01  2592   0.115E+00    0.608E-01
DAV:   9    -0.134404723424E+04   -0.11403E-02   -0.86135E-02  2520   0.559E-01    0.404E-01
DAV:  10    -0.134404732892E+04   -0.94680E-04   -0.32095E-02  2512   0.324E-01    0.233E-01
DAV:  11    -0.134404766232E+04   -0.33340E-03   -0.10118E-02  2592   0.197E-01    0.222E-01
DAV:  12    -0.134404701922E+04    0.64310E-03   -0.28677E-03  2624   0.107E-01    0.123E-01
DAV:  13    -0.134404695282E+04    0.66403E-04   -0.34465E-03  2512   0.938E-02    0.403E-02
DAV:  14    -0.134404698152E+04   -0.28700E-04   -0.49523E-04  2560   0.466E-02    0.348E-02
DAV:  15    -0.134404697890E+04    0.26215E-05   -0.62533E-05  2608   0.193E-02    0.259E-02
DAV:  16    -0.134404697451E+04    0.43900E-05   -0.88423E-05  2296   0.158E-02    0.140E-02
DAV:  17    -0.134404697486E+04   -0.35115E-06   -0.22480E-05  2344   0.105E-02    0.722E-03
DAV:  18    -0.134404697419E+04    0.66677E-06   -0.73230E-06  1848   0.556E-03
   3 F= -.13440470E+04 E0= -.13440470E+04  d E =-.859138E+01
 BRION: g(F)=  0.159E+02 g(S)=  0.000E+00 retain N=  2 mean eig= 1.63
 eig:   0.248  3.004
 bond charge predicted
       N       E                     dE             d eps       ncg     rms          rms(c)
DAV:   1    -0.134467445311E+04   -0.62748E+00   -0.64299E+02  1384   0.328E+01    0.742E+00
DAV:   2    -0.134860450723E+04   -0.39301E+01   -0.46271E+01  2400   0.139E+01    0.379E+00
DAV:   3    -0.134852431869E+04    0.80189E-01   -0.31545E+00  2552   0.417E+00    0.316E+00
DAV:   4    -0.134836933323E+04    0.15499E+00   -0.12236E+00  2368   0.186E+00    0.145E+00
DAV:   5    -0.134835772419E+04    0.11609E-01   -0.35301E-01  2440   0.116E+00    0.128E+00
DAV:   6    -0.134833748342E+04    0.20241E-01   -0.25012E-01  2504   0.970E-01    0.550E-01
DAV:   7    -0.134833966217E+04   -0.21788E-02   -0.10653E-01  2456   0.559E-01    0.507E-01
DAV:   8    -0.134833870497E+04    0.95720E-03   -0.21798E-02  2568   0.268E-01    0.329E-01
DAV:   9    -0.134833709053E+04    0.16144E-02   -0.93326E-03  2504   0.177E-01    0.145E-01
DAV:  10    -0.134833763215E+04   -0.54163E-03   -0.83232E-03  2488   0.140E-01    0.142E-01
DAV:  11    -0.134833730770E+04    0.32445E-03   -0.13955E-03  2544   0.813E-02    0.588E-02
DAV:  12    -0.134833733492E+04   -0.27223E-04   -0.77982E-04  2528   0.455E-02    0.224E-02
DAV:  13    -0.134833734190E+04   -0.69760E-05   -0.73617E-05  2616   0.201E-02    0.151E-02
DAV:  14    -0.134833734228E+04   -0.37577E-06   -0.21652E-05  2312   0.902E-03    0.983E-03
DAV:  15    -0.134833734205E+04    0.23011E-06   -0.76575E-06  1608   0.597E-03
   4 F= -.13483373E+04 E0= -.13483373E+04  d E =-.429037E+01
 BRION: g(F)=  0.609E+01 g(S)=  0.000E+00 retain N=  3 mean eig= 2.13
 eig:   5.645  0.378  0.378
 bond charge predicted
       N       E                     dE             d eps       ncg     rms          rms(c)
DAV:   1    -0.134975893551E+04   -0.14216E+01   -0.25499E+02  1384   0.215E+01    0.373E+00
DAV:   2    -0.135107333239E+04   -0.13144E+01   -0.14169E+01  2288   0.813E+00    0.199E+00
DAV:   3    -0.135109078387E+04   -0.17451E-01   -0.96471E-01  2616   0.174E+00    0.160E+00
DAV:   4    -0.135104309778E+04    0.47686E-01   -0.28907E-01  2504   0.106E+00    0.714E-01
DAV:   5    -0.135104092040E+04    0.21774E-02   -0.82640E-02  2488   0.587E-01    0.510E-01
DAV:   6    -0.135104028317E+04    0.63723E-03   -0.63507E-02  2560   0.426E-01    0.244E-01
DAV:   7    -0.135104003503E+04    0.24814E-03   -0.12068E-02  2344   0.219E-01    0.203E-01
DAV:   8    -0.135103987717E+04    0.15786E-03   -0.54414E-03  2376   0.120E-01    0.931E-02
DAV:   9    -0.135103987797E+04   -0.79870E-06   -0.18773E-03  2592   0.775E-02    0.611E-02
DAV:  10    -0.135103985934E+04    0.18637E-04   -0.54644E-04  2520   0.499E-02    0.387E-02
DAV:  11    -0.135103986914E+04   -0.98044E-05   -0.32495E-04  2520   0.324E-02    0.194E-02
DAV:  12    -0.135103986947E+04   -0.33219E-06   -0.69295E-05  2480   0.156E-02    0.113E-02
DAV:  13    -0.135103987036E+04   -0.88601E-06   -0.23888E-05  2400   0.989E-03    0.756E-03
DAV:  14    -0.135103987020E+04    0.15995E-06   -0.62785E-06  1432   0.618E-03
   5 F= -.13510399E+04 E0= -.13510399E+04  d E =-.270253E+01
 BRION: g(F)=  0.331E+01 g(S)=  0.000E+00 retain N=  4 mean eig= 1.71
 eig:   5.633  0.226  0.486  0.486
 bond charge predicted
       N       E                     dE             d eps       ncg     rms          rms(c)
DAV:   1    -0.135204271025E+04   -0.10028E+01   -0.18259E+02  1352   0.182E+01    0.281E+00
DAV:   2    -0.135290145432E+04   -0.85874E+00   -0.91477E+00  2296   0.671E+00    0.148E+00
DAV:   3    -0.135291552030E+04   -0.14066E-01   -0.58980E-01  2608   0.135E+00    0.122E+00
DAV:   4    -0.135288570510E+04    0.29815E-01   -0.15138E-01  2504   0.769E-01    0.586E-01
DAV:   5    -0.135288266433E+04    0.30408E-02   -0.58469E-02  2472   0.466E-01    0.408E-01
DAV:   6    -0.135288169579E+04    0.96853E-03   -0.31353E-02  2576   0.317E-01    0.187E-01
DAV:   7    -0.135288170401E+04   -0.82211E-05   -0.89254E-03  2448   0.178E-01    0.143E-01
DAV:   8    -0.135288167970E+04    0.24316E-04   -0.26063E-03  2400   0.893E-02    0.821E-02
DAV:   9    -0.135288161619E+04    0.63506E-04   -0.11252E-03  2568   0.579E-02    0.446E-02
DAV:  10    -0.135288164889E+04   -0.32694E-04   -0.48898E-04  2512   0.398E-02    0.465E-02
DAV:  11    -0.135288161737E+04    0.31519E-04   -0.19308E-04  2480   0.281E-02    0.168E-02
DAV:  12    -0.135288162322E+04   -0.58560E-05   -0.11104E-04  2352   0.176E-02    0.122E-02
DAV:  13    -0.135288162253E+04    0.68751E-06   -0.14140E-05  1792   0.876E-03    0.724E-03
DAV:  14    -0.135288162240E+04    0.13110E-06   -0.10137E-05  1544   0.608E-03    0.320E-03
DAV:  15    -0.135288162241E+04   -0.39581E-08   -0.17414E-06  1040   0.465E-03
   6 F= -.13528816E+04 E0= -.13528816E+04  d E =-.184175E+01
 BRION: g(F)=  0.252E+01 g(S)=  0.000E+00 retain N=  5 mean eig= 1.67
 eig:   5.094  1.436  0.623  0.623  0.557
 bond charge predicted
       N       E                     dE             d eps       ncg     rms          rms(c)
DAV:   1    -0.135323628248E+04   -0.35466E+00   -0.36214E+02  1352   0.257E+01    0.367E+00
DAV:   2    -0.135517489787E+04   -0.19386E+01   -0.20323E+01  2296   0.986E+00    0.213E+00
DAV:   3    -0.135520794641E+04   -0.33049E-01   -0.12745E+00  2600   0.202E+00    0.176E+00
DAV:   4    -0.135515054969E+04    0.57397E-01   -0.30186E-01  2504   0.104E+00    0.867E-01
DAV:   5    -0.135513910711E+04    0.11443E-01   -0.10604E-01  2496   0.600E-01    0.502E-01
DAV:   6    -0.135513788935E+04    0.12178E-02   -0.40965E-02  2576   0.377E-01    0.280E-01
DAV:   7    -0.135513775556E+04    0.13379E-03   -0.18259E-02  2472   0.242E-01    0.159E-01
DAV:   8    -0.135513795650E+04   -0.20094E-03   -0.48499E-03  2544   0.122E-01    0.103E-01
DAV:   9    -0.135513784595E+04    0.11054E-03   -0.11993E-03  2608   0.683E-02    0.532E-02
DAV:  10    -0.135513790311E+04   -0.57156E-04   -0.89794E-04  2576   0.500E-02    0.427E-02
DAV:  11    -0.135513788158E+04    0.21528E-04   -0.27557E-04  2584   0.331E-02    0.146E-02
DAV:  12    -0.135513789005E+04   -0.84730E-05   -0.10764E-04  2512   0.187E-02    0.118E-02
DAV:  13    -0.135513788982E+04    0.23159E-06   -0.16230E-05  2136   0.909E-03    0.648E-03
DAV:  14    -0.135513789005E+04   -0.22489E-06   -0.58670E-06  1328   0.570E-03
   7 F= -.13551379E+04 E0= -.13551379E+04  d E =-.225627E+01
 BRION: g(F)=  0.113E+01 g(S)=  0.000E+00 retain N=  6 mean eig= 1.87
 eig:   6.022  1.859  1.859  0.276  0.594  0.594
 bond charge predicted
       N       E                     dE             d eps       ncg     rms          rms(c)
DAV:   1    -0.135558875382E+04   -0.45086E+00   -0.93294E+01  1392   0.135E+01    0.206E+00
DAV:   2    -0.135605604730E+04   -0.46729E+00   -0.49754E+00  2304   0.529E+00    0.101E+00
DAV:   3    -0.135607511937E+04   -0.19072E-01   -0.38023E-01  2624   0.104E+00    0.797E-01
DAV:   4    -0.135606386055E+04    0.11259E-01   -0.57029E-02  2544   0.535E-01    0.430E-01
DAV:   5    -0.135606169671E+04    0.21638E-02   -0.25065E-02  2440   0.306E-01    0.203E-01
DAV:   6    -0.135606211464E+04   -0.41793E-03   -0.99990E-03  2608   0.187E-01    0.132E-01
DAV:   7    -0.135606204607E+04    0.68574E-04   -0.28066E-03  2464   0.105E-01    0.926E-02
DAV:   8    -0.135606204508E+04    0.98922E-06   -0.13589E-03  2528   0.652E-02    0.556E-02
DAV:   9    -0.135606201843E+04    0.26646E-04   -0.29049E-04  2520   0.383E-02    0.346E-02
DAV:  10    -0.135606203124E+04   -0.12806E-04   -0.31200E-04  2544   0.293E-02    0.283E-02
DAV:  11    -0.135606202211E+04    0.91349E-05   -0.72476E-05  2432   0.181E-02    0.125E-02
DAV:  12    -0.135606202371E+04   -0.16065E-05   -0.33137E-05  2224   0.103E-02    0.802E-03
DAV:  13    -0.135606202288E+04    0.83621E-06   -0.25962E-06  1040   0.617E-03
   8 F= -.13560620E+04 E0= -.13560620E+04  d E =-.924133E+00
 BRION: g(F)=  0.715E+00 g(S)=  0.000E+00 retain N=  6 mean eig= 1.20
 eig:   2.767  2.767  0.228  0.228  0.613  0.613
 bond charge predicted
       N       E                     dE             d eps       ncg     rms          rms(c)
DAV:   1    -0.135649299211E+04   -0.43097E+00   -0.56026E+01  1400   0.107E+01    0.150E+00
DAV:   2    -0.135678100223E+04   -0.28801E+00   -0.30580E+00  2296   0.418E+00    0.747E-01
DAV:   3    -0.135679546215E+04   -0.14460E-01   -0.23943E-01  2608   0.826E-01    0.607E-01
DAV:   4    -0.135678953579E+04    0.59264E-02   -0.37055E-02  2552   0.434E-01    0.334E-01
DAV:   5    -0.135678811622E+04    0.14196E-02   -0.14250E-02  2424   0.252E-01    0.163E-01
DAV:   6    -0.135678839285E+04   -0.27664E-03   -0.63310E-03  2592   0.152E-01    0.106E-01
DAV:   7    -0.135678833383E+04    0.59021E-04   -0.17956E-03  2528   0.869E-02    0.692E-02
DAV:   8    -0.135678835010E+04   -0.16273E-04   -0.86276E-04  2600   0.525E-02    0.412E-02
DAV:   9    -0.135678833710E+04    0.13000E-04   -0.13844E-04  2552   0.276E-02    0.276E-02
DAV:  10    -0.135678833764E+04   -0.53379E-06   -0.12131E-04  2400   0.203E-02    0.165E-02
DAV:  11    -0.135678833783E+04   -0.19152E-06   -0.40351E-05  2368   0.134E-02    0.655E-03
DAV:  12    -0.135678833852E+04   -0.69159E-06   -0.10818E-05  1800   0.744E-03    0.549E-03
DAV:  13    -0.135678833817E+04    0.34949E-06   -0.20456E-06  1008   0.535E-03
   9 F= -.13567883E+04 E0= -.13567883E+04  d E =-.726315E+00
 BRION: g(F)=  0.609E+00 g(S)=  0.000E+00 retain N=  7 mean eig= 1.40
 eig:   3.247  3.247  0.899  0.899  0.459  0.459  0.579
 bond charge predicted
       N       E                     dE             d eps       ncg     rms          rms(c)
DAV:   1    -0.135717195990E+04   -0.38362E+00   -0.81448E+01  1392   0.130E+01    0.161E+00
DAV:   2    -0.135759845595E+04   -0.42650E+00   -0.45264E+00  2288   0.515E+00    0.815E-01
DAV:   3    -0.135762284443E+04   -0.24388E-01   -0.35987E-01  2616   0.102E+00    0.666E-01
DAV:   4    -0.135761690429E+04    0.59401E-02   -0.40151E-02  2608   0.476E-01    0.447E-01
DAV:   5    -0.135761234858E+04    0.45557E-02   -0.19131E-02  2360   0.283E-01    0.180E-01
DAV:   6    -0.135761288150E+04   -0.53293E-03   -0.11353E-02  2480   0.205E-01    0.146E-01
DAV:   7    -0.135761281614E+04    0.65364E-04   -0.45234E-03  2440   0.129E-01    0.105E-01
DAV:   8    -0.135761280170E+04    0.14443E-04   -0.21415E-03  2608   0.854E-02    0.585E-02
DAV:   9    -0.135761278444E+04    0.17253E-04   -0.37721E-04  2528   0.423E-02    0.419E-02
DAV:  10    -0.135761278510E+04   -0.65572E-06   -0.17812E-04  2600   0.248E-02    0.245E-02
DAV:  11    -0.135761278604E+04   -0.94234E-06   -0.75543E-05  2472   0.178E-02    0.143E-02
DAV:  12    -0.135761278499E+04    0.10557E-05   -0.29342E-05  2320   0.126E-02    0.111E-02
DAV:  13    -0.135761278460E+04    0.38404E-06   -0.23312E-05  2024   0.846E-03    0.583E-03
DAV:  14    -0.135761278431E+04    0.28912E-06   -0.22614E-06  1040   0.522E-03
  10 F= -.13576128E+04 E0= -.13576128E+04  d E =-.824446E+00
 BRION: g(F)=  0.476E+00 g(S)=  0.000E+00 retain N=  8 mean eig= 2.14
 eig:   5.126  5.126  2.185  2.185  0.707  0.707  0.523  0.523
 bond charge predicted
       N       E                     dE             d eps       ncg     rms          rms(c)
DAV:   1    -0.135778134212E+04   -0.16856E+00   -0.16215E+02  1392   0.183E+01    0.222E+00
DAV:   2    -0.135863859704E+04   -0.85725E+00   -0.91047E+00  2296   0.727E+00    0.112E+00
DAV:   3    -0.135868669826E+04   -0.48101E-01   -0.71622E-01  2600   0.142E+00    0.918E-01
DAV:   4    -0.135867504379E+04    0.11654E-01   -0.76003E-02  2592   0.663E-01    0.637E-01
DAV:   5    -0.135866409779E+04    0.10946E-01   -0.36361E-02  2336   0.405E-01    0.257E-01
DAV:   6    -0.135866498742E+04   -0.88964E-03   -0.26767E-02  2400   0.310E-01    0.200E-01
DAV:   7    -0.135866502318E+04   -0.35762E-04   -0.98112E-03  2416   0.187E-01    0.157E-01
DAV:   8    -0.135866492643E+04    0.96756E-04   -0.36188E-03  2600   0.115E-01    0.808E-02
DAV:   9    -0.135866487398E+04    0.52453E-04   -0.92312E-04  2480   0.618E-02    0.515E-02
DAV:  10    -0.135866489514E+04   -0.21167E-04   -0.33936E-04  2520   0.358E-02    0.357E-02
DAV:  11    -0.135866488926E+04    0.58787E-05   -0.14552E-04  2504   0.254E-02    0.198E-02
DAV:  12    -0.135866489057E+04   -0.13072E-05   -0.75414E-05  2384   0.185E-02    0.181E-02
DAV:  13    -0.135866488789E+04    0.26785E-05   -0.44052E-05  2240   0.119E-02    0.861E-03
DAV:  14    -0.135866488802E+04   -0.12507E-06   -0.12888E-05  1768   0.694E-03    0.372E-03
DAV:  15    -0.135866488807E+04   -0.53929E-07   -0.14107E-06   992   0.427E-03
  11 F= -.13586649E+04 E0= -.13586649E+04  d E =-.105210E+01
 BRION: g(F)=  0.325E+00 g(S)=  0.000E+00 retain N=  9 mean eig= 2.69
 eig:   7.021  7.021  3.123  3.123  1.092  1.092  0.447  0.627  0.627
 bond charge predicted
       N       E                     dE             d eps       ncg     rms          rms(c)
DAV:   1    -0.135889909530E+04   -0.23421E+00   -0.72393E+01  1392   0.123E+01    0.151E+00
DAV:   2    -0.135928319551E+04   -0.38410E+00   -0.40911E+00  2296   0.488E+00    0.749E-01
DAV:   3    -0.135930519451E+04   -0.21999E-01   -0.32569E-01  2584   0.973E-01    0.614E-01
DAV:   4    -0.135930002456E+04    0.51700E-02   -0.34978E-02  2608   0.445E-01    0.430E-01
DAV:   5    -0.135929503626E+04    0.49883E-02   -0.17938E-02  2296   0.273E-01    0.170E-01
DAV:   6    -0.135929546768E+04   -0.43142E-03   -0.11940E-02  2416   0.205E-01    0.144E-01
DAV:   7    -0.135929541174E+04    0.55947E-04   -0.47343E-03  2384   0.129E-01    0.104E-01
DAV:   8    -0.135929538518E+04    0.26556E-04   -0.19518E-03  2584   0.827E-02    0.547E-02
DAV:   9    -0.135929537190E+04    0.13276E-04   -0.37477E-04  2544   0.416E-02    0.386E-02
DAV:  10    -0.135929537594E+04   -0.40348E-05   -0.14197E-04  2568   0.228E-02    0.232E-02
DAV:  11    -0.135929537745E+04   -0.15064E-05   -0.70770E-05  2472   0.174E-02    0.148E-02
DAV:  12    -0.135929537605E+04    0.13913E-05   -0.31415E-05  2312   0.131E-02    0.122E-02
DAV:  13    -0.135929537533E+04    0.72608E-06   -0.23517E-05  2064   0.861E-03    0.657E-03
DAV:  14    -0.135929537494E+04    0.38861E-06   -0.35279E-06  1184   0.554E-03
  12 F= -.13592954E+04 E0= -.13592954E+04  d E =-.630487E+00
 BRION: g(F)=  0.250E+00 g(S)=  0.000E+00 retain N=  9 mean eig= 2.91
 eig:   7.470  7.470  2.464  2.464  1.907  1.907  1.026  0.734  0.734
 bond charge predicted
       N       E                     dE             d eps       ncg     rms          rms(c)
DAV:   1    -0.135943308094E+04   -0.13771E+00   -0.93473E+01  1384   0.139E+01    0.165E+00
DAV:   2    -0.135993200699E+04   -0.49893E+00   -0.52974E+00  2296   0.556E+00    0.843E-01
DAV:   3    -0.135996080193E+04   -0.28795E-01   -0.42115E-01  2576   0.110E+00    0.700E-01
DAV:   4    -0.135995515763E+04    0.56443E-02   -0.43024E-02  2608   0.490E-01    0.518E-01
DAV:   5    -0.135994768801E+04    0.74696E-02   -0.21024E-02  2320   0.302E-01    0.231E-01
DAV:   6    -0.135994761952E+04    0.68493E-04   -0.19092E-02  2304   0.264E-01    0.155E-01
DAV:   7    -0.135994779635E+04   -0.17683E-03   -0.90386E-03  2408   0.173E-01    0.138E-01
DAV:   8    -0.135994770091E+04    0.95439E-04   -0.22993E-03  2600   0.985E-02    0.848E-02
DAV:   9    -0.135994763817E+04    0.62736E-04   -0.92953E-04  2600   0.559E-02    0.436E-02
DAV:  10    -0.135994765853E+04   -0.20355E-04   -0.26184E-04  2592   0.333E-02    0.305E-02
DAV:  11    -0.135994766296E+04   -0.44336E-05   -0.99694E-05  2464   0.207E-02    0.231E-02
DAV:  12    -0.135994765841E+04    0.45543E-05   -0.80720E-05  2336   0.189E-02    0.192E-02
DAV:  13    -0.135994765582E+04    0.25910E-05   -0.47103E-05  2280   0.130E-02    0.111E-02
DAV:  14    -0.135994765521E+04    0.60492E-06   -0.15968E-05  1848   0.729E-03    0.381E-03
DAV:  15    -0.135994765519E+04    0.23138E-07   -0.12833E-06   968   0.426E-03
  13 F= -.13599477E+04 E0= -.13599477E+04  d E =-.652280E+00
 BRION: g(F)=  0.210E+00 g(S)=  0.000E+00 retain N=  6 mean eig= 3.63
 eig:   7.334  7.334  2.263  2.263  1.292  1.292
 bond charge predicted
       N       E                     dE             d eps       ncg     rms          rms(c)
DAV:   1    -0.136002292163E+04   -0.75266E-01   -0.77226E+01  1384   0.126E+01    0.149E+00
DAV:   2    -0.136043377646E+04   -0.41085E+00   -0.43444E+00  2312   0.508E+00    0.771E-01
DAV:   3    -0.136045582612E+04   -0.22050E-01   -0.33462E-01  2584   0.969E-01    0.625E-01
DAV:   4    -0.136045032662E+04    0.54995E-02   -0.34420E-02  2584   0.440E-01    0.451E-01
DAV:   5    -0.136044428321E+04    0.60434E-02   -0.17276E-02  2312   0.271E-01    0.194E-01
DAV:   6    -0.136044434362E+04   -0.60410E-04   -0.14215E-02  2312   0.226E-01    0.133E-01
DAV:   7    -0.136044447809E+04   -0.13447E-03   -0.65996E-03  2392   0.144E-01    0.118E-01
DAV:   8    -0.136044440195E+04    0.76141E-04   -0.17379E-03  2616   0.844E-02    0.686E-02
DAV:   9    -0.136044436359E+04    0.38353E-04   -0.69242E-04  2552   0.488E-02    0.366E-02
DAV:  10    -0.136044438018E+04   -0.16586E-04   -0.19538E-04  2544   0.286E-02    0.286E-02
DAV:  11    -0.136044437742E+04    0.27579E-05   -0.88305E-05  2464   0.192E-02    0.183E-02
DAV:  12    -0.136044437676E+04    0.65719E-06   -0.65202E-05  2296   0.162E-02    0.164E-02
DAV:  13    -0.136044437450E+04    0.22603E-05   -0.30124E-05  2200   0.106E-02    0.910E-03
DAV:  14    -0.136044437418E+04    0.32569E-06   -0.12249E-05  1800   0.643E-03    0.308E-03
DAV:  15    -0.136044437421E+04   -0.30544E-07   -0.93278E-07   944   0.375E-03
  14 F= -.13604444E+04 E0= -.13604444E+04  d E =-.496719E+00
 BRION: g(F)=  0.169E+00 g(S)=  0.000E+00 retain N=  3 mean eig= 3.29
 eig:   3.999  3.999  1.863
 bond charge predicted
       N       E                     dE             d eps       ncg     rms          rms(c)
DAV:   1    -0.136058100402E+04   -0.13663E+00   -0.25870E+01  1392   0.723E+00    0.828E-01
DAV:   2    -0.136071532272E+04   -0.13432E+00   -0.14122E+00  2304   0.289E+00    0.436E-01
DAV:   3    -0.136072257289E+04   -0.72502E-02   -0.10871E-01  2592   0.550E-01    0.356E-01
DAV:   4    -0.136072083802E+04    0.17349E-02   -0.10599E-02  2576   0.242E-01    0.259E-01
DAV:   5    -0.136071882445E+04    0.20136E-02   -0.53697E-03  2296   0.153E-01    0.111E-01
DAV:   6    -0.136071882705E+04   -0.26023E-05   -0.46465E-03  2288   0.128E-01    0.743E-02
DAV:   7    -0.136071887880E+04   -0.51753E-04   -0.20922E-03  2424   0.823E-02    0.657E-02
DAV:   8    -0.136071885465E+04    0.24158E-04   -0.56040E-04  2584   0.482E-02    0.386E-02
DAV:   9    -0.136071884185E+04    0.12797E-04   -0.21474E-04  2560   0.273E-02    0.210E-02
DAV:  10    -0.136071884660E+04   -0.47493E-05   -0.63263E-05  2560   0.161E-02    0.154E-02
DAV:  11    -0.136071884607E+04    0.53269E-06   -0.23835E-05  2168   0.106E-02    0.950E-03
DAV:  12    -0.136071884578E+04    0.28634E-06   -0.16957E-05  1960   0.889E-03    0.816E-03
DAV:  13    -0.136071884529E+04    0.48908E-06   -0.85236E-06  1712   0.632E-03
  15 F= -.13607188E+04 E0= -.13607188E+04  d E =-.274471E+00
 BRION: g(F)=  0.155E+00 g(S)=  0.000E+00 retain N=  4 mean eig= 3.34
 eig:   5.130  5.130  1.549  1.549
 bond charge predicted
       N       E                     dE             d eps       ncg     rms          rms(c)
DAV:   1    -0.136084287555E+04   -0.12403E+00   -0.19480E+01  1376   0.626E+00    0.728E-01
DAV:   2    -0.136094366675E+04   -0.10079E+00   -0.10594E+00  2288   0.248E+00    0.381E-01
DAV:   3    -0.136094908707E+04   -0.54203E-02   -0.81606E-02  2600   0.471E-01    0.308E-01
DAV:   4    -0.136094765413E+04    0.14329E-02   -0.80640E-03  2600   0.214E-01    0.217E-01
DAV:   5    -0.136094623050E+04    0.14236E-02   -0.39164E-03  2288   0.134E-01    0.882E-02
DAV:   6    -0.136094629262E+04   -0.62115E-04   -0.32435E-03  2344   0.106E-01    0.629E-02
DAV:   7    -0.136094631090E+04   -0.18282E-04   -0.11644E-03  2400   0.630E-02    0.530E-02
DAV:   8    -0.136094629920E+04    0.11695E-04   -0.38409E-04  2576   0.371E-02    0.291E-02
DAV:   9    -0.136094628971E+04    0.94967E-05   -0.12425E-04  2400   0.221E-02    0.171E-02
DAV:  10    -0.136094629299E+04   -0.32801E-05   -0.46695E-05  2448   0.132E-02    0.133E-02
DAV:  11    -0.136094629160E+04    0.13836E-05   -0.17935E-05  1960   0.925E-03    0.699E-03
DAV:  12    -0.136094629175E+04   -0.14991E-06   -0.97209E-06  1784   0.707E-03
  16 F= -.13609463E+04 E0= -.13609463E+04  d E =-.227446E+00
 BRION: g(F)=  0.145E+00 g(S)=  0.000E+00 retain N=  3 mean eig= 2.74
 eig:   3.531  3.531  1.155
 bond charge predicted
       N       E                     dE             d eps       ncg     rms          rms(c)
DAV:   1    -0.136096908464E+04   -0.22793E-01   -0.76031E+01  1376   0.123E+01    0.141E+00
DAV:   2    -0.136136707019E+04   -0.39799E+00   -0.41792E+00  2296   0.493E+00    0.742E-01
DAV:   3    -0.136138863466E+04   -0.21564E-01   -0.32228E-01  2592   0.938E-01    0.604E-01
DAV:   4    -0.136138398618E+04    0.46485E-02   -0.30866E-02  2576   0.413E-01    0.446E-01
DAV:   5    -0.136137801723E+04    0.59690E-02   -0.13298E-02  2384   0.246E-01    0.216E-01
DAV:   6    -0.136137733449E+04    0.68273E-03   -0.14350E-02  2192   0.230E-01    0.109E-01
DAV:   7    -0.136137774298E+04   -0.40849E-03   -0.79998E-03  2408   0.158E-01    0.125E-01
DAV:   8    -0.136137766943E+04    0.73548E-04   -0.14021E-03  2552   0.820E-02    0.925E-02
DAV:   9    -0.136137755782E+04    0.11162E-03   -0.96830E-04  2560   0.552E-02    0.398E-02
DAV:  10    -0.136137758356E+04   -0.25745E-04   -0.34871E-04  2496   0.360E-02    0.274E-02
DAV:  11    -0.136137758696E+04   -0.34007E-05   -0.72693E-05  2360   0.183E-02    0.197E-02
DAV:  12    -0.136137758192E+04    0.50440E-05   -0.91282E-05  2152   0.192E-02    0.157E-02
DAV:  13    -0.136137758209E+04   -0.17400E-06   -0.49254E-05  2288   0.135E-02    0.139E-02
DAV:  14    -0.136137757997E+04    0.21171E-05   -0.15762E-05  1944   0.784E-03    0.553E-03
DAV:  15    -0.136137757990E+04    0.70650E-07   -0.21367E-06  1048   0.452E-03
  17 F= -.13613776E+04 E0= -.13613776E+04  d E =-.431288E+00
 BRION: g(F)=  0.123E+00 g(S)=  0.000E+00 retain N=  3 mean eig= 3.53
 eig:   4.689  4.689  1.216
 bond charge predicted
       N       E                     dE             d eps       ncg     rms          rms(c)
DAV:   1    -0.136148972081E+04   -0.11214E+00   -0.14588E+01  1368   0.540E+00    0.614E-01
DAV:   2    -0.136156496252E+04   -0.75242E-01   -0.79106E-01  2288   0.215E+00    0.319E-01
DAV:   3    -0.136156931350E+04   -0.43510E-02   -0.62482E-02  2576   0.406E-01    0.256E-01
DAV:   4    -0.136156838170E+04    0.93180E-03   -0.57627E-03  2560   0.179E-01    0.184E-01
DAV:   5    -0.136156741484E+04    0.96685E-03   -0.27903E-03  2360   0.107E-01    0.771E-02
DAV:   6    -0.136156741436E+04    0.48164E-06   -0.20998E-03  2304   0.844E-02    0.505E-02
DAV:   7    -0.136156743801E+04   -0.23655E-04   -0.96560E-04  2448   0.566E-02    0.432E-02
DAV:   8    -0.136156743066E+04    0.73539E-05   -0.28642E-04  2544   0.336E-02    0.263E-02
DAV:   9    -0.136156742523E+04    0.54342E-05   -0.89643E-05  2496   0.184E-02    0.157E-02
DAV:  10    -0.136156742671E+04   -0.14819E-05   -0.31815E-05  2512   0.109E-02    0.102E-02
DAV:  11    -0.136156742665E+04    0.61002E-07   -0.78928E-06  1440   0.718E-03
  18 F= -.13615674E+04 E0= -.13615674E+04  d E =-.189847E+00
 BRION: g(F)=  0.116E+00 g(S)=  0.000E+00 retain N=  3 mean eig= 2.66
 eig:   0.971  3.498  3.498
 bond charge predicted
       N       E                     dE             d eps       ncg     rms          rms(c)
DAV:   1    -0.136168408020E+04   -0.11665E+00   -0.12317E+01  1368   0.492E+00    0.564E-01
DAV:   2    -0.136174806402E+04   -0.63984E-01   -0.67165E-01  2296   0.197E+00    0.292E-01
DAV:   3    -0.136175182927E+04   -0.37653E-02   -0.53226E-02  2576   0.364E-01    0.234E-01
DAV:   4    -0.136175106452E+04    0.76475E-03   -0.48451E-03  2560   0.164E-01    0.168E-01
DAV:   5    -0.136175024515E+04    0.81938E-03   -0.21763E-03  2376   0.993E-02    0.729E-02
DAV:   6    -0.136175022602E+04    0.19125E-04   -0.18755E-03  2288   0.822E-02    0.443E-02
DAV:   7    -0.136175025720E+04   -0.31175E-04   -0.89886E-04  2472   0.543E-02    0.415E-02
DAV:   8    -0.136175025056E+04    0.66403E-05   -0.21314E-04  2568   0.300E-02    0.253E-02
DAV:   9    -0.136175024380E+04    0.67589E-05   -0.96876E-05  2536   0.183E-02    0.134E-02
DAV:  10    -0.136175024642E+04   -0.26202E-05   -0.33223E-05  2520   0.116E-02    0.110E-02
DAV:  11    -0.136175024560E+04    0.82470E-06   -0.11213E-05  1536   0.754E-03    0.607E-03
DAV:  12    -0.136175024554E+04    0.55894E-07   -0.93762E-06  1648   0.708E-03
  19 F= -.13617502E+04 E0= -.13617502E+04  d E =-.182819E+00
 BRION: g(F)=  0.112E+00 g(S)=  0.000E+00 retain N=  4 mean eig= 4.52
 eig:   7.808  7.808  1.223  1.223
 bond charge predicted
       N       E                     dE             d eps       ncg     rms          rms(c)
DAV:   1    -0.136185698892E+04   -0.10674E+00   -0.18914E+01  1384   0.620E+00    0.697E-01
DAV:   2    -0.136195585052E+04   -0.98862E-01   -0.10397E+00  2320   0.250E+00    0.355E-01
DAV:   3    -0.136196179134E+04   -0.59408E-02   -0.80630E-02  2592   0.460E-01    0.285E-01
DAV:   4    -0.136196079391E+04    0.99743E-03   -0.69715E-03  2608   0.203E-01    0.209E-01
DAV:   5    -0.136195964697E+04    0.11469E-02   -0.36479E-03  2352   0.123E-01    0.850E-02
DAV:   6    -0.136195970302E+04   -0.56053E-04   -0.27003E-03  2336   0.979E-02    0.633E-02
DAV:   7    -0.136195971828E+04   -0.15262E-04   -0.12592E-03  2472   0.640E-02    0.490E-02
DAV:   8    -0.136195970903E+04    0.92590E-05   -0.36248E-04  2552   0.386E-02    0.274E-02
DAV:   9    -0.136195970264E+04    0.63831E-05   -0.10101E-04  2392   0.200E-02    0.173E-02
DAV:  10    -0.136195970450E+04   -0.18605E-05   -0.37372E-05  2440   0.119E-02    0.108E-02
DAV:  11    -0.136195970447E+04    0.35929E-07   -0.13096E-05  1800   0.829E-03    0.634E-03
DAV:  12    -0.136195970434E+04    0.12950E-06   -0.74096E-06  1640   0.673E-03
  20 F= -.13619597E+04 E0= -.13619597E+04  d E =-.209459E+00
 BRION: g(F)=  0.110E+00 g(S)=  0.000E+00 retain N=  4 mean eig= 3.20
 eig:   4.872  4.872  1.880  1.161
