 running on  160 total cores
 distrk:  each k-point on  160 cores,    1 groups
 distr:  one band on   20 cores,    8 groups
 using from now: INCAR     
 vasp.5.4.4.18Apr17-6-g9f103f2a35 (build May 01 2020 14:22:42) gamma-only       
  
 POSCAR found type information on POSCAR  O  La Zr Li Al
 POSCAR found :  5 types and     188 ions
 scaLAPACK will be used
 LDA part: xc-table for Pade appr. of Perdew
 POSCAR, INCAR and KPOINTS ok, starting setup
 FFT: planning ...
 WAVECAR not read
 WARNING: random wavefunctions but no delay for mixing, default for NELMDL
 entering main loop
       N       E                     dE             d eps       ncg     rms          rms(c)
DAV:   1     0.252968097164E+05    0.25297E+05   -0.42027E+05  1592   0.253E+03
DAV:   2     0.938901863520E+04   -0.15908E+05   -0.14751E+05  1432   0.704E+02
DAV:   3     0.260299105692E+04   -0.67860E+04   -0.61923E+04  1552   0.356E+02
DAV:   4    -0.376227242318E+03   -0.29792E+04   -0.27770E+04  2032   0.226E+02
DAV:   5    -0.140511975885E+04   -0.10289E+04   -0.98811E+03  2536   0.137E+02    0.117E+02
DAV:   6    -0.129386611229E+04    0.11125E+03   -0.14513E+03  2448   0.663E+01    0.500E+01
DAV:   7    -0.131801621750E+04   -0.24150E+02   -0.40740E+02  2560   0.344E+01    0.252E+01
DAV:   8    -0.132599864980E+04   -0.79824E+01   -0.26003E+02  2528   0.276E+01    0.256E+01
DAV:   9    -0.131987885399E+04    0.61198E+01   -0.51841E+01  2512   0.149E+01    0.805E+00
DAV:  10    -0.132073096398E+04   -0.85211E+00   -0.17359E+01  2624   0.806E+00    0.736E+00
DAV:  11    -0.132111000646E+04   -0.37904E+00   -0.58846E+00  2624   0.429E+00    0.442E+00
DAV:  12    -0.132096891717E+04    0.14109E+00   -0.23670E+00  2568   0.348E+00    0.320E+00
DAV:  13    -0.132101670560E+04   -0.47788E-01   -0.96798E-01  2568   0.180E+00    0.204E+00
DAV:  14    -0.132100562312E+04    0.11082E-01   -0.26143E-01  2624   0.107E+00    0.128E+00
DAV:  15    -0.132101204974E+04   -0.64266E-02   -0.90194E-02  2560   0.582E-01    0.982E-01
DAV:  16    -0.132101232067E+04   -0.27093E-03   -0.27455E-02  2624   0.312E-01    0.637E-01
DAV:  17    -0.132101188426E+04    0.43641E-03   -0.23301E-02  2328   0.291E-01    0.345E-01
DAV:  18    -0.132101216318E+04   -0.27892E-03   -0.50983E-03  2384   0.150E-01    0.154E-01
DAV:  19    -0.132101214606E+04    0.17116E-04   -0.25335E-03  2584   0.102E-01    0.890E-02
DAV:  20    -0.132101219321E+04   -0.47144E-04   -0.63322E-04  2544   0.453E-02    0.389E-02
DAV:  21    -0.132101222112E+04   -0.27911E-04   -0.24335E-04  2616   0.288E-02    0.358E-02
DAV:  22    -0.132101223715E+04   -0.16026E-04   -0.63665E-05  2448   0.148E-02    0.143E-02
DAV:  23    -0.132101223312E+04    0.40279E-05   -0.36264E-05  2136   0.115E-02    0.125E-02
DAV:  24    -0.132101223926E+04   -0.61426E-05   -0.17501E-05  1800   0.872E-03    0.284E-03
DAV:  25    -0.132101223758E+04    0.16768E-05   -0.47473E-06  1008   0.592E-03    0.613E-03
DAV:  26    -0.132101223980E+04   -0.22134E-05   -0.20694E-06   968   0.474E-03    0.189E-03
DAV:  27    -0.132101224048E+04   -0.68547E-06   -0.12486E-06   944   0.374E-03
   1 F= -.13210122E+04 E0= -.13210122E+04  d E =-.132101E+04
 BRION: g(F)=  0.724E+02 g(S)=  0.000E+00
 bond charge predicted
       N       E                     dE             d eps       ncg     rms          rms(c)
DAV:   1    -0.126927295845E+04    0.51739E+02   -0.92328E+03  1712   0.144E+02    0.327E+01
DAV:   2    -0.134449274050E+04   -0.75220E+02   -0.86737E+02  2584   0.657E+01    0.169E+01
DAV:   3    -0.134195065375E+04    0.25421E+01   -0.50052E+01  2616   0.177E+01    0.112E+01
DAV:   4    -0.133896482138E+04    0.29858E+01   -0.19294E+01  2408   0.898E+00    0.532E+00
DAV:   5    -0.133873954722E+04    0.22527E+00   -0.60099E+00  2528   0.527E+00    0.386E+00
DAV:   6    -0.133860835677E+04    0.13119E+00   -0.38676E+00  2608   0.341E+00    0.209E+00
DAV:   7    -0.133855775671E+04    0.50600E-01   -0.53913E-01  2528   0.193E+00    0.116E+00
DAV:   8    -0.133856518738E+04   -0.74307E-02   -0.50143E-01  2592   0.118E+00    0.802E-01
DAV:   9    -0.133856684352E+04   -0.16561E-02   -0.79090E-02  2576   0.576E-01    0.623E-01
DAV:  10    -0.133856227233E+04    0.45712E-02   -0.43442E-02  2616   0.384E-01    0.250E-01
DAV:  11    -0.133856324033E+04   -0.96801E-03   -0.18746E-02  2584   0.262E-01    0.174E-01
DAV:  12    -0.133856359427E+04   -0.35394E-03   -0.39924E-03  2624   0.129E-01    0.143E-01
DAV:  13    -0.133856325775E+04    0.33653E-03   -0.21062E-03  2592   0.950E-02    0.402E-02
DAV:  14    -0.133856332654E+04   -0.68794E-04   -0.88816E-04  2568   0.544E-02    0.287E-02
DAV:  15    -0.133856333927E+04   -0.12731E-04   -0.11884E-04  2624   0.244E-02    0.261E-02
DAV:  16    -0.133856332920E+04    0.10069E-04   -0.58363E-05  2624   0.158E-02    0.137E-02
DAV:  17    -0.133856333095E+04   -0.17494E-05   -0.41768E-05  2496   0.118E-02    0.565E-03
DAV:  18    -0.133856333074E+04    0.21029E-06   -0.28878E-06  1120   0.561E-03
   2 F= -.13385633E+04 E0= -.13385633E+04  d E =-.175511E+02
 BRION: g(F)=  0.137E+03 g(S)=  0.000E+00 retain N=  1 mean eig= 0.39
 eig:   0.392
 bond charge predicted
       N       E                     dE             d eps       ncg     rms          rms(c)
DAV:   1    -0.132239918802E+04    0.16164E+02   -0.28455E+03  1360   0.650E+01    0.225E+01
DAV:   2    -0.135452086804E+04   -0.32122E+02   -0.41479E+02  2528   0.342E+01    0.211E+01
DAV:   3    -0.135136845036E+04    0.31524E+01   -0.38964E+01  2488   0.129E+01    0.151E+01
DAV:   4    -0.134860710122E+04    0.27613E+01   -0.32564E+01  2176   0.660E+00    0.683E+00
DAV:   5    -0.134954347856E+04   -0.93638E+00   -0.95542E+00  2456   0.452E+00    0.805E+00
DAV:   6    -0.134833896354E+04    0.12045E+01   -0.10164E+01  2440   0.386E+00    0.169E+00
DAV:   7    -0.134846259273E+04   -0.12363E+00   -0.16713E+00  2520   0.271E+00    0.148E+00
DAV:   8    -0.134843332865E+04    0.29264E-01   -0.30246E-01  2624   0.104E+00    0.794E-01
DAV:   9    -0.134843024566E+04    0.30830E-02   -0.13610E-01  2520   0.597E-01    0.355E-01
DAV:  10    -0.134843178775E+04   -0.15421E-02   -0.31981E-02  2560   0.351E-01    0.240E-01
DAV:  11    -0.134843110919E+04    0.67856E-03   -0.71844E-03  2472   0.195E-01    0.207E-01
DAV:  12    -0.134843059049E+04    0.51871E-03   -0.10201E-02  2288   0.157E-01    0.742E-02
DAV:  13    -0.134843071036E+04   -0.11987E-03   -0.21327E-03  2376   0.864E-02    0.700E-02
DAV:  14    -0.134843069471E+04    0.15650E-04   -0.73683E-04  2472   0.467E-02    0.427E-02
DAV:  15    -0.134843068591E+04    0.87990E-05   -0.21180E-04  2600   0.266E-02    0.197E-02
DAV:  16    -0.134843068397E+04    0.19334E-05   -0.80174E-05  2592   0.174E-02    0.732E-03
DAV:  17    -0.134843068696E+04   -0.29834E-05   -0.36304E-05  2432   0.114E-02    0.993E-03
DAV:  18    -0.134843068559E+04    0.13654E-05   -0.38823E-06  1408   0.580E-03    0.622E-03
DAV:  19    -0.134843068572E+04   -0.13354E-06   -0.12860E-05  1656   0.599E-03    0.277E-03
DAV:  20    -0.134843068563E+04    0.94733E-07   -0.92653E-07  1024   0.363E-03
   3 F= -.13484307E+04 E0= -.13484307E+04  d E =-.986735E+01
 BRION: g(F)=  0.131E+02 g(S)=  0.000E+00 retain N=  2 mean eig= 1.96
 eig:   0.241  3.680
 bond charge predicted
       N       E                     dE             d eps       ncg     rms          rms(c)
DAV:   1    -0.134929238591E+04   -0.86170E+00   -0.65835E+02  1384   0.362E+01    0.786E+00
DAV:   2    -0.135289179289E+04   -0.35994E+01   -0.41808E+01  2288   0.142E+01    0.369E+00
DAV:   3    -0.135298756139E+04   -0.95769E-01   -0.36963E+00  2608   0.405E+00    0.325E+00
DAV:   4    -0.135286752638E+04    0.12004E+00   -0.73522E-01  2560   0.182E+00    0.184E+00
DAV:   5    -0.135283681669E+04    0.30710E-01   -0.42186E-01  2192   0.127E+00    0.995E-01
DAV:   6    -0.135283470055E+04    0.21161E-02   -0.19676E-01  2512   0.870E-01    0.792E-01
DAV:   7    -0.135283077644E+04    0.39241E-02   -0.12071E-01  2520   0.600E-01    0.450E-01
DAV:   8    -0.135282979485E+04    0.98159E-03   -0.19250E-02  2544   0.288E-01    0.280E-01
DAV:   9    -0.135282950603E+04    0.28883E-03   -0.75656E-03  2608   0.164E-01    0.137E-01
DAV:  10    -0.135282968958E+04   -0.18355E-03   -0.29531E-03  2232   0.991E-02    0.109E-01
DAV:  11    -0.135282953498E+04    0.15460E-03   -0.12598E-03  2608   0.709E-02    0.406E-02
DAV:  12    -0.135282956647E+04   -0.31493E-04   -0.68955E-04  2552   0.481E-02    0.330E-02
DAV:  13    -0.135282956184E+04    0.46272E-05   -0.10871E-04  2576   0.237E-02    0.198E-02
DAV:  14    -0.135282956230E+04   -0.45105E-06   -0.10229E-04  2304   0.159E-02    0.111E-02
DAV:  15    -0.135282956251E+04   -0.21378E-06   -0.15743E-05  2160   0.925E-03    0.532E-03
DAV:  16    -0.135282956228E+04    0.23280E-06   -0.14790E-06  1056   0.406E-03
   4 F= -.13528296E+04 E0= -.13528296E+04  d E =-.439888E+01
 BRION: g(F)=  0.459E+01 g(S)=  0.000E+00 retain N=  3 mean eig= 2.71
 eig:   7.318  0.413  0.413
 bond charge predicted
       N       E                     dE             d eps       ncg     rms          rms(c)
DAV:   1    -0.135393091526E+04   -0.11014E+01   -0.22151E+02  1376   0.211E+01    0.346E+00
DAV:   2    -0.135504442638E+04   -0.11135E+01   -0.12152E+01  2280   0.808E+00    0.179E+00
DAV:   3    -0.135506971318E+04   -0.25287E-01   -0.91291E-01  2608   0.175E+00    0.153E+00
DAV:   4    -0.135502940816E+04    0.40305E-01   -0.22855E-01  2560   0.981E-01    0.760E-01
DAV:   5    -0.135502248127E+04    0.69269E-02   -0.85722E-02  2432   0.608E-01    0.514E-01
DAV:   6    -0.135502147081E+04    0.10105E-02   -0.53880E-02  2584   0.460E-01    0.332E-01
DAV:   7    -0.135502097812E+04    0.49269E-03   -0.24527E-02  2360   0.276E-01    0.225E-01
DAV:   8    -0.135502091987E+04    0.58246E-04   -0.57883E-03  2520   0.141E-01    0.125E-01
DAV:   9    -0.135502077101E+04    0.14886E-03   -0.19758E-03  2608   0.821E-02    0.727E-02
DAV:  10    -0.135502083738E+04   -0.66364E-04   -0.10554E-03  2504   0.605E-02    0.738E-02
DAV:  11    -0.135502077076E+04    0.66611E-04   -0.52670E-04  2544   0.445E-02    0.286E-02
DAV:  12    -0.135502077975E+04   -0.89823E-05   -0.23755E-04  2464   0.283E-02    0.196E-02
DAV:  13    -0.135502077892E+04    0.82233E-06   -0.42929E-05  2448   0.139E-02    0.116E-02
DAV:  14    -0.135502077890E+04    0.25801E-07   -0.19292E-05  1936   0.759E-03    0.531E-03
DAV:  15    -0.135502077900E+04   -0.10463E-06   -0.17363E-06  1016   0.468E-03
   5 F= -.13550208E+04 E0= -.13550208E+04  d E =-.219122E+01
 BRION: g(F)=  0.312E+01 g(S)=  0.000E+00 retain N=  4 mean eig= 2.16
 eig:   7.130  0.550  0.474  0.474
 bond charge predicted
       N       E                     dE             d eps       ncg     rms          rms(c)
DAV:   1    -0.135582763873E+04   -0.80686E+00   -0.20996E+02  1352   0.202E+01    0.279E+00
DAV:   2    -0.135685945422E+04   -0.10318E+01   -0.10878E+01  2304   0.752E+00    0.147E+00
DAV:   3    -0.135689545882E+04   -0.36005E-01   -0.75187E-01  2624   0.151E+00    0.122E+00
DAV:   4    -0.135686885155E+04    0.26607E-01   -0.12363E-01  2560   0.762E-01    0.693E-01
DAV:   5    -0.135685972814E+04    0.91234E-02   -0.64296E-02  2368   0.526E-01    0.336E-01
DAV:   6    -0.135686110089E+04   -0.13727E-02   -0.33016E-02  2576   0.345E-01    0.286E-01
DAV:   7    -0.135686054814E+04    0.55275E-03   -0.10184E-02  2536   0.194E-01    0.177E-01
DAV:   8    -0.135686038499E+04    0.16315E-03   -0.26264E-03  2624   0.100E-01    0.920E-02
DAV:   9    -0.135686034774E+04    0.37250E-04   -0.55593E-04  2592   0.489E-02    0.554E-02
DAV:  10    -0.135686035044E+04   -0.26967E-05   -0.33200E-04  2240   0.337E-02    0.341E-02
DAV:  11    -0.135686034793E+04    0.25045E-05   -0.18812E-04  2336   0.235E-02    0.181E-02
DAV:  12    -0.135686034580E+04    0.21330E-05   -0.43625E-05  2392   0.142E-02    0.142E-02
DAV:  13    -0.135686034524E+04    0.55728E-06   -0.41931E-05  2152   0.111E-02    0.773E-03
DAV:  14    -0.135686034494E+04    0.29978E-06   -0.11501E-05  1760   0.694E-03    0.374E-03
DAV:  15    -0.135686034512E+04   -0.17362E-06   -0.24785E-06  1072   0.463E-03
   6 F= -.13568603E+04 E0= -.13568603E+04  d E =-.183957E+01
 BRION: g(F)=  0.184E+01 g(S)=  0.000E+00 retain N=  5 mean eig= 1.97
 eig:   7.213  0.784  0.657  0.657  0.518
 bond charge predicted
       N       E                     dE             d eps       ncg     rms          rms(c)
DAV:   1    -0.135706524096E+04   -0.20490E+00   -0.29806E+02  1360   0.236E+01    0.319E+00
DAV:   2    -0.135862894316E+04   -0.15637E+01   -0.16316E+01  2296   0.880E+00    0.183E+00
DAV:   3    -0.135867307931E+04   -0.44136E-01   -0.11024E+00  2608   0.179E+00    0.155E+00
DAV:   4    -0.135863693492E+04    0.36144E-01   -0.19221E-01  2560   0.855E-01    0.871E-01
DAV:   5    -0.135862117243E+04    0.15762E-01   -0.85637E-02  2424   0.534E-01    0.376E-01
DAV:   6    -0.135862279511E+04   -0.16227E-02   -0.35238E-02  2536   0.350E-01    0.334E-01
DAV:   7    -0.135862170114E+04    0.10940E-02   -0.14028E-02  2544   0.221E-01    0.180E-01
DAV:   8    -0.135862174932E+04   -0.48183E-04   -0.62033E-03  2592   0.131E-01    0.843E-02
DAV:   9    -0.135862171953E+04    0.29798E-04   -0.82445E-04  2408   0.583E-02    0.625E-02
DAV:  10    -0.135862172244E+04   -0.29150E-05   -0.41651E-04  2360   0.373E-02    0.275E-02
DAV:  11    -0.135862172652E+04   -0.40835E-05   -0.12276E-04  2568   0.230E-02    0.130E-02
DAV:  12    -0.135862172959E+04   -0.30675E-05   -0.51682E-05  2480   0.133E-02    0.107E-02
DAV:  13    -0.135862172910E+04    0.48995E-06   -0.11567E-05  1728   0.772E-03    0.593E-03
DAV:  14    -0.135862172893E+04    0.16992E-06   -0.28512E-06  1048   0.567E-03
   7 F= -.13586217E+04 E0= -.13586217E+04  d E =-.176138E+01
 BRION: g(F)=  0.694E+00 g(S)=  0.000E+00 retain N=  5 mean eig= 1.63
 eig:   3.286  3.286  0.489  0.489  0.585
 bond charge predicted
       N       E                     dE             d eps       ncg     rms          rms(c)
DAV:   1    -0.135890577181E+04   -0.28404E+00   -0.11091E+02  1376   0.148E+01    0.202E+00
DAV:   2    -0.135944661655E+04   -0.54084E+00   -0.56886E+00  2288   0.564E+00    0.971E-01
DAV:   3    -0.135947422314E+04   -0.27607E-01   -0.43329E-01  2616   0.108E+00    0.775E-01
DAV:   4    -0.135946399784E+04    0.10225E-01   -0.50451E-02  2560   0.519E-01    0.451E-01
DAV:   5    -0.135946080480E+04    0.31930E-02   -0.27779E-02  2320   0.325E-01    0.187E-01
DAV:   6    -0.135946154920E+04   -0.74440E-03   -0.11190E-02  2552   0.202E-01    0.157E-01
DAV:   7    -0.135946144285E+04    0.10634E-03   -0.36580E-03  2584   0.115E-01    0.973E-02
DAV:   8    -0.135946138796E+04    0.54894E-04   -0.98738E-04  2616   0.638E-02    0.523E-02
DAV:   9    -0.135946138756E+04    0.39539E-06   -0.23324E-04  2600   0.333E-02    0.303E-02
DAV:  10    -0.135946139727E+04   -0.97036E-05   -0.13557E-04  2520   0.214E-02    0.183E-02
DAV:  11    -0.135946139414E+04    0.31300E-05   -0.36425E-05  2456   0.135E-02    0.847E-03
DAV:  12    -0.135946139520E+04   -0.10631E-05   -0.17826E-05  1960   0.804E-03    0.659E-03
DAV:  13    -0.135946139451E+04    0.68708E-06   -0.19098E-06  1008   0.548E-03
   8 F= -.13594614E+04 E0= -.13594614E+04  d E =-.839666E+00
 BRION: g(F)=  0.560E+00 g(S)=  0.000E+00 retain N=  6 mean eig= 1.88
 eig:   4.479  4.479  0.365  0.365  0.800  0.800
 bond charge predicted
       N       E                     dE             d eps       ncg     rms          rms(c)
DAV:   1    -0.135981375094E+04   -0.35236E+00   -0.64646E+01  1368   0.115E+01    0.142E+00
DAV:   2    -0.136013686447E+04   -0.32311E+00   -0.34064E+00  2296   0.447E+00    0.709E-01
DAV:   3    -0.136015472190E+04   -0.17857E-01   -0.26034E-01  2600   0.855E-01    0.581E-01
DAV:   4    -0.136015005807E+04    0.46638E-02   -0.28118E-02  2616   0.390E-01    0.381E-01
DAV:   5    -0.136014671099E+04    0.33471E-02   -0.14964E-02  2288   0.264E-01    0.144E-01
DAV:   6    -0.136014741987E+04   -0.70888E-03   -0.97508E-03  2520   0.189E-01    0.150E-01
DAV:   7    -0.136014728719E+04    0.13268E-03   -0.34403E-03  2488   0.111E-01    0.103E-01
DAV:   8    -0.136014723128E+04    0.55909E-04   -0.13914E-03  2592   0.693E-02    0.474E-02
DAV:   9    -0.136014721337E+04    0.17917E-04   -0.23566E-04  2360   0.338E-02    0.335E-02
DAV:  10    -0.136014721669E+04   -0.33251E-05   -0.11631E-04  2280   0.203E-02    0.208E-02
DAV:  11    -0.136014721440E+04    0.22870E-05   -0.40699E-05  2496   0.137E-02    0.107E-02
DAV:  12    -0.136014721589E+04   -0.14833E-05   -0.26021E-05  2296   0.989E-03    0.112E-02
DAV:  13    -0.136014721448E+04    0.14024E-05   -0.10720E-05  1744   0.685E-03    0.535E-03
DAV:  14    -0.136014721431E+04    0.17084E-06   -0.21166E-06  1024   0.477E-03
   9 F= -.13601472E+04 E0= -.13601472E+04  d E =-.685820E+00
 BRION: g(F)=  0.414E+00 g(S)=  0.000E+00 retain N=  7 mean eig= 2.17
 eig:   5.075  5.075  1.644  1.644  0.535  0.620  0.620
 bond charge predicted
       N       E                     dE             d eps       ncg     rms          rms(c)
DAV:   1    -0.136036390597E+04   -0.21669E+00   -0.13242E+02  1376   0.165E+01    0.197E+00
DAV:   2    -0.136104419429E+04   -0.68029E+00   -0.71799E+00  2288   0.651E+00    0.994E-01
DAV:   3    -0.136108356303E+04   -0.39369E-01   -0.56140E-01  2592   0.125E+00    0.803E-01
DAV:   4    -0.136107469059E+04    0.88724E-02   -0.57286E-02  2624   0.564E-01    0.540E-01
DAV:   5    -0.136106808217E+04    0.66084E-02   -0.28742E-02  2304   0.340E-01    0.204E-01
DAV:   6    -0.136106906527E+04   -0.98310E-03   -0.15510E-02  2480   0.232E-01    0.175E-01
DAV:   7    -0.136106895969E+04    0.10558E-03   -0.62761E-03  2488   0.151E-01    0.115E-01
DAV:   8    -0.136106893983E+04    0.19860E-04   -0.22961E-03  2608   0.933E-02    0.647E-02
DAV:   9    -0.136106891892E+04    0.20907E-04   -0.44830E-04  2464   0.457E-02    0.467E-02
DAV:  10    -0.136106892672E+04   -0.78011E-05   -0.25245E-04  2520   0.290E-02    0.246E-02
DAV:  11    -0.136106892783E+04   -0.11093E-05   -0.89965E-05  2488   0.207E-02    0.132E-02
DAV:  12    -0.136106892884E+04   -0.10091E-05   -0.35182E-05  2328   0.134E-02    0.127E-02
DAV:  13    -0.136106892734E+04    0.14970E-05   -0.20612E-05  1960   0.850E-03    0.614E-03
DAV:  14    -0.136106892727E+04    0.73691E-07   -0.61419E-06  1456   0.599E-03
  10 F= -.13610689E+04 E0= -.13610689E+04  d E =-.921713E+00
 BRION: g(F)=  0.296E+00 g(S)=  0.000E+00 retain N=  8 mean eig= 2.85
 eig:   5.694  5.694  4.190  4.190  0.556  0.780  0.836  0.836
 bond charge predicted
       N       E                     dE             d eps       ncg     rms          rms(c)
DAV:   1    -0.136136809420E+04   -0.29917E+00   -0.67132E+01  1384   0.117E+01    0.139E+00
DAV:   2    -0.136172054572E+04   -0.35245E+00   -0.37258E+00  2312   0.480E+00    0.718E-01
DAV:   3    -0.136173959656E+04   -0.19051E-01   -0.28574E-01  2592   0.876E-01    0.576E-01
DAV:   4    -0.136173423081E+04    0.53657E-02   -0.29738E-02  2592   0.405E-01    0.385E-01
DAV:   5    -0.136173031518E+04    0.39156E-02   -0.13944E-02  2344   0.251E-01    0.153E-01
DAV:   6    -0.136173069145E+04   -0.37627E-03   -0.95341E-03  2432   0.186E-01    0.117E-01
DAV:   7    -0.136173071276E+04   -0.21306E-04   -0.36311E-03  2416   0.114E-01    0.907E-02
DAV:   8    -0.136173069838E+04    0.14384E-04   -0.13232E-03  2624   0.683E-02    0.484E-02
DAV:   9    -0.136173068157E+04    0.16806E-04   -0.33339E-04  2568   0.378E-02    0.331E-02
DAV:  10    -0.136173068579E+04   -0.42224E-05   -0.13435E-04  2560   0.233E-02    0.229E-02
DAV:  11    -0.136173068384E+04    0.19492E-05   -0.65507E-05  2432   0.165E-02    0.115E-02
DAV:  12    -0.136173068417E+04   -0.32292E-06   -0.23660E-05  2312   0.113E-02    0.101E-02
DAV:  13    -0.136173068348E+04    0.68551E-06   -0.15960E-05  1824   0.739E-03    0.502E-03
DAV:  14    -0.136173068329E+04    0.19470E-06   -0.27462E-06  1080   0.533E-03
  11 F= -.13617307E+04 E0= -.13617307E+04  d E =-.661756E+00
 BRION: g(F)=  0.248E+00 g(S)=  0.000E+00 retain N=  8 mean eig= 2.98
 eig:   6.103  6.103  3.341  3.341  1.680  1.680  0.779  0.779
 bond charge predicted
       N       E                     dE             d eps       ncg     rms          rms(c)
DAV:   1    -0.136201417797E+04   -0.28349E+00   -0.29517E+01  1384   0.779E+00    0.952E-01
DAV:   2    -0.136217048341E+04   -0.15631E+00   -0.16665E+00  2296   0.318E+00    0.484E-01
DAV:   3    -0.136217919128E+04   -0.87079E-02   -0.13231E-01  2600   0.617E-01    0.391E-01
DAV:   4    -0.136217667760E+04    0.25137E-02   -0.13920E-02  2608   0.282E-01    0.262E-01
DAV:   5    -0.136217484080E+04    0.18368E-02   -0.72522E-03  2312   0.180E-01    0.103E-01
DAV:   6    -0.136217504392E+04   -0.20312E-03   -0.44453E-03  2472   0.127E-01    0.884E-02
DAV:   7    -0.136217503550E+04    0.84255E-05   -0.16194E-03  2456   0.765E-02    0.634E-02
DAV:   8    -0.136217502055E+04    0.14943E-04   -0.65351E-04  2616   0.484E-02    0.324E-02
DAV:   9    -0.136217501413E+04    0.64271E-05   -0.13892E-04  2480   0.253E-02    0.231E-02
DAV:  10    -0.136217501519E+04   -0.10671E-05   -0.63304E-05  2520   0.158E-02    0.145E-02
DAV:  11    -0.136217501437E+04    0.82146E-06   -0.26943E-05  2296   0.113E-02    0.685E-03
DAV:  12    -0.136217501487E+04   -0.50107E-06   -0.99317E-06  1808   0.754E-03
  12 F= -.13621750E+04 E0= -.13621750E+04  d E =-.444332E+00
 BRION: g(F)=  0.240E+00 g(S)=  0.000E+00 retain N=  5 mean eig= 3.91
 eig:   6.840  6.840  1.044  2.423  2.423
 bond charge predicted
       N       E                     dE             d eps       ncg     rms          rms(c)
DAV:   1    -0.136243550549E+04   -0.26049E+00   -0.62933E+01  1392   0.114E+01    0.136E+00
DAV:   2    -0.136277165459E+04   -0.33615E+00   -0.35623E+00  2304   0.468E+00    0.707E-01
DAV:   3    -0.136278962556E+04   -0.17971E-01   -0.27579E-01  2584   0.869E-01    0.568E-01
DAV:   4    -0.136278436786E+04    0.52577E-02   -0.29078E-02  2600   0.400E-01    0.386E-01
DAV:   5    -0.136278030025E+04    0.40676E-02   -0.13848E-02  2328   0.246E-01    0.158E-01
DAV:   6    -0.136278053258E+04   -0.23233E-03   -0.91302E-03  2416   0.179E-01    0.112E-01
DAV:   7    -0.136278056173E+04   -0.29154E-04   -0.34493E-03  2448   0.110E-01    0.875E-02
DAV:   8    -0.136278054119E+04    0.20543E-04   -0.12889E-03  2608   0.690E-02    0.490E-02
DAV:   9    -0.136278052705E+04    0.14133E-04   -0.34788E-04  2520   0.375E-02    0.321E-02
DAV:  10    -0.136278053129E+04   -0.42365E-05   -0.12641E-04  2560   0.229E-02    0.218E-02
DAV:  11    -0.136278052949E+04    0.17974E-05   -0.61345E-05  2464   0.158E-02    0.103E-02
DAV:  12    -0.136278053013E+04   -0.63342E-06   -0.23708E-05  2272   0.110E-02    0.934E-03
DAV:  13    -0.136278052951E+04    0.61429E-06   -0.13075E-05  1776   0.685E-03    0.482E-03
DAV:  14    -0.136278052938E+04    0.13327E-06   -0.34617E-06  1184   0.515E-03
  13 F= -.13627805E+04 E0= -.13627805E+04  d E =-.605515E+00
 BRION: g(F)=  0.208E+00 g(S)=  0.000E+00 retain N=  3 mean eig= 4.22
 eig:   5.643  5.643  1.389
 bond charge predicted
       N       E                     dE             d eps       ncg     rms          rms(c)
DAV:   1    -0.136301727029E+04   -0.23674E+00   -0.25839E+01  1392   0.729E+00    0.879E-01
DAV:   2    -0.136315430832E+04   -0.13704E+00   -0.14596E+00  2296   0.296E+00    0.455E-01
DAV:   3    -0.136316178142E+04   -0.74731E-02   -0.11575E-01  2576   0.568E-01    0.363E-01
DAV:   4    -0.136315952306E+04    0.22584E-02   -0.12287E-02  2576   0.264E-01    0.242E-01
DAV:   5    -0.136315798013E+04    0.15429E-02   -0.62133E-03  2352   0.162E-01    0.968E-02
DAV:   6    -0.136315808686E+04   -0.10673E-03   -0.34992E-03  2480   0.114E-01    0.739E-02
DAV:   7    -0.136315809806E+04   -0.11200E-04   -0.13045E-03  2488   0.692E-02    0.536E-02
DAV:   8    -0.136315809134E+04    0.67160E-05   -0.52411E-04  2576   0.439E-02    0.299E-02
DAV:   9    -0.136315808735E+04    0.39958E-05   -0.11955E-04  2496   0.231E-02    0.214E-02
DAV:  10    -0.136315808757E+04   -0.21901E-06   -0.58891E-05  2568   0.151E-02    0.134E-02
DAV:  11    -0.136315808706E+04    0.50993E-06   -0.27230E-05  2264   0.109E-02    0.608E-03
DAV:  12    -0.136315808720E+04   -0.14517E-06   -0.70252E-06  1600   0.719E-03
  14 F= -.13631581E+04 E0= -.13631581E+04  d E =-.377558E+00
 BRION: g(F)=  0.198E+00 g(S)=  0.000E+00 retain N=  3 mean eig= 2.68
 eig:   3.471  3.471  1.093
 bond charge predicted
       N       E                     dE             d eps       ncg     rms          rms(c)
DAV:   1    -0.136337694537E+04   -0.21886E+00   -0.46078E+01  1400   0.969E+00    0.115E+00
DAV:   2    -0.136361957538E+04   -0.24263E+00   -0.25683E+00  2304   0.392E+00    0.592E-01
DAV:   3    -0.136363294353E+04   -0.13368E-01   -0.20238E-01  2584   0.750E-01    0.474E-01
DAV:   4    -0.136362927965E+04    0.36639E-02   -0.20528E-02  2584   0.338E-01    0.326E-01
DAV:   5    -0.136362623670E+04    0.30429E-02   -0.96819E-03  2360   0.211E-01    0.136E-01
DAV:   6    -0.136362631311E+04   -0.76407E-04   -0.68680E-03  2392   0.159E-01    0.940E-02
DAV:   7    -0.136362636044E+04   -0.47334E-04   -0.26815E-03  2416   0.970E-02    0.769E-02
DAV:   8    -0.136362633864E+04    0.21806E-04   -0.88881E-04  2608   0.588E-02    0.432E-02
DAV:   9    -0.136362632590E+04    0.12734E-04   -0.30693E-04  2552   0.340E-02    0.263E-02
DAV:  10    -0.136362633058E+04   -0.46756E-05   -0.98814E-05  2544   0.209E-02    0.202E-02
DAV:  11    -0.136362632770E+04    0.28758E-05   -0.50472E-05  2392   0.143E-02    0.888E-03
DAV:  12    -0.136362632845E+04   -0.74567E-06   -0.20563E-05  2120   0.996E-03    0.843E-03
DAV:  13    -0.136362632786E+04    0.58544E-06   -0.94674E-06  1664   0.629E-03
  15 F= -.13636263E+04 E0= -.13636263E+04  d E =-.468241E+00
 BRION: g(F)=  0.169E+00 g(S)=  0.000E+00 retain N=  3 mean eig= 3.79
 eig:   5.039  5.039  1.299
 bond charge predicted
       N       E                     dE             d eps       ncg     rms          rms(c)
DAV:   1    -0.136381494129E+04   -0.18861E+00   -0.34160E+01  1392   0.836E+00    0.970E-01
DAV:   2    -0.136399193451E+04   -0.17699E+00   -0.18746E+00  2288   0.332E+00    0.491E-01
DAV:   3    -0.136400269520E+04   -0.10761E-01   -0.15283E-01  2576   0.656E-01    0.400E-01
DAV:   4    -0.136400057627E+04    0.21189E-02   -0.14029E-02  2584   0.282E-01    0.291E-01
DAV:   5    -0.136399818711E+04    0.23892E-02   -0.76418E-03  2280   0.177E-01    0.123E-01
DAV:   6    -0.136399822529E+04   -0.38180E-04   -0.54272E-03  2336   0.137E-01    0.939E-02
DAV:   7    -0.136399824484E+04   -0.19555E-04   -0.24876E-03  2472   0.908E-02    0.724E-02
DAV:   8    -0.136399821670E+04    0.28143E-04   -0.84264E-04  2592   0.580E-02    0.429E-02
DAV:   9    -0.136399820486E+04    0.11842E-04   -0.24581E-04  2512   0.303E-02    0.250E-02
DAV:  10    -0.136399820805E+04   -0.31946E-05   -0.72161E-05  2568   0.170E-02    0.163E-02
DAV:  11    -0.136399820805E+04    0.44092E-08   -0.27278E-05  2320   0.114E-02    0.983E-03
DAV:  12    -0.136399820773E+04    0.31314E-06   -0.16560E-05  1976   0.857E-03    0.837E-03
DAV:  13    -0.136399820727E+04    0.46587E-06   -0.94810E-06  1744   0.618E-03
  16 F= -.13639982E+04 E0= -.13639982E+04  d E =-.371879E+00
 BRION: g(F)=  0.153E+00 g(S)=  0.000E+00 retain N=  3 mean eig= 4.37
 eig:   5.907  5.907  1.295
 bond charge predicted
       N       E                     dE             d eps       ncg     rms          rms(c)
DAV:   1    -0.136414770256E+04   -0.14949E+00   -0.50510E+01  1392   0.101E+01    0.117E+00
DAV:   2    -0.136440777295E+04   -0.26007E+00   -0.27426E+00  2304   0.400E+00    0.589E-01
DAV:   3    -0.136442258625E+04   -0.14813E-01   -0.21651E-01  2576   0.769E-01    0.475E-01
DAV:   4    -0.136441919625E+04    0.33900E-02   -0.20110E-02  2592   0.335E-01    0.342E-01
DAV:   5    -0.136441548296E+04    0.37133E-02   -0.10180E-02  2304   0.213E-01    0.143E-01
DAV:   6    -0.136441550047E+04   -0.17508E-04   -0.82874E-03  2296   0.170E-01    0.102E-01
DAV:   7    -0.136441557307E+04   -0.72595E-04   -0.34574E-03  2424   0.108E-01    0.858E-02
DAV:   8    -0.136441553527E+04    0.37797E-04   -0.10047E-03  2584   0.632E-02    0.493E-02
DAV:   9    -0.136441551175E+04    0.23516E-04   -0.40431E-04  2488   0.381E-02    0.274E-02
DAV:  10    -0.136441552111E+04   -0.93607E-05   -0.13078E-04  2520   0.229E-02    0.227E-02
DAV:  11    -0.136441551714E+04    0.39728E-05   -0.57075E-05  2400   0.159E-02    0.119E-02
DAV:  12    -0.136441551760E+04   -0.45508E-06   -0.29573E-05  2240   0.113E-02    0.111E-02
DAV:  13    -0.136441551657E+04    0.10205E-05   -0.15975E-05  1856   0.754E-03    0.546E-03
DAV:  14    -0.136441551628E+04    0.29440E-06   -0.29785E-06  1136   0.517E-03
  17 F= -.13644155E+04 E0= -.13644155E+04  d E =-.417309E+00
 BRION: g(F)=  0.138E+00 g(S)=  0.000E+00 retain N=  3 mean eig= 5.42
 eig:   7.266  7.266  1.730
 bond charge predicted
       N       E                     dE             d eps       ncg     rms          rms(c)
DAV:   1    -0.136444498331E+04   -0.29467E-01   -0.85285E+01  1392   0.131E+01    0.150E+00
DAV:   2    -0.136488454647E+04   -0.43956E+00   -0.46384E+00  2312   0.517E+00    0.770E-01
DAV:   3    -0.136490987967E+04   -0.25333E-01   -0.36591E-01  2568   0.994E-01    0.632E-01
DAV:   4    -0.136490497810E+04    0.49016E-02   -0.34109E-02  2592   0.431E-01    0.467E-01
DAV:   5    -0.136489843305E+04    0.65451E-02   -0.17037E-02  2304   0.269E-01    0.210E-01
DAV:   6    -0.136489817588E+04    0.25717E-03   -0.15326E-02  2256   0.226E-01    0.140E-01
DAV:   7    -0.136489833827E+04   -0.16240E-03   -0.72764E-03  2424   0.155E-01    0.125E-01
DAV:   8    -0.136489824177E+04    0.96502E-04   -0.19561E-03  2576   0.909E-02    0.796E-02
DAV:   9    -0.136489817906E+04    0.62711E-04   -0.88841E-04  2536   0.533E-02    0.384E-02
DAV:  10    -0.136489819769E+04   -0.18626E-04   -0.24904E-04  2568   0.314E-02    0.283E-02
DAV:  11    -0.136489819799E+04   -0.30773E-06   -0.70538E-05  2432   0.184E-02    0.198E-02
DAV:  12    -0.136489819551E+04    0.24854E-05   -0.73003E-05  2208   0.164E-02    0.171E-02
DAV:  13    -0.136489819389E+04    0.16152E-05   -0.36492E-05  2240   0.112E-02    0.112E-02
DAV:  14    -0.136489819287E+04    0.10242E-05   -0.11976E-05  1816   0.660E-03    0.427E-03
DAV:  15    -0.136489819274E+04    0.12913E-06   -0.15911E-06   992   0.418E-03
  18 F= -.13648982E+04 E0= -.13648982E+04  d E =-.482676E+00
 BRION: g(F)=  0.118E+00 g(S)=  0.000E+00 retain N=  2 mean eig= 4.79
 eig:   4.790  4.790
 bond charge predicted
       N       E                     dE             d eps       ncg     rms          rms(c)
DAV:   1    -0.136499611283E+04   -0.97920E-01   -0.15032E+01  1376   0.549E+00    0.649E-01
DAV:   2    -0.136507128938E+04   -0.75177E-01   -0.79101E-01  2288   0.210E+00    0.328E-01
DAV:   3    -0.136507548788E+04   -0.41985E-02   -0.62164E-02  2584   0.416E-01    0.269E-01
DAV:   4    -0.136507445127E+04    0.10366E-02   -0.58794E-03  2584   0.178E-01    0.191E-01
DAV:   5    -0.136507330290E+04    0.11484E-02   -0.34914E-03  2160   0.123E-01    0.703E-02
DAV:   6    -0.136507343018E+04   -0.12728E-03   -0.27061E-03  2376   0.907E-02    0.690E-02
DAV:   7    -0.136507341476E+04    0.15418E-04   -0.76341E-04  2416   0.513E-02    0.507E-02
DAV:   8    -0.136507339356E+04    0.21204E-04   -0.33792E-04  2536   0.340E-02    0.239E-02
DAV:   9    -0.136507339061E+04    0.29459E-05   -0.71409E-05  2280   0.177E-02    0.152E-02
DAV:  10    -0.136507339137E+04   -0.76191E-06   -0.22535E-05  2200   0.995E-03    0.814E-03
DAV:  11    -0.136507339090E+04    0.47781E-06   -0.35646E-06  1184   0.598E-03
  19 F= -.13650734E+04 E0= -.13650734E+04  d E =-.175198E+00
 BRION: g(F)=  0.114E+00 g(S)=  0.000E+00 retain N=  3 mean eig= 4.11
 eig:   5.695  5.695  0.938
 bond charge predicted
       N       E                     dE             d eps       ncg     rms          rms(c)
DAV:   1    -0.136513205278E+04   -0.58661E-01   -0.45452E+01  1392   0.952E+00    0.109E+00
DAV:   2    -0.136536292244E+04   -0.23087E+00   -0.24312E+00  2296   0.372E+00    0.560E-01
DAV:   3    -0.136537581296E+04   -0.12891E-01   -0.19103E-01  2576   0.726E-01    0.456E-01
DAV:   4    -0.136537289074E+04    0.29222E-02   -0.17570E-02  2568   0.308E-01    0.331E-01
DAV:   5    -0.136536936858E+04    0.35222E-02   -0.91184E-03  2272   0.196E-01    0.141E-01
DAV:   6    -0.136536932861E+04    0.39978E-04   -0.77507E-03  2256   0.158E-01    0.976E-02
DAV:   7    -0.136536939102E+04   -0.62416E-04   -0.31929E-03  2392   0.104E-01    0.826E-02
DAV:   8    -0.136536935435E+04    0.36671E-04   -0.98029E-04  2600   0.613E-02    0.502E-02
DAV:   9    -0.136536933073E+04    0.23620E-04   -0.36117E-04  2480   0.358E-02    0.273E-02
DAV:  10    -0.136536933814E+04   -0.74113E-05   -0.12204E-04  2512   0.210E-02    0.196E-02
DAV:  11    -0.136536933741E+04    0.73793E-06   -0.41054E-05  2392   0.142E-02    0.124E-02
DAV:  12    -0.136536933697E+04    0.43628E-06   -0.29307E-05  2224   0.108E-02    0.112E-02
DAV:  13    -0.136536933585E+04    0.11208E-05   -0.14265E-05  1848   0.730E-03    0.602E-03
DAV:  14    -0.136536933549E+04    0.36095E-06   -0.38901E-06  1216   0.514E-03
  20 F= -.13653693E+04 E0= -.13653693E+04  d E =-.295945E+00
 BRION: g(F)=  0.945E-01 g(S)=  0.000E+00 retain N=  2 mean eig= 2.39
 eig:   2.387  2.387
