 running on  160 total cores
 distrk:  each k-point on  160 cores,    1 groups
 distr:  one band on   20 cores,    8 groups
 using from now: INCAR     
 vasp.5.4.4.18Apr17-6-g9f103f2a35 (build May 01 2020 14:22:42) gamma-only       
  
 POSCAR found type information on POSCAR  O  La Zr Li Al
 POSCAR found :  5 types and     188 ions
 scaLAPACK will be used
 LDA part: xc-table for Pade appr. of Perdew
 POSCAR, INCAR and KPOINTS ok, starting setup
 FFT: planning ...
 WAVECAR not read
 WARNING: random wavefunctions but no delay for mixing, default for NELMDL
 entering main loop
       N       E                     dE             d eps       ncg     rms          rms(c)
DAV:   1     0.252976080867E+05    0.25298E+05   -0.42071E+05  1624   0.253E+03
DAV:   2     0.943532984138E+04   -0.15862E+05   -0.14614E+05  1424   0.710E+02
DAV:   3     0.270369043427E+04   -0.67316E+04   -0.61381E+04  1528   0.356E+02
DAV:   4    -0.358717541111E+03   -0.30624E+04   -0.28548E+04  2048   0.222E+02
DAV:   5    -0.141029217604E+04   -0.10516E+04   -0.10132E+04  2528   0.140E+02    0.116E+02
DAV:   6    -0.129623101835E+04    0.11406E+03   -0.14317E+03  2456   0.653E+01    0.503E+01
DAV:   7    -0.131935053523E+04   -0.23120E+02   -0.39321E+02  2560   0.338E+01    0.248E+01
DAV:   8    -0.132910672678E+04   -0.97562E+01   -0.27227E+02  2536   0.272E+01    0.270E+01
DAV:   9    -0.132101570375E+04    0.80910E+01   -0.58423E+01  2472   0.154E+01    0.807E+00
DAV:  10    -0.132196585428E+04   -0.95015E+00   -0.16424E+01  2624   0.816E+00    0.743E+00
DAV:  11    -0.132227863455E+04   -0.31278E+00   -0.65237E+00  2616   0.445E+00    0.415E+00
DAV:  12    -0.132212181533E+04    0.15682E+00   -0.25014E+00  2568   0.357E+00    0.283E+00
DAV:  13    -0.132217609953E+04   -0.54284E-01   -0.84303E-01  2552   0.175E+00    0.186E+00
DAV:  14    -0.132216920807E+04    0.68915E-02   -0.25458E-01  2624   0.104E+00    0.126E+00
DAV:  15    -0.132217533605E+04   -0.61280E-02   -0.88882E-02  2536   0.590E-01    0.969E-01
DAV:  16    -0.132217457559E+04    0.76047E-03   -0.26165E-02  2624   0.318E-01    0.531E-01
DAV:  17    -0.132217283944E+04    0.17361E-02   -0.24257E-02  2376   0.283E-01    0.291E-01
DAV:  18    -0.132217321603E+04   -0.37659E-03   -0.53961E-03  2520   0.154E-01    0.865E-02
DAV:  19    -0.132217330854E+04   -0.92515E-04   -0.12660E-03  2608   0.731E-02    0.924E-02
DAV:  20    -0.132217333960E+04   -0.31052E-04   -0.51717E-04  2608   0.439E-02    0.211E-02
DAV:  21    -0.132217335243E+04   -0.12838E-04   -0.17432E-04  2608   0.242E-02    0.298E-02
DAV:  22    -0.132217337211E+04   -0.19671E-04   -0.87316E-05  2424   0.211E-02    0.114E-02
DAV:  23    -0.132217336705E+04    0.50588E-05   -0.27397E-05  2016   0.103E-02    0.765E-03
DAV:  24    -0.132217337104E+04   -0.39958E-05   -0.90310E-06  1184   0.766E-03    0.267E-03
DAV:  25    -0.132217337035E+04    0.69226E-06   -0.42774E-06   984   0.515E-03
   1 F= -.13221734E+04 E0= -.13221733E+04  d E =-.132217E+04
 BRION: g(F)=  0.727E+02 g(S)=  0.000E+00
 bond charge predicted
       N       E                     dE             d eps       ncg     rms          rms(c)
DAV:   1    -0.128945472375E+04    0.32719E+02   -0.73335E+03  1728   0.126E+02    0.310E+01
DAV:   2    -0.134870538131E+04   -0.59251E+02   -0.67517E+02  2560   0.595E+01    0.153E+01
DAV:   3    -0.134630000812E+04    0.24054E+01   -0.38833E+01  2616   0.155E+01    0.101E+01
DAV:   4    -0.134409219675E+04    0.22078E+01   -0.15054E+01  2424   0.825E+00    0.488E+00
DAV:   5    -0.134395998981E+04    0.13221E+00   -0.45996E+00  2520   0.461E+00    0.336E+00
DAV:   6    -0.134386912869E+04    0.90861E-01   -0.30610E+00  2560   0.311E+00    0.204E+00
DAV:   7    -0.134382001759E+04    0.49111E-01   -0.53466E-01  2536   0.191E+00    0.131E+00
DAV:   8    -0.134382400428E+04   -0.39867E-02   -0.64303E-01  2472   0.130E+00    0.878E-01
DAV:   9    -0.134381838173E+04    0.56225E-02   -0.90896E-02  2528   0.671E-01    0.522E-01
DAV:  10    -0.134381688635E+04    0.14954E-02   -0.33506E-02  2624   0.334E-01    0.222E-01
DAV:  11    -0.134381775253E+04   -0.86618E-03   -0.15597E-02  2608   0.220E-01    0.164E-01
DAV:  12    -0.134381745386E+04    0.29867E-03   -0.30480E-03  2520   0.134E-01    0.810E-02
DAV:  13    -0.134381751414E+04   -0.60280E-04   -0.16999E-03  2600   0.671E-02    0.240E-02
DAV:  14    -0.134381753267E+04   -0.18532E-04   -0.20634E-04  2624   0.326E-02    0.166E-02
DAV:  15    -0.134381753708E+04   -0.44102E-05   -0.61079E-05  2624   0.145E-02    0.833E-03
DAV:  16    -0.134381753866E+04   -0.15778E-05   -0.16799E-05  2016   0.975E-03    0.386E-03
DAV:  17    -0.134381753947E+04   -0.81684E-06   -0.10651E-05  1816   0.628E-03    0.481E-03
DAV:  18    -0.134381753925E+04    0.22067E-06   -0.16174E-06  1056   0.456E-03
   2 F= -.13438175E+04 E0= -.13438175E+04  d E =-.216442E+02
 BRION: g(F)=  0.792E+02 g(S)=  0.000E+00 retain N=  1 mean eig= 0.49
 eig:   0.485
 bond charge predicted
       N       E                     dE             d eps       ncg     rms          rms(c)
DAV:   1    -0.132502225965E+04    0.18795E+02   -0.29361E+03  1384   0.726E+01    0.204E+01
DAV:   2    -0.135639642410E+04   -0.31374E+02   -0.39204E+02  2512   0.345E+01    0.184E+01
DAV:   3    -0.135381950095E+04    0.25769E+01   -0.34646E+01  2568   0.124E+01    0.136E+01
DAV:   4    -0.135150683356E+04    0.23127E+01   -0.26433E+01  2192   0.603E+00    0.618E+00
DAV:   5    -0.135201086904E+04   -0.50404E+00   -0.65969E+00  2456   0.403E+00    0.698E+00
DAV:   6    -0.135119267287E+04    0.81820E+00   -0.10187E+01  2384   0.402E+00    0.206E+00
DAV:   7    -0.135122626691E+04   -0.33594E-01   -0.14580E+00  2376   0.268E+00    0.187E+00
DAV:   8    -0.135119436862E+04    0.31898E-01   -0.68373E-01  2504   0.125E+00    0.549E-01
DAV:   9    -0.135119787944E+04   -0.35108E-02   -0.85422E-02  2456   0.594E-01    0.361E-01
DAV:  10    -0.135119830116E+04   -0.42171E-03   -0.24210E-02  2432   0.290E-01    0.187E-01
DAV:  11    -0.135119841649E+04   -0.11534E-03   -0.82328E-03  2512   0.181E-01    0.137E-01
DAV:  12    -0.135119859415E+04   -0.17766E-03   -0.36787E-03  2536   0.100E-01    0.127E-01
DAV:  13    -0.135119833668E+04    0.25748E-03   -0.20875E-03  2568   0.875E-02    0.375E-02
DAV:  14    -0.135119839589E+04   -0.59214E-04   -0.83057E-04  2520   0.515E-02    0.390E-02
DAV:  15    -0.135119838428E+04    0.11611E-04   -0.12686E-04  2600   0.250E-02    0.234E-02
DAV:  16    -0.135119838088E+04    0.33997E-05   -0.83906E-05  2440   0.150E-02    0.618E-03
DAV:  17    -0.135119838248E+04   -0.15961E-05   -0.10306E-05  1928   0.785E-03    0.344E-03
DAV:  18    -0.135119838261E+04   -0.13373E-06   -0.22677E-06  1192   0.406E-03
   3 F= -.13511984E+04 E0= -.13511984E+04  d E =-.738084E+01
 BRION: g(F)=  0.202E+02 g(S)=  0.000E+00 retain N=  2 mean eig= 0.82
 eig:   0.280  1.364
 bond charge predicted
       N       E                     dE             d eps       ncg     rms          rms(c)
DAV:   1    -0.135007338024E+04    0.11250E+01   -0.67409E+02  1360   0.294E+01    0.848E+00
DAV:   2    -0.135518535561E+04   -0.51120E+01   -0.59907E+01  2456   0.151E+01    0.502E+00
DAV:   3    -0.135487567892E+04    0.30968E+00   -0.36032E+00  2336   0.481E+00    0.399E+00
DAV:   4    -0.135470030080E+04    0.17538E+00   -0.35236E+00  2128   0.260E+00    0.201E+00
DAV:   5    -0.135470064479E+04   -0.34399E-03   -0.54321E-01  2272   0.145E+00    0.202E+00
DAV:   6    -0.135463475164E+04    0.65893E-01   -0.38094E-01  2256   0.108E+00    0.657E-01
DAV:   7    -0.135464023030E+04   -0.54787E-02   -0.22180E-01  2312   0.735E-01    0.537E-01
DAV:   8    -0.135464227046E+04   -0.20402E-02   -0.42503E-02  2488   0.345E-01    0.538E-01
DAV:   9    -0.135463744083E+04    0.48296E-02   -0.15613E-02  2504   0.220E-01    0.222E-01
DAV:  10    -0.135463754309E+04   -0.10225E-03   -0.13698E-02  2504   0.168E-01    0.101E-01
DAV:  11    -0.135463747941E+04    0.63679E-04   -0.14732E-03  2528   0.824E-02    0.657E-02
DAV:  12    -0.135463748418E+04   -0.47706E-05   -0.51346E-04  2592   0.378E-02    0.344E-02
DAV:  13    -0.135463748172E+04    0.24594E-05   -0.21058E-04  2528   0.263E-02    0.221E-02
DAV:  14    -0.135463747902E+04    0.26987E-05   -0.70046E-05  2312   0.169E-02    0.145E-02
DAV:  15    -0.135463747921E+04   -0.18734E-06   -0.25835E-05  2248   0.894E-03    0.809E-03
DAV:  16    -0.135463747816E+04    0.10526E-05   -0.41074E-06  1328   0.525E-03    0.423E-03
DAV:  17    -0.135463747828E+04   -0.12701E-06   -0.67866E-06  1624   0.497E-03
   4 F= -.13546375E+04 E0= -.13546375E+04  d E =-.343910E+01
 BRION: g(F)=  0.544E+01 g(S)=  0.000E+00 retain N=  3 mean eig= 1.79
 eig:   4.592  0.393  0.393
 bond charge predicted
       N       E                     dE             d eps       ncg     rms          rms(c)
DAV:   1    -0.135625637040E+04   -0.16189E+01   -0.22961E+02  1352   0.210E+01    0.368E+00
DAV:   2    -0.135739825752E+04   -0.11419E+01   -0.12258E+01  2272   0.781E+00    0.189E+00
DAV:   3    -0.135741365782E+04   -0.15400E-01   -0.84279E-01  2616   0.168E+00    0.160E+00
DAV:   4    -0.135737427788E+04    0.39380E-01   -0.28180E-01  2496   0.996E-01    0.748E-01
DAV:   5    -0.135737171310E+04    0.25648E-02   -0.73566E-02  2456   0.579E-01    0.557E-01
DAV:   6    -0.135736967183E+04    0.20413E-02   -0.55480E-02  2536   0.412E-01    0.249E-01
DAV:   7    -0.135736952740E+04    0.14442E-03   -0.15821E-02  2296   0.230E-01    0.195E-01
DAV:   8    -0.135736957200E+04   -0.44593E-04   -0.51344E-03  2424   0.119E-01    0.126E-01
DAV:   9    -0.135736935732E+04    0.21467E-03   -0.19515E-03  2624   0.819E-02    0.540E-02
DAV:  10    -0.135736942961E+04   -0.72291E-04   -0.11240E-03  2536   0.601E-02    0.642E-02
DAV:  11    -0.135736938504E+04    0.44570E-04   -0.35072E-04  2528   0.375E-02    0.260E-02
DAV:  12    -0.135736939027E+04   -0.52282E-05   -0.16371E-04  2488   0.214E-02    0.146E-02
DAV:  13    -0.135736939226E+04   -0.19861E-05   -0.25389E-05  2344   0.106E-02    0.112E-02
DAV:  14    -0.135736939098E+04    0.12736E-05   -0.37279E-06  1144   0.560E-03    0.768E-03
DAV:  15    -0.135736939130E+04   -0.31621E-06   -0.17702E-05  1656   0.745E-03    0.430E-03
DAV:  16    -0.135736939132E+04   -0.23618E-07   -0.15954E-06  1040   0.453E-03
   5 F= -.13573694E+04 E0= -.13573694E+04  d E =-.273191E+01
 BRION: g(F)=  0.242E+01 g(S)=  0.000E+00 retain N=  4 mean eig= 1.46
 eig:   4.595  0.756  0.451  0.033
 bond charge predicted
       N       E                     dE             d eps       ncg     rms          rms(c)
DAV:   1    -0.135806880814E+04   -0.69942E+00   -0.21121E+02  1360   0.198E+01    0.314E+00
DAV:   2    -0.135908077281E+04   -0.10120E+01   -0.10676E+01  2304   0.750E+00    0.155E+00
DAV:   3    -0.135909383524E+04   -0.13062E-01   -0.65104E-01  2616   0.147E+00    0.126E+00
DAV:   4    -0.135905987253E+04    0.33963E-01   -0.17432E-01  2504   0.856E-01    0.624E-01
DAV:   5    -0.135905679631E+04    0.30762E-02   -0.64433E-02  2488   0.506E-01    0.411E-01
DAV:   6    -0.135905610807E+04    0.68824E-03   -0.32963E-02  2592   0.324E-01    0.174E-01
DAV:   7    -0.135905604119E+04    0.66876E-04   -0.67261E-03  2376   0.171E-01    0.134E-01
DAV:   8    -0.135905611224E+04   -0.71042E-04   -0.34707E-03  2328   0.955E-02    0.897E-02
DAV:   9    -0.135905600746E+04    0.10478E-03   -0.11006E-03  2600   0.662E-02    0.460E-02
DAV:  10    -0.135905603806E+04   -0.30601E-04   -0.68518E-04  2536   0.445E-02    0.456E-02
DAV:  11    -0.135905601489E+04    0.23173E-04   -0.18689E-04  2496   0.288E-02    0.201E-02
DAV:  12    -0.135905601717E+04   -0.22779E-05   -0.86673E-05  2368   0.166E-02    0.918E-03
DAV:  13    -0.135905601783E+04   -0.66562E-06   -0.15048E-05  2032   0.893E-03    0.553E-03
DAV:  14    -0.135905601797E+04   -0.13551E-06   -0.63009E-06  1560   0.549E-03
   6 F= -.13590560E+04 E0= -.13590560E+04  d E =-.168663E+01
 BRION: g(F)=  0.134E+01 g(S)=  0.000E+00 retain N=  5 mean eig= 1.37
 eig:   3.684  0.738  0.974  0.974  0.461
 bond charge predicted
       N       E                     dE             d eps       ncg     rms          rms(c)
DAV:   1    -0.135932545556E+04   -0.26944E+00   -0.22931E+02  1360   0.208E+01    0.301E+00
DAV:   2    -0.136048091412E+04   -0.11555E+01   -0.12173E+01  2296   0.783E+00    0.155E+00
DAV:   3    -0.136051220243E+04   -0.31288E-01   -0.81835E-01  2608   0.160E+00    0.130E+00
DAV:   4    -0.136048221331E+04    0.29989E-01   -0.15571E-01  2536   0.815E-01    0.716E-01
DAV:   5    -0.136047221768E+04    0.99956E-02   -0.62493E-02  2488   0.494E-01    0.353E-01
DAV:   6    -0.136047268055E+04   -0.46288E-03   -0.28169E-02  2560   0.323E-01    0.249E-01
DAV:   7    -0.136047224681E+04    0.43374E-03   -0.10397E-02  2472   0.204E-01    0.158E-01
DAV:   8    -0.136047237554E+04   -0.12873E-03   -0.55810E-03  2528   0.122E-01    0.889E-02
DAV:   9    -0.136047230339E+04    0.72157E-04   -0.83530E-04  2568   0.622E-02    0.605E-02
DAV:  10    -0.136047229444E+04    0.89477E-05   -0.66733E-04  2312   0.472E-02    0.346E-02
DAV:  11    -0.136047229407E+04    0.36853E-06   -0.22180E-04  2496   0.317E-02    0.134E-02
DAV:  12    -0.136047230067E+04   -0.66031E-05   -0.87562E-05  2448   0.173E-02    0.129E-02
DAV:  13    -0.136047229991E+04    0.75944E-06   -0.28400E-05  2328   0.111E-02    0.724E-03
DAV:  14    -0.136047229983E+04    0.79322E-07   -0.89060E-06  1696   0.645E-03
   7 F= -.13604723E+04 E0= -.13604723E+04  d E =-.141628E+01
 BRION: g(F)=  0.880E+00 g(S)=  0.000E+00 retain N=  6 mean eig= 1.55
 eig:   4.685  1.594  1.594  0.897  0.271  0.271
 bond charge predicted
       N       E                     dE             d eps       ncg     rms          rms(c)
DAV:   1    -0.136086409469E+04   -0.39179E+00   -0.49625E+01  1392   0.993E+00    0.150E+00
DAV:   2    -0.136111999676E+04   -0.25590E+00   -0.27441E+00  2288   0.386E+00    0.762E-01
DAV:   3    -0.136112976664E+04   -0.97699E-02   -0.21198E-01  2624   0.810E-01    0.611E-01
DAV:   4    -0.136112325389E+04    0.65127E-02   -0.37948E-02  2536   0.428E-01    0.325E-01
DAV:   5    -0.136112180186E+04    0.14520E-02   -0.13278E-02  2472   0.239E-01    0.166E-01
DAV:   6    -0.136112191738E+04   -0.11552E-03   -0.58824E-03  2576   0.148E-01    0.995E-02
DAV:   7    -0.136112187770E+04    0.39678E-04   -0.22351E-03  2264   0.951E-02    0.722E-02
DAV:   8    -0.136112190378E+04   -0.26079E-04   -0.10003E-03  2384   0.526E-02    0.459E-02
DAV:   9    -0.136112189125E+04    0.12535E-04   -0.20833E-04  2576   0.302E-02    0.320E-02
DAV:  10    -0.136112188659E+04    0.46622E-05   -0.19002E-04  2504   0.258E-02    0.208E-02
DAV:  11    -0.136112188512E+04    0.14670E-05   -0.75201E-05  2368   0.174E-02    0.750E-03
DAV:  12    -0.136112188611E+04   -0.99573E-06   -0.17541E-05  1912   0.958E-03    0.635E-03
DAV:  13    -0.136112188591E+04    0.20825E-06   -0.59714E-06  1432   0.583E-03
   8 F= -.13611219E+04 E0= -.13611219E+04  d E =-.649586E+00
 BRION: g(F)=  0.515E+00 g(S)=  0.000E+00 retain N=  7 mean eig= 1.75
 eig:   5.330  2.562  2.562  0.729  0.729  0.318  0.018
 bond charge predicted
       N       E                     dE             d eps       ncg     rms          rms(c)
DAV:   1    -0.136144300706E+04   -0.32112E+00   -0.49326E+01  1384   0.100E+01    0.142E+00
DAV:   2    -0.136170232858E+04   -0.25932E+00   -0.27645E+00  2288   0.389E+00    0.699E-01
DAV:   3    -0.136171409288E+04   -0.11764E-01   -0.21002E-01  2608   0.796E-01    0.563E-01
DAV:   4    -0.136170850447E+04    0.55884E-02   -0.31724E-02  2584   0.406E-01    0.325E-01
DAV:   5    -0.136170645598E+04    0.20485E-02   -0.12858E-02  2472   0.244E-01    0.148E-01
DAV:   6    -0.136170669269E+04   -0.23671E-03   -0.63058E-03  2520   0.153E-01    0.104E-01
DAV:   7    -0.136170667125E+04    0.21440E-04   -0.20473E-03  2472   0.936E-02    0.768E-02
DAV:   8    -0.136170668145E+04   -0.10200E-04   -0.12590E-03  2480   0.597E-02    0.431E-02
DAV:   9    -0.136170666998E+04    0.11470E-04   -0.21267E-04  2584   0.321E-02    0.320E-02
DAV:  10    -0.136170666218E+04    0.77991E-05   -0.14506E-04  2504   0.240E-02    0.164E-02
DAV:  11    -0.136170666365E+04   -0.14663E-05   -0.49077E-05  2424   0.149E-02    0.687E-03
DAV:  12    -0.136170666467E+04   -0.10270E-05   -0.13839E-05  1920   0.827E-03    0.650E-03
DAV:  13    -0.136170666435E+04    0.32832E-06   -0.61267E-06  1488   0.585E-03
   9 F= -.13617067E+04 E0= -.13617067E+04  d E =-.584778E+00
 BRION: g(F)=  0.403E+00 g(S)=  0.000E+00 retain N=  8 mean eig= 1.72
 eig:   5.629  2.574  2.574  0.795  0.795  0.783  0.333  0.299
 bond charge predicted
       N       E                     dE             d eps       ncg     rms          rms(c)
DAV:   1    -0.136198630804E+04   -0.27964E+00   -0.65106E+01  1392   0.117E+01    0.148E+00
DAV:   2    -0.136233802624E+04   -0.35172E+00   -0.37750E+00  2304   0.471E+00    0.748E-01
DAV:   3    -0.136235881869E+04   -0.20792E-01   -0.30634E-01  2616   0.946E-01    0.626E-01
DAV:   4    -0.136235417639E+04    0.46423E-02   -0.34488E-02  2624   0.449E-01    0.437E-01
DAV:   5    -0.136234980990E+04    0.43665E-02   -0.15308E-02  2456   0.274E-01    0.200E-01
DAV:   6    -0.136234979623E+04    0.13672E-04   -0.12873E-02  2344   0.235E-01    0.141E-01
DAV:   7    -0.136234996102E+04   -0.16479E-03   -0.66201E-03  2384   0.153E-01    0.131E-01
DAV:   8    -0.136234988596E+04    0.75063E-04   -0.19941E-03  2592   0.847E-02    0.758E-02
DAV:   9    -0.136234983001E+04    0.55942E-04   -0.68030E-04  2608   0.504E-02    0.401E-02
DAV:  10    -0.136234984310E+04   -0.13084E-04   -0.26709E-04  2616   0.315E-02    0.266E-02
DAV:  11    -0.136234984322E+04   -0.11745E-06   -0.88730E-05  2464   0.199E-02    0.183E-02
DAV:  12    -0.136234984132E+04    0.18925E-05   -0.54949E-05  2304   0.167E-02    0.165E-02
DAV:  13    -0.136234983875E+04    0.25752E-05   -0.37131E-05  2216   0.114E-02    0.845E-03
DAV:  14    -0.136234983860E+04    0.15199E-06   -0.12883E-05  1760   0.686E-03    0.277E-03
DAV:  15    -0.136234983866E+04   -0.63679E-07   -0.11472E-06   984   0.388E-03
  10 F= -.13623498E+04 E0= -.13623498E+04  d E =-.643174E+00
 BRION: g(F)=  0.285E+00 g(S)=  0.000E+00 retain N=  9 mean eig= 2.69
 eig:   6.119  6.119  4.937  2.353  2.353  0.947  0.947  0.211  0.211
 bond charge predicted
       N       E                     dE             d eps       ncg     rms          rms(c)
DAV:   1    -0.136251855928E+04   -0.16872E+00   -0.83158E+01  1392   0.132E+01    0.163E+00
DAV:   2    -0.136297065716E+04   -0.45210E+00   -0.48383E+00  2312   0.531E+00    0.825E-01
DAV:   3    -0.136299778668E+04   -0.27130E-01   -0.39271E-01  2592   0.107E+00    0.688E-01
DAV:   4    -0.136299252914E+04    0.52575E-02   -0.42052E-02  2608   0.496E-01    0.495E-01
DAV:   5    -0.136298699504E+04    0.55341E-02   -0.19637E-02  2424   0.296E-01    0.225E-01
DAV:   6    -0.136298698217E+04    0.12869E-04   -0.15417E-02  2368   0.245E-01    0.152E-01
DAV:   7    -0.136298714395E+04   -0.16178E-03   -0.73807E-03  2408   0.161E-01    0.135E-01
DAV:   8    -0.136298706030E+04    0.83656E-04   -0.25903E-03  2568   0.983E-02    0.775E-02
DAV:   9    -0.136298701224E+04    0.48056E-04   -0.77905E-04  2592   0.533E-02    0.428E-02
DAV:  10    -0.136298702716E+04   -0.14920E-04   -0.25201E-04  2608   0.312E-02    0.293E-02
DAV:  11    -0.136298702790E+04   -0.73932E-06   -0.82549E-05  2504   0.191E-02    0.203E-02
DAV:  12    -0.136298702550E+04    0.23962E-05   -0.64040E-05  2344   0.171E-02    0.167E-02
DAV:  13    -0.136298702333E+04    0.21763E-05   -0.41051E-05  2272   0.119E-02    0.861E-03
DAV:  14    -0.136298702338E+04   -0.48836E-07   -0.12763E-05  1760   0.679E-03    0.357E-03
DAV:  15    -0.136298702331E+04    0.64392E-07   -0.12362E-06   976   0.400E-03
  11 F= -.13629870E+04 E0= -.13629870E+04  d E =-.637185E+00
 BRION: g(F)=  0.217E+00 g(S)=  0.000E+00 retain N=  8 mean eig= 2.36
 eig:   4.404  4.404  3.095  3.095  1.266  1.266  0.677  0.677
 bond charge predicted
       N       E                     dE             d eps       ncg     rms          rms(c)
DAV:   1    -0.136315677137E+04   -0.16975E+00   -0.32326E+01  1368   0.818E+00    0.102E+00
DAV:   2    -0.136332492905E+04   -0.16816E+00   -0.17937E+00  2288   0.318E+00    0.509E-01
DAV:   3    -0.136333448047E+04   -0.95514E-02   -0.14316E-01  2600   0.659E-01    0.415E-01
DAV:   4    -0.136333201393E+04    0.24665E-02   -0.15358E-02  2608   0.299E-01    0.285E-01
DAV:   5    -0.136332984259E+04    0.21713E-02   -0.76553E-03  2352   0.195E-01    0.117E-01
DAV:   6    -0.136333004092E+04   -0.19832E-03   -0.60500E-03  2432   0.152E-01    0.100E-01
DAV:   7    -0.136333003285E+04    0.80687E-05   -0.21711E-03  2392   0.896E-02    0.794E-02
DAV:   8    -0.136333000947E+04    0.23381E-04   -0.97778E-04  2512   0.557E-02    0.368E-02
DAV:   9    -0.136332999830E+04    0.11170E-04   -0.20537E-04  2456   0.298E-02    0.243E-02
DAV:  10    -0.136332999970E+04   -0.13976E-05   -0.71962E-05  2528   0.169E-02    0.163E-02
DAV:  11    -0.136332999849E+04    0.12062E-05   -0.30889E-05  2384   0.116E-02    0.819E-03
DAV:  12    -0.136332999866E+04   -0.16764E-06   -0.11568E-05  1840   0.812E-03    0.739E-03
DAV:  13    -0.136332999833E+04    0.33226E-06   -0.89533E-06  1632   0.596E-03
  12 F= -.13633300E+04 E0= -.13633300E+04  d E =-.342975E+00
 BRION: g(F)=  0.188E+00 g(S)=  0.000E+00 retain N=  9 mean eig= 3.25
 eig:   7.896  7.896  4.027  4.027  1.504  1.504  0.615  0.890  0.890
 bond charge predicted
       N       E                     dE             d eps       ncg     rms          rms(c)
DAV:   1    -0.136329684206E+04    0.33157E-01   -0.10799E+02  1376   0.149E+01    0.172E+00
DAV:   2    -0.136385625689E+04   -0.55941E+00   -0.59055E+00  2304   0.583E+00    0.882E-01
DAV:   3    -0.136389096501E+04   -0.34708E-01   -0.47607E-01  2600   0.115E+00    0.731E-01
DAV:   4    -0.136388588908E+04    0.50759E-02   -0.42676E-02  2608   0.503E-01    0.556E-01
DAV:   5    -0.136387815370E+04    0.77354E-02   -0.21833E-02  2328   0.310E-01    0.254E-01
DAV:   6    -0.136387806911E+04    0.84584E-04   -0.20839E-02  2296   0.270E-01    0.166E-01
DAV:   7    -0.136387822535E+04   -0.15623E-03   -0.89654E-03  2424   0.176E-01    0.143E-01
DAV:   8    -0.136387811808E+04    0.10727E-03   -0.28681E-03  2536   0.107E-01    0.796E-02
DAV:   9    -0.136387806435E+04    0.53726E-04   -0.90630E-04  2536   0.571E-02    0.438E-02
DAV:  10    -0.136387808276E+04   -0.18406E-04   -0.24530E-04  2592   0.313E-02    0.302E-02
DAV:  11    -0.136387808300E+04   -0.24705E-06   -0.84422E-05  2544   0.191E-02    0.220E-02
DAV:  12    -0.136387808096E+04    0.20410E-05   -0.66121E-05  2408   0.171E-02    0.188E-02
DAV:  13    -0.136387807804E+04    0.29254E-05   -0.42819E-05  2208   0.118E-02    0.994E-03
DAV:  14    -0.136387807766E+04    0.38005E-06   -0.12577E-05  1768   0.680E-03    0.398E-03
DAV:  15    -0.136387807752E+04    0.13853E-06   -0.16317E-06   984   0.437E-03
  13 F= -.13638781E+04 E0= -.13638781E+04  d E =-.548079E+00
 BRION: g(F)=  0.141E+00 g(S)=  0.000E+00 retain N=  6 mean eig= 3.69
 eig:   7.883  7.883  1.945  1.945  1.244  1.244
 bond charge predicted
       N       E                     dE             d eps       ncg     rms          rms(c)
DAV:   1    -0.136396081346E+04   -0.82736E-01   -0.50390E+01  1368   0.101E+01    0.118E+00
DAV:   2    -0.136421650706E+04   -0.25569E+00   -0.26878E+00  2304   0.393E+00    0.601E-01
DAV:   3    -0.136423132028E+04   -0.14813E-01   -0.21064E-01  2608   0.755E-01    0.484E-01
DAV:   4    -0.136422816171E+04    0.31586E-02   -0.19508E-02  2608   0.336E-01    0.345E-01
DAV:   5    -0.136422497015E+04    0.31916E-02   -0.10549E-02  2304   0.213E-01    0.137E-01
DAV:   6    -0.136422525596E+04   -0.28581E-03   -0.77391E-03  2400   0.165E-01    0.110E-01
DAV:   7    -0.136422523951E+04    0.16444E-04   -0.28545E-03  2400   0.100E-01    0.821E-02
DAV:   8    -0.136422521355E+04    0.25963E-04   -0.11276E-03  2576   0.634E-02    0.427E-02
DAV:   9    -0.136422520108E+04    0.12468E-04   -0.23716E-04  2440   0.324E-02    0.290E-02
DAV:  10    -0.136422520268E+04   -0.16013E-05   -0.83411E-05  2488   0.178E-02    0.169E-02
DAV:  11    -0.136422520265E+04    0.36380E-07   -0.31932E-05  2440   0.120E-02    0.947E-03
DAV:  12    -0.136422520280E+04   -0.15421E-06   -0.16063E-05  2112   0.898E-03    0.862E-03
DAV:  13    -0.136422520229E+04    0.50962E-06   -0.99995E-06  1744   0.622E-03
  14 F= -.13642252E+04 E0= -.13642252E+04  d E =-.347125E+00
 BRION: g(F)=  0.122E+00 g(S)=  0.000E+00 retain N=  3 mean eig= 3.71
 eig:   1.376  4.876  4.876
 bond charge predicted
       N       E                     dE             d eps       ncg     rms          rms(c)
DAV:   1    -0.136430729125E+04   -0.82088E-01   -0.35184E+01  1360   0.845E+00    0.986E-01
DAV:   2    -0.136448714406E+04   -0.17985E+00   -0.18961E+00  2304   0.328E+00    0.507E-01
DAV:   3    -0.136449731914E+04   -0.10175E-01   -0.14729E-01  2600   0.650E-01    0.408E-01
DAV:   4    -0.136449500263E+04    0.23165E-02   -0.14287E-02  2600   0.284E-01    0.284E-01
DAV:   5    -0.136449296265E+04    0.20400E-02   -0.76997E-03  2304   0.176E-01    0.109E-01
DAV:   6    -0.136449317348E+04   -0.21083E-03   -0.46500E-03  2448   0.126E-01    0.908E-02
DAV:   7    -0.136449315034E+04    0.23139E-04   -0.17064E-03  2432   0.778E-02    0.627E-02
DAV:   8    -0.136449314138E+04    0.89604E-05   -0.74702E-04  2560   0.511E-02    0.350E-02
DAV:   9    -0.136449313554E+04    0.58451E-05   -0.13457E-04  2448   0.253E-02    0.257E-02
DAV:  10    -0.136449313498E+04    0.55529E-06   -0.59888E-05  2520   0.146E-02    0.133E-02
DAV:  11    -0.136449313566E+04   -0.68039E-06   -0.21024E-05  2240   0.101E-02    0.727E-03
DAV:  12    -0.136449313552E+04    0.14405E-06   -0.91358E-06  1816   0.717E-03
  15 F= -.13644931E+04 E0= -.13644931E+04  d E =-.267933E+00
 BRION: g(F)=  0.103E+00 g(S)=  0.000E+00 retain N=  3 mean eig= 5.75
 eig:   7.630  7.630  1.983
 bond charge predicted
       N       E                     dE             d eps       ncg     rms          rms(c)
DAV:   1    -0.136454181775E+04   -0.48682E-01   -0.46910E+01  1360   0.969E+00    0.113E+00
DAV:   2    -0.136477905251E+04   -0.23723E+00   -0.24936E+00  2304   0.377E+00    0.586E-01
DAV:   3    -0.136479240772E+04   -0.13355E-01   -0.19500E-01  2608   0.721E-01    0.470E-01
DAV:   4    -0.136478925619E+04    0.31515E-02   -0.18562E-02  2600   0.322E-01    0.327E-01
DAV:   5    -0.136478648247E+04    0.27737E-02   -0.94855E-03  2312   0.194E-01    0.132E-01
DAV:   6    -0.136478667921E+04   -0.19674E-03   -0.61506E-03  2400   0.144E-01    0.982E-02
DAV:   7    -0.136478666530E+04    0.13913E-04   -0.24453E-03  2408   0.921E-02    0.716E-02
DAV:   8    -0.136478665506E+04    0.10238E-04   -0.98288E-04  2536   0.590E-02    0.430E-02
DAV:   9    -0.136478664398E+04    0.11075E-04   -0.21313E-04  2512   0.303E-02    0.297E-02
DAV:  10    -0.136478664340E+04    0.58455E-06   -0.89681E-05  2544   0.175E-02    0.164E-02
DAV:  11    -0.136478664413E+04   -0.73227E-06   -0.31526E-05  2360   0.120E-02    0.957E-03
DAV:  12    -0.136478664386E+04    0.26901E-06   -0.16022E-05  2168   0.913E-03    0.793E-03
DAV:  13    -0.136478664358E+04    0.28583E-06   -0.10017E-05  1760   0.610E-03    0.448E-03
DAV:  14    -0.136478664335E+04    0.22908E-06   -0.16941E-06   984   0.435E-03
  16 F= -.13647866E+04 E0= -.13647866E+04  d E =-.293508E+00
 BRION: g(F)=  0.853E-01 g(S)=  0.000E+00 retain N=  2 mean eig= 3.62
 eig:   3.622  3.622
 bond charge predicted
       N       E                     dE             d eps       ncg     rms          rms(c)
DAV:   1    -0.136486282874E+04   -0.76185E-01   -0.10275E+01  1376   0.456E+00    0.564E-01
DAV:   2    -0.136491403324E+04   -0.51204E-01   -0.54420E-01  2304   0.176E+00    0.288E-01
DAV:   3    -0.136491665102E+04   -0.26178E-02   -0.42757E-02  2600   0.347E-01    0.229E-01
DAV:   4    -0.136491566283E+04    0.98820E-03   -0.47256E-03  2568   0.160E-01    0.144E-01
DAV:   5    -0.136491510043E+04    0.56240E-03   -0.26059E-03  2272   0.103E-01    0.559E-02
DAV:   6    -0.136491517736E+04   -0.76930E-04   -0.14210E-03  2504   0.705E-02    0.518E-02
DAV:   7    -0.136491516680E+04    0.10556E-04   -0.46528E-04  2480   0.408E-02    0.347E-02
DAV:   8    -0.136491516183E+04    0.49772E-05   -0.17738E-04  2552   0.247E-02    0.175E-02
DAV:   9    -0.136491516031E+04    0.15204E-05   -0.29246E-05  2440   0.124E-02    0.127E-02
DAV:  10    -0.136491516085E+04   -0.54404E-06   -0.24620E-05  1968   0.927E-03    0.842E-03
DAV:  11    -0.136491516005E+04    0.79953E-06   -0.57428E-06  1408   0.711E-03
  17 F= -.13649152E+04 E0= -.13649152E+04  d E =-.128517E+00
 BRION: g(F)=  0.801E-01 g(S)=  0.000E+00 retain N=  3 mean eig= 3.47
 eig:   4.645  4.645  1.110
 bond charge predicted
       N       E                     dE             d eps       ncg     rms          rms(c)
DAV:   1    -0.136494878586E+04   -0.33625E-01   -0.33959E+01  1368   0.826E+00    0.958E-01
DAV:   2    -0.136511984547E+04   -0.17106E+00   -0.18056E+00  2296   0.320E+00    0.503E-01
DAV:   3    -0.136512938289E+04   -0.95374E-02   -0.14291E-01  2600   0.629E-01    0.404E-01
DAV:   4    -0.136512698735E+04    0.23955E-02   -0.14224E-02  2600   0.279E-01    0.278E-01
DAV:   5    -0.136512492439E+04    0.20630E-02   -0.67381E-03  2352   0.165E-01    0.116E-01
DAV:   6    -0.136512497711E+04   -0.52723E-04   -0.44801E-03  2384   0.124E-01    0.811E-02
DAV:   7    -0.136512499127E+04   -0.14167E-04   -0.18488E-03  2392   0.812E-02    0.624E-02
DAV:   8    -0.136512498354E+04    0.77323E-05   -0.72790E-04  2552   0.499E-02    0.378E-02
DAV:   9    -0.136512497371E+04    0.98327E-05   -0.18431E-04  2520   0.276E-02    0.254E-02
DAV:  10    -0.136512497430E+04   -0.58593E-06   -0.74916E-05  2560   0.161E-02    0.160E-02
DAV:  11    -0.136512497409E+04    0.20085E-06   -0.30335E-05  2336   0.115E-02    0.952E-03
DAV:  12    -0.136512497377E+04    0.32932E-06   -0.15155E-05  2096   0.886E-03    0.815E-03
DAV:  13    -0.136512497328E+04    0.48983E-06   -0.98838E-06  1752   0.629E-03
  18 F= -.13651250E+04 E0= -.13651250E+04  d E =-.209813E+00
 BRION: g(F)=  0.624E-01 g(S)=  0.000E+00 retain N=  2 mean eig= 2.57
 eig:   2.571  2.571
 bond charge predicted
       N       E                     dE             d eps       ncg     rms          rms(c)
DAV:   1    -0.136518699370E+04   -0.62020E-01   -0.12201E+01  1344   0.493E+00    0.593E-01
DAV:   2    -0.136524869776E+04   -0.61704E-01   -0.65418E-01  2312   0.195E+00    0.305E-01
DAV:   3    -0.136525187363E+04   -0.31759E-02   -0.49947E-02  2600   0.372E-01    0.246E-01
DAV:   4    -0.136525093426E+04    0.93938E-03   -0.51781E-03  2592   0.169E-01    0.166E-01
DAV:   5    -0.136525021280E+04    0.72146E-03   -0.26712E-03  2296   0.103E-01    0.662E-02
DAV:   6    -0.136525026349E+04   -0.50688E-04   -0.15512E-03  2392   0.726E-02    0.531E-02
DAV:   7    -0.136525025704E+04    0.64542E-05   -0.61583E-04  2400   0.466E-02    0.375E-02
DAV:   8    -0.136525025517E+04    0.18625E-05   -0.27937E-04  2544   0.303E-02    0.223E-02
DAV:   9    -0.136525025167E+04    0.35047E-05   -0.57779E-05  2376   0.160E-02    0.157E-02
DAV:  10    -0.136525025143E+04    0.23979E-06   -0.33378E-05  2312   0.106E-02    0.906E-03
DAV:  11    -0.136525025106E+04    0.37265E-06   -0.83586E-06  1552   0.757E-03
  19 F= -.13652503E+04 E0= -.13652503E+04  d E =-.125278E+00
 BRION: g(F)=  0.545E-01 g(S)=  0.000E+00 retain N=  3 mean eig= 3.64
 eig:   1.139  4.895  4.895
 bond charge predicted
       N       E                     dE             d eps       ncg     rms          rms(c)
DAV:   1    -0.136528548204E+04   -0.35231E-01   -0.20177E+01  1360   0.632E+00    0.727E-01
DAV:   2    -0.136538607156E+04   -0.10059E+00   -0.10602E+00  2304   0.244E+00    0.379E-01
DAV:   3    -0.136539120961E+04   -0.51381E-02   -0.80300E-02  2608   0.484E-01    0.301E-01
DAV:   4    -0.136538964840E+04    0.15612E-02   -0.81684E-03  2584   0.211E-01    0.204E-01
DAV:   5    -0.136538837973E+04    0.12687E-02   -0.37563E-03  2320   0.130E-01    0.829E-02
DAV:   6    -0.136538840783E+04   -0.28098E-04   -0.27155E-03  2376   0.972E-02    0.586E-02
DAV:   7    -0.136538842656E+04   -0.18735E-04   -0.96435E-04  2384   0.589E-02    0.483E-02
DAV:   8    -0.136538842109E+04    0.54710E-05   -0.37231E-04  2536   0.343E-02    0.270E-02
DAV:   9    -0.136538841275E+04    0.83404E-05   -0.11323E-04  2424   0.212E-02    0.165E-02
DAV:  10    -0.136538841473E+04   -0.19776E-05   -0.46956E-05  2456   0.133E-02    0.128E-02
DAV:  11    -0.136538841336E+04    0.13673E-05   -0.20363E-05  2088   0.961E-03    0.572E-03
DAV:  12    -0.136538841368E+04   -0.31773E-06   -0.75815E-06  1720   0.670E-03
  20 F= -.13653884E+04 E0= -.13653884E+04  d E =-.138163E+00
 BRION: g(F)=  0.462E-01 g(S)=  0.000E+00 retain N=  3 mean eig= 5.69
 eig:   7.660  7.660  1.736
