 running on  160 total cores
 distrk:  each k-point on  160 cores,    1 groups
 distr:  one band on   20 cores,    8 groups
 using from now: INCAR     
 vasp.5.4.4.18Apr17-6-g9f103f2a35 (build May 01 2020 14:22:42) gamma-only       
  
 POSCAR found type information on POSCAR  O  La Zr Li Al
 POSCAR found :  5 types and     188 ions
 scaLAPACK will be used
 LDA part: xc-table for Pade appr. of Perdew
 POSCAR, INCAR and KPOINTS ok, starting setup
 FFT: planning ...
 WAVECAR not read
 WARNING: random wavefunctions but no delay for mixing, default for NELMDL
 entering main loop
       N       E                     dE             d eps       ncg     rms          rms(c)
DAV:   1     0.253448893562E+05    0.25345E+05   -0.41899E+05  1592   0.253E+03
DAV:   2     0.942536895841E+04   -0.15920E+05   -0.14769E+05  1432   0.706E+02
DAV:   3     0.268905945216E+04   -0.67363E+04   -0.61201E+04  1488   0.356E+02
DAV:   4    -0.364393337265E+03   -0.30535E+04   -0.28555E+04  2024   0.224E+02
DAV:   5    -0.139233202124E+04   -0.10279E+04   -0.98314E+03  2552   0.140E+02    0.116E+02
DAV:   6    -0.129429841251E+04    0.98034E+02   -0.15300E+03  2440   0.666E+01    0.502E+01
DAV:   7    -0.131721548131E+04   -0.22917E+02   -0.40588E+02  2544   0.347E+01    0.258E+01
DAV:   8    -0.132340703685E+04   -0.61916E+01   -0.25381E+02  2528   0.275E+01    0.246E+01
DAV:   9    -0.131853120249E+04    0.48758E+01   -0.46787E+01  2536   0.144E+01    0.779E+00
DAV:  10    -0.131929721338E+04   -0.76601E+00   -0.15642E+01  2616   0.771E+00    0.716E+00
DAV:  11    -0.131963070435E+04   -0.33349E+00   -0.56371E+00  2624   0.416E+00    0.422E+00
DAV:  12    -0.131951129642E+04    0.11941E+00   -0.21948E+00  2552   0.338E+00    0.287E+00
DAV:  13    -0.131955797495E+04   -0.46679E-01   -0.94164E-01  2568   0.175E+00    0.195E+00
DAV:  14    -0.131954576525E+04    0.12210E-01   -0.26944E-01  2608   0.107E+00    0.117E+00
DAV:  15    -0.131955270652E+04   -0.69413E-02   -0.93751E-02  2584   0.577E-01    0.829E-01
DAV:  16    -0.131955334888E+04   -0.64236E-03   -0.29119E-02  2600   0.329E-01    0.575E-01
DAV:  17    -0.131955287458E+04    0.47431E-03   -0.24022E-02  2416   0.290E-01    0.309E-01
DAV:  18    -0.131955313484E+04   -0.26026E-03   -0.51037E-03  2440   0.158E-01    0.163E-01
DAV:  19    -0.131955305291E+04    0.81930E-04   -0.28965E-03  2480   0.105E-01    0.971E-02
DAV:  20    -0.131955310441E+04   -0.51497E-04   -0.64087E-04  2536   0.461E-02    0.533E-02
DAV:  21    -0.131955313987E+04   -0.35458E-04   -0.31463E-04  2536   0.328E-02    0.444E-02
DAV:  22    -0.131955314925E+04   -0.93857E-05   -0.99707E-05  2528   0.186E-02    0.203E-02
DAV:  23    -0.131955314646E+04    0.27938E-05   -0.42745E-05  2184   0.122E-02    0.115E-02
DAV:  24    -0.131955315021E+04   -0.37491E-05   -0.18253E-05  1984   0.839E-03    0.377E-03
DAV:  25    -0.131955315039E+04   -0.18621E-06   -0.41912E-06  1032   0.505E-03
   1 F= -.13195532E+04 E0= -.13195531E+04  d E =-.131955E+04
 BRION: g(F)=  0.752E+02 g(S)=  0.000E+00
 bond charge predicted
       N       E                     dE             d eps       ncg     rms          rms(c)
DAV:   1    -0.128457358820E+04    0.34980E+02   -0.78926E+03  1704   0.133E+02    0.290E+01
DAV:   2    -0.134495512871E+04   -0.60382E+02   -0.69355E+02  2576   0.603E+01    0.158E+01
DAV:   3    -0.134257578714E+04    0.23793E+01   -0.39463E+01  2616   0.160E+01    0.105E+01
DAV:   4    -0.134020957087E+04    0.23662E+01   -0.14736E+01  2440   0.763E+00    0.502E+00
DAV:   5    -0.133994841212E+04    0.26116E+00   -0.38731E+00  2568   0.441E+00    0.332E+00
DAV:   6    -0.133983219211E+04    0.11622E+00   -0.28326E+00  2568   0.306E+00    0.178E+00
DAV:   7    -0.133982063625E+04    0.11556E-01   -0.58513E-01  2544   0.179E+00    0.130E+00
DAV:   8    -0.133981176561E+04    0.88706E-02   -0.41828E-01  2600   0.107E+00    0.658E-01
DAV:   9    -0.133981254120E+04   -0.77559E-03   -0.58235E-02  2576   0.580E-01    0.532E-01
DAV:  10    -0.133980946842E+04    0.30728E-02   -0.37565E-02  2608   0.357E-01    0.202E-01
DAV:  11    -0.133981057150E+04   -0.11031E-02   -0.16612E-02  2568   0.244E-01    0.186E-01
DAV:  12    -0.133981037582E+04    0.19568E-03   -0.30969E-03  2600   0.115E-01    0.105E-01
DAV:  13    -0.133981029854E+04    0.77279E-04   -0.20364E-03  2512   0.783E-02    0.282E-02
DAV:  14    -0.133981032628E+04   -0.27744E-04   -0.32131E-04  2552   0.394E-02    0.130E-02
DAV:  15    -0.133981033495E+04   -0.86671E-05   -0.66414E-05  2624   0.181E-02    0.919E-03
DAV:  16    -0.133981033548E+04   -0.53173E-06   -0.19228E-05  1960   0.998E-03    0.606E-03
DAV:  17    -0.133981033707E+04   -0.15854E-05   -0.15277E-05  1984   0.795E-03    0.478E-03
DAV:  18    -0.133981033685E+04    0.21973E-06   -0.15251E-06  1032   0.467E-03
   2 F= -.13398103E+04 E0= -.13398103E+04  d E =-.202572E+02
 BRION: g(F)=  0.144E+03 g(S)=  0.000E+00 retain N=  1 mean eig= 0.39
 eig:   0.386
 bond charge predicted
       N       E                     dE             d eps       ncg     rms          rms(c)
DAV:   1    -0.132158517663E+04    0.18225E+02   -0.23917E+03  1336   0.545E+01    0.226E+01
DAV:   2    -0.135423520995E+04   -0.32650E+02   -0.43020E+02  2544   0.378E+01    0.223E+01
DAV:   3    -0.135122290602E+04    0.30123E+01   -0.55291E+01  2480   0.139E+01    0.148E+01
DAV:   4    -0.134760017197E+04    0.36227E+01   -0.22950E+01  2320   0.533E+00    0.577E+00
DAV:   5    -0.134825606081E+04   -0.65589E+00   -0.11093E+01  2504   0.530E+00    0.542E+00
DAV:   6    -0.134770096679E+04    0.55509E+00   -0.27682E+00  2456   0.336E+00    0.322E+00
DAV:   7    -0.134768857289E+04    0.12394E-01   -0.21223E+00  2448   0.217E+00    0.137E+00
DAV:   8    -0.134769502010E+04   -0.64472E-02   -0.56495E-01  2464   0.138E+00    0.110E+00
DAV:   9    -0.134768071271E+04    0.14307E-01   -0.82128E-02  2344   0.721E-01    0.839E-01
DAV:  10    -0.134767630386E+04    0.44088E-02   -0.14528E-01  2288   0.518E-01    0.268E-01
DAV:  11    -0.134767720671E+04   -0.90285E-03   -0.24922E-02  2384   0.281E-01    0.243E-01
DAV:  12    -0.134767661112E+04    0.59560E-03   -0.33929E-03  2624   0.122E-01    0.181E-01
DAV:  13    -0.134767618757E+04    0.42354E-03   -0.35880E-03  2432   0.946E-02    0.672E-02
DAV:  14    -0.134767620108E+04   -0.13506E-04   -0.12248E-03  2592   0.610E-02    0.237E-02
DAV:  15    -0.134767622388E+04   -0.22804E-04   -0.22013E-04  2584   0.294E-02    0.296E-02
DAV:  16    -0.134767621451E+04    0.93735E-05   -0.47189E-05  2408   0.165E-02    0.230E-02
DAV:  17    -0.134767621058E+04    0.39286E-05   -0.36203E-05  2312   0.972E-03    0.936E-03
DAV:  18    -0.134767620993E+04    0.65274E-06   -0.16719E-05  2032   0.679E-03    0.283E-03
DAV:  19    -0.134767621007E+04   -0.14188E-06   -0.25049E-06  1280   0.454E-03
   3 F= -.13476762E+04 E0= -.13476762E+04  d E =-.786587E+01
 BRION: g(F)=  0.219E+02 g(S)=  0.000E+00 retain N=  2 mean eig= 1.37
 eig:   0.200  2.541
 bond charge predicted
       N       E                     dE             d eps       ncg     rms          rms(c)
DAV:   1    -0.134588265115E+04    0.17936E+01   -0.10175E+03  1328   0.404E+01    0.111E+01
DAV:   2    -0.135276138582E+04   -0.68787E+01   -0.78613E+01  2376   0.178E+01    0.727E+00
DAV:   3    -0.135268299518E+04    0.78391E-01   -0.52491E+00  2576   0.550E+00    0.566E+00
DAV:   4    -0.135246840647E+04    0.21459E+00   -0.31270E+00  2192   0.300E+00    0.269E+00
DAV:   5    -0.135248468284E+04   -0.16276E-01   -0.75285E-01  2352   0.186E+00    0.230E+00
DAV:   6    -0.135240856994E+04    0.76113E-01   -0.87032E-01  2304   0.155E+00    0.794E-01
DAV:   7    -0.135241107837E+04   -0.25084E-02   -0.17959E-01  2376   0.855E-01    0.636E-01
DAV:   8    -0.135240912073E+04    0.19576E-02   -0.54988E-02  2480   0.406E-01    0.365E-01
DAV:   9    -0.135240788615E+04    0.12346E-02   -0.23988E-02  2312   0.261E-01    0.167E-01
DAV:  10    -0.135240845178E+04   -0.56563E-03   -0.70248E-03  2376   0.151E-01    0.124E-01
DAV:  11    -0.135240822180E+04    0.22998E-03   -0.90296E-04  2592   0.760E-02    0.888E-02
DAV:  12    -0.135240820454E+04    0.17264E-04   -0.27012E-03  2200   0.777E-02    0.583E-02
DAV:  13    -0.135240818121E+04    0.23327E-04   -0.43143E-04  2496   0.473E-02    0.391E-02
DAV:  14    -0.135240817095E+04    0.10257E-04   -0.21096E-04  2544   0.228E-02    0.111E-02
DAV:  15    -0.135240817345E+04   -0.24927E-05   -0.27142E-05  2408   0.106E-02    0.601E-03
DAV:  16    -0.135240817319E+04    0.25926E-06   -0.67334E-06  1624   0.571E-03
   4 F= -.13524082E+04 E0= -.13524082E+04  d E =-.473196E+01
 BRION: g(F)=  0.561E+01 g(S)=  0.000E+00 retain N=  3 mean eig= 2.58
 eig:   6.960  0.391  0.391
 bond charge predicted
       N       E                     dE             d eps       ncg     rms          rms(c)
DAV:   1    -0.135370180287E+04   -0.12936E+01   -0.27735E+02  1368   0.235E+01    0.405E+00
DAV:   2    -0.135508632757E+04   -0.13845E+01   -0.15242E+01  2280   0.890E+00    0.207E+00
DAV:   3    -0.135511731355E+04   -0.30986E-01   -0.11786E+00  2600   0.206E+00    0.176E+00
DAV:   4    -0.135507082402E+04    0.46490E-01   -0.28669E-01  2592   0.110E+00    0.924E-01
DAV:   5    -0.135506134634E+04    0.94777E-02   -0.10982E-01  2408   0.707E-01    0.564E-01
DAV:   6    -0.135506082639E+04    0.51995E-03   -0.66398E-02  2568   0.511E-01    0.390E-01
DAV:   7    -0.135506009313E+04    0.73326E-03   -0.30193E-02  2376   0.311E-01    0.257E-01
DAV:   8    -0.135506000367E+04    0.89464E-04   -0.82669E-03  2464   0.167E-01    0.142E-01
DAV:   9    -0.135505982008E+04    0.18359E-03   -0.21649E-03  2584   0.926E-02    0.828E-02
DAV:  10    -0.135505996156E+04   -0.14148E-03   -0.20377E-03  2416   0.750E-02    0.935E-02
DAV:  11    -0.135505983402E+04    0.12754E-03   -0.72223E-04  2512   0.552E-02    0.353E-02
DAV:  12    -0.135505985086E+04   -0.16845E-04   -0.37869E-04  2528   0.348E-02    0.216E-02
DAV:  13    -0.135505985044E+04    0.42160E-06   -0.58043E-05  2512   0.164E-02    0.107E-02
DAV:  14    -0.135505985109E+04   -0.65443E-06   -0.17759E-05  2104   0.782E-03    0.580E-03
DAV:  15    -0.135505985126E+04   -0.16439E-06   -0.20491E-06  1064   0.462E-03
   5 F= -.13550599E+04 E0= -.13550599E+04  d E =-.265168E+01
 BRION: g(F)=  0.308E+01 g(S)=  0.000E+00 retain N=  4 mean eig= 2.04
 eig:   6.959  0.206  0.506  0.506
 bond charge predicted
       N       E                     dE             d eps       ncg     rms          rms(c)
DAV:   1    -0.135587094475E+04   -0.81109E+00   -0.17076E+02  1376   0.181E+01    0.270E+00
DAV:   2    -0.135670704972E+04   -0.83610E+00   -0.88531E+00  2304   0.674E+00    0.139E+00
DAV:   3    -0.135672587996E+04   -0.18830E-01   -0.58419E-01  2592   0.137E+00    0.115E+00
DAV:   4    -0.135669942322E+04    0.26457E-01   -0.12718E-01  2520   0.735E-01    0.598E-01
DAV:   5    -0.135669516262E+04    0.42606E-02   -0.54316E-02  2464   0.461E-01    0.353E-01
DAV:   6    -0.135669494011E+04    0.22251E-03   -0.27008E-02  2576   0.312E-01    0.183E-01
DAV:   7    -0.135669493506E+04    0.50422E-05   -0.74390E-03  2480   0.172E-01    0.137E-01
DAV:   8    -0.135669488876E+04    0.46299E-04   -0.20748E-03  2584   0.849E-02    0.678E-02
DAV:   9    -0.135669488333E+04    0.54372E-05   -0.83766E-04  2616   0.527E-02    0.477E-02
DAV:  10    -0.135669489116E+04   -0.78363E-05   -0.26460E-04  2344   0.333E-02    0.381E-02
DAV:  11    -0.135669487961E+04    0.11548E-04   -0.19520E-04  2288   0.244E-02    0.151E-02
DAV:  12    -0.135669488107E+04   -0.14595E-05   -0.72040E-05  2312   0.169E-02    0.905E-03
DAV:  13    -0.135669488112E+04   -0.41749E-07   -0.19176E-05  2016   0.973E-03    0.628E-03
DAV:  14    -0.135669488122E+04   -0.10476E-06   -0.98161E-06  1640   0.600E-03
   6 F= -.13566949E+04 E0= -.13566949E+04  d E =-.163503E+01
 BRION: g(F)=  0.228E+01 g(S)=  0.000E+00 retain N=  5 mean eig= 1.93
 eig:   6.651  1.110  0.699  0.699  0.513
 bond charge predicted
       N       E                     dE             d eps       ncg     rms          rms(c)
DAV:   1    -0.135723929903E+04   -0.54442E+00   -0.25911E+02  1360   0.224E+01    0.294E+00
DAV:   2    -0.135857200075E+04   -0.13327E+01   -0.13990E+01  2272   0.848E+00    0.162E+00
DAV:   3    -0.135862471175E+04   -0.52711E-01   -0.10071E+00  2576   0.176E+00    0.145E+00
DAV:   4    -0.135860270309E+04    0.22009E-01   -0.12469E-01  2584   0.750E-01    0.101E+00
DAV:   5    -0.135857579424E+04    0.26909E-01   -0.96380E-02  2192   0.600E-01    0.376E-01
DAV:   6    -0.135858076250E+04   -0.49683E-02   -0.78624E-02  2432   0.483E-01    0.480E-01
DAV:   7    -0.135857856911E+04    0.21934E-02   -0.22743E-02  2520   0.286E-01    0.326E-01
DAV:   8    -0.135857747470E+04    0.10944E-02   -0.10623E-02  2536   0.178E-01    0.128E-01
DAV:   9    -0.135857746387E+04    0.10831E-04   -0.15210E-03  2528   0.791E-02    0.804E-02
DAV:  10    -0.135857745173E+04    0.12137E-04   -0.42715E-04  2456   0.370E-02    0.347E-02
DAV:  11    -0.135857745950E+04   -0.77674E-05   -0.12231E-04  2592   0.244E-02    0.192E-02
DAV:  12    -0.135857746238E+04   -0.28811E-05   -0.86646E-05  2448   0.173E-02    0.184E-02
DAV:  13    -0.135857745882E+04    0.35536E-05   -0.31683E-05  2208   0.106E-02    0.846E-03
DAV:  14    -0.135857745873E+04    0.95184E-07   -0.61158E-06  1376   0.595E-03
   7 F= -.13585775E+04 E0= -.13585775E+04  d E =-.188258E+01
 BRION: g(F)=  0.142E+01 g(S)=  0.000E+00 retain N=  6 mean eig= 1.94
 eig:   6.623  1.565  1.565  0.631  0.615  0.615
 bond charge predicted
       N       E                     dE             d eps       ncg     rms          rms(c)
DAV:   1    -0.135892772556E+04   -0.35027E+00   -0.15777E+02  1376   0.173E+01    0.231E+00
DAV:   2    -0.135975822476E+04   -0.83050E+00   -0.87302E+00  2304   0.671E+00    0.128E+00
DAV:   3    -0.135979345101E+04   -0.35226E-01   -0.64571E-01  2600   0.135E+00    0.108E+00
DAV:   4    -0.135977721083E+04    0.16240E-01   -0.86352E-02  2568   0.640E-01    0.677E-01
DAV:   5    -0.135976793977E+04    0.92711E-02   -0.41396E-02  2440   0.384E-01    0.273E-01
DAV:   6    -0.135976915537E+04   -0.12156E-02   -0.22686E-02  2512   0.276E-01    0.238E-01
DAV:   7    -0.135976864619E+04    0.50918E-03   -0.83353E-03  2480   0.179E-01    0.160E-01
DAV:   8    -0.135976860740E+04    0.38793E-04   -0.46049E-03  2536   0.112E-01    0.779E-02
DAV:   9    -0.135976856378E+04    0.43618E-04   -0.63641E-04  2376   0.515E-02    0.564E-02
DAV:  10    -0.135976856914E+04   -0.53621E-05   -0.35653E-04  2416   0.321E-02    0.299E-02
DAV:  11    -0.135976856772E+04    0.14157E-05   -0.95693E-05  2480   0.222E-02    0.163E-02
DAV:  12    -0.135976856941E+04   -0.16871E-05   -0.56030E-05  2392   0.149E-02    0.155E-02
DAV:  13    -0.135976856684E+04    0.25741E-05   -0.28765E-05  2088   0.101E-02    0.631E-03
DAV:  14    -0.135976856706E+04   -0.22742E-06   -0.71189E-06  1504   0.604E-03
   8 F= -.13597686E+04 E0= -.13597686E+04  d E =-.119111E+01
 BRION: g(F)=  0.619E+00 g(S)=  0.000E+00 retain N=  6 mean eig= 1.47
 eig:   3.405  3.405  0.160  0.160  0.834  0.834
 bond charge predicted
       N       E                     dE             d eps       ncg     rms          rms(c)
DAV:   1    -0.136004920796E+04   -0.28064E+00   -0.10156E+02  1384   0.141E+01    0.185E+00
DAV:   2    -0.136057874612E+04   -0.52954E+00   -0.55941E+00  2288   0.554E+00    0.966E-01
DAV:   3    -0.136060444266E+04   -0.25697E-01   -0.42533E-01  2600   0.109E+00    0.783E-01
DAV:   4    -0.136059439971E+04    0.10043E-01   -0.53406E-02  2552   0.533E-01    0.474E-01
DAV:   5    -0.136059005546E+04    0.43443E-02   -0.23047E-02  2392   0.308E-01    0.187E-01
DAV:   6    -0.136059074616E+04   -0.69069E-03   -0.11344E-02  2480   0.194E-01    0.137E-01
DAV:   7    -0.136059068574E+04    0.60419E-04   -0.35764E-03  2424   0.121E-01    0.968E-02
DAV:   8    -0.136059070833E+04   -0.22598E-04   -0.17918E-03  2440   0.732E-02    0.542E-02
DAV:   9    -0.136059068808E+04    0.20252E-04   -0.34372E-04  2400   0.395E-02    0.400E-02
DAV:  10    -0.136059068787E+04    0.20936E-06   -0.25141E-04  2472   0.288E-02    0.221E-02
DAV:  11    -0.136059068693E+04    0.93997E-06   -0.77487E-05  2432   0.192E-02    0.921E-03
DAV:  12    -0.136059068950E+04   -0.25692E-05   -0.28903E-05  2344   0.110E-02    0.945E-03
DAV:  13    -0.136059068850E+04    0.10037E-05   -0.12045E-05  1664   0.752E-03    0.438E-03
DAV:  14    -0.136059068865E+04   -0.15307E-06   -0.42707E-06  1232   0.580E-03
   9 F= -.13605907E+04 E0= -.13605907E+04  d E =-.822122E+00
 BRION: g(F)=  0.538E+00 g(S)=  0.000E+00 retain N=  7 mean eig= 1.67
 eig:   3.820  3.820  2.037  0.630  0.630  0.172  0.577
 bond charge predicted
       N       E                     dE             d eps       ncg     rms          rms(c)
DAV:   1    -0.136094663608E+04   -0.35595E+00   -0.42684E+01  1392   0.934E+00    0.121E+00
DAV:   2    -0.136117534875E+04   -0.22871E+00   -0.24371E+00  2288   0.373E+00    0.602E-01
DAV:   3    -0.136118926161E+04   -0.13913E-01   -0.19713E-01  2600   0.741E-01    0.495E-01
DAV:   4    -0.136118616140E+04    0.31002E-02   -0.21244E-02  2616   0.348E-01    0.328E-01
DAV:   5    -0.136118408114E+04    0.20803E-02   -0.10343E-02  2328   0.207E-01    0.126E-01
DAV:   6    -0.136118446042E+04   -0.37928E-03   -0.56624E-03  2512   0.141E-01    0.105E-01
DAV:   7    -0.136118442752E+04    0.32906E-04   -0.21467E-03  2504   0.875E-02    0.699E-02
DAV:   8    -0.136118442091E+04    0.66103E-05   -0.87264E-04  2624   0.557E-02    0.379E-02
DAV:   9    -0.136118441386E+04    0.70461E-05   -0.15476E-04  2464   0.273E-02    0.280E-02
DAV:  10    -0.136118441567E+04   -0.18057E-05   -0.89713E-05  2512   0.178E-02    0.144E-02
DAV:  11    -0.136118441603E+04   -0.36215E-06   -0.33104E-05  2336   0.124E-02    0.725E-03
DAV:  12    -0.136118441645E+04   -0.42470E-06   -0.10186E-05  1848   0.805E-03    0.655E-03
DAV:  13    -0.136118441609E+04    0.35926E-06   -0.62776E-06  1456   0.551E-03
  10 F= -.13611844E+04 E0= -.13611844E+04  d E =-.593727E+00
 BRION: g(F)=  0.374E+00 g(S)=  0.000E+00 retain N=  8 mean eig= 2.00
 eig:   4.758  4.758  2.120  2.120  0.474  0.474  0.658  0.658
 bond charge predicted
       N       E                     dE             d eps       ncg     rms          rms(c)
DAV:   1    -0.136146426828E+04   -0.27985E+00   -0.91758E+01  1392   0.138E+01    0.178E+00
DAV:   2    -0.136196256088E+04   -0.49829E+00   -0.53348E+00  2288   0.555E+00    0.873E-01
DAV:   3    -0.136199360790E+04   -0.31047E-01   -0.44298E-01  2576   0.112E+00    0.707E-01
DAV:   4    -0.136198681767E+04    0.67902E-02   -0.46435E-02  2576   0.520E-01    0.477E-01
DAV:   5    -0.136198220294E+04    0.46147E-02   -0.24499E-02  2368   0.308E-01    0.179E-01
DAV:   6    -0.136198298415E+04   -0.78121E-03   -0.12376E-02  2544   0.206E-01    0.151E-01
DAV:   7    -0.136198296309E+04    0.21059E-04   -0.49110E-03  2560   0.133E-01    0.995E-02
DAV:   8    -0.136198293477E+04    0.28319E-04   -0.16292E-03  2624   0.801E-02    0.532E-02
DAV:   9    -0.136198292771E+04    0.70581E-05   -0.29712E-04  2536   0.383E-02    0.384E-02
DAV:  10    -0.136198293657E+04   -0.88610E-05   -0.19588E-04  2504   0.260E-02    0.206E-02
DAV:  11    -0.136198293581E+04    0.75733E-06   -0.63425E-05  2520   0.176E-02    0.872E-03
DAV:  12    -0.136198293795E+04   -0.21338E-05   -0.25620E-05  2368   0.106E-02    0.921E-03
DAV:  13    -0.136198293690E+04    0.10475E-05   -0.77514E-06  1544   0.639E-03    0.425E-03
DAV:  14    -0.136198293685E+04    0.52329E-07   -0.31989E-06  1104   0.565E-03
  11 F= -.13619829E+04 E0= -.13619829E+04  d E =-.798521E+00
 BRION: g(F)=  0.266E+00 g(S)=  0.000E+00 retain N=  9 mean eig= 2.76
 eig:   5.980  5.980  4.699  4.699  0.972  0.751  0.751  0.516  0.516
 bond charge predicted
       N       E                     dE             d eps       ncg     rms          rms(c)
DAV:   1    -0.136221825808E+04   -0.23532E+00   -0.73619E+01  1400   0.123E+01    0.158E+00
DAV:   2    -0.136261607752E+04   -0.39782E+00   -0.42564E+00  2304   0.493E+00    0.775E-01
DAV:   3    -0.136263949928E+04   -0.23422E-01   -0.34700E-01  2592   0.985E-01    0.624E-01
DAV:   4    -0.136263339831E+04    0.61010E-02   -0.37252E-02  2600   0.460E-01    0.415E-01
DAV:   5    -0.136262939633E+04    0.40020E-02   -0.18209E-02  2368   0.267E-01    0.158E-01
DAV:   6    -0.136262994055E+04   -0.54422E-03   -0.96215E-03  2480   0.179E-01    0.125E-01
DAV:   7    -0.136262993565E+04    0.49025E-05   -0.34265E-03  2504   0.111E-01    0.855E-02
DAV:   8    -0.136262993053E+04    0.51128E-05   -0.13056E-03  2608   0.686E-02    0.476E-02
DAV:   9    -0.136262992067E+04    0.98654E-05   -0.24523E-04  2520   0.347E-02    0.346E-02
DAV:  10    -0.136262992492E+04   -0.42508E-05   -0.14234E-04  2584   0.227E-02    0.182E-02
DAV:  11    -0.136262992519E+04   -0.27299E-06   -0.53484E-05  2440   0.154E-02    0.806E-03
DAV:  12    -0.136262992605E+04   -0.86220E-06   -0.15433E-05  2032   0.964E-03    0.736E-03
DAV:  13    -0.136262992568E+04    0.37279E-06   -0.75429E-06  1536   0.565E-03
  12 F= -.13626299E+04 E0= -.13626299E+04  d E =-.646989E+00
 BRION: g(F)=  0.236E+00 g(S)=  0.000E+00 retain N= 10 mean eig= 3.09
 eig:   7.646  7.646  4.675  4.675  2.137  2.137  0.513  0.513  0.503  0.503
 bond charge predicted
       N       E                     dE             d eps       ncg     rms          rms(c)
DAV:   1    -0.136286654955E+04   -0.23662E+00   -0.49048E+01  1400   0.100E+01    0.123E+00
DAV:   2    -0.136312861786E+04   -0.26207E+00   -0.27933E+00  2304   0.399E+00    0.615E-01
DAV:   3    -0.136314411479E+04   -0.15497E-01   -0.22723E-01  2576   0.794E-01    0.487E-01
DAV:   4    -0.136314020305E+04    0.39117E-02   -0.23536E-02  2568   0.365E-01    0.328E-01
DAV:   5    -0.136313754773E+04    0.26553E-02   -0.11239E-02  2360   0.205E-01    0.124E-01
DAV:   6    -0.136313781950E+04   -0.27177E-03   -0.57708E-03  2448   0.137E-01    0.906E-02
DAV:   7    -0.136313783880E+04   -0.19300E-04   -0.21757E-03  2480   0.878E-02    0.629E-02
DAV:   8    -0.136313784209E+04   -0.32906E-05   -0.78810E-04  2616   0.542E-02    0.387E-02
DAV:   9    -0.136313783635E+04    0.57346E-05   -0.15953E-04  2552   0.279E-02    0.284E-02
DAV:  10    -0.136313783759E+04   -0.12393E-05   -0.87056E-05  2568   0.173E-02    0.147E-02
DAV:  11    -0.136313783819E+04   -0.59674E-06   -0.32652E-05  2400   0.119E-02    0.658E-03
DAV:  12    -0.136313783842E+04   -0.22963E-06   -0.90620E-06  1824   0.774E-03
  13 F= -.13631378E+04 E0= -.13631378E+04  d E =-.507913E+00
 BRION: g(F)=  0.188E+00 g(S)=  0.000E+00 retain N= 10 mean eig= 3.04
 eig:   7.394  7.394  3.662  3.662  2.668  2.668  0.616  0.616  1.015  0.665
 bond charge predicted
       N       E                     dE             d eps       ncg     rms          rms(c)
DAV:   1    -0.136330538775E+04   -0.16755E+00   -0.62141E+01  1392   0.113E+01    0.136E+00
DAV:   2    -0.136363137387E+04   -0.32599E+00   -0.34652E+00  2296   0.446E+00    0.672E-01
DAV:   3    -0.136365128688E+04   -0.19913E-01   -0.28243E-01  2584   0.888E-01    0.545E-01
DAV:   4    -0.136364712777E+04    0.41591E-02   -0.27556E-02  2576   0.395E-01    0.383E-01
DAV:   5    -0.136364332501E+04    0.38028E-02   -0.14127E-02  2336   0.234E-01    0.147E-01
DAV:   6    -0.136364368936E+04   -0.36435E-03   -0.84968E-03  2432   0.167E-01    0.118E-01
DAV:   7    -0.136364366769E+04    0.21671E-04   -0.33828E-03  2448   0.107E-01    0.815E-02
DAV:   8    -0.136364365576E+04    0.11923E-04   -0.12442E-03  2600   0.681E-02    0.478E-02
DAV:   9    -0.136364364633E+04    0.94350E-05   -0.25435E-04  2520   0.340E-02    0.343E-02
DAV:  10    -0.136364364821E+04   -0.18820E-05   -0.10524E-04  2552   0.194E-02    0.187E-02
DAV:  11    -0.136364364996E+04   -0.17453E-05   -0.43540E-05  2496   0.138E-02    0.107E-02
DAV:  12    -0.136364364957E+04    0.38945E-06   -0.18341E-05  2200   0.101E-02    0.831E-03
DAV:  13    -0.136364364945E+04    0.11733E-06   -0.12332E-05  1768   0.655E-03    0.498E-03
DAV:  14    -0.136364364915E+04    0.30122E-06   -0.16348E-06   968   0.474E-03
  14 F= -.13636436E+04 E0= -.13636436E+04  d E =-.505811E+00
 BRION: g(F)=  0.165E+00 g(S)=  0.000E+00 retain N=  6 mean eig= 4.10
 eig:   7.696  7.696  3.165  3.165  1.452  1.452
 bond charge predicted
       N       E                     dE             d eps       ncg     rms          rms(c)
DAV:   1    -0.136380271098E+04   -0.15906E+00   -0.48030E+01  1376   0.993E+00    0.117E+00
DAV:   2    -0.136404894957E+04   -0.24624E+00   -0.26132E+00  2296   0.390E+00    0.585E-01
DAV:   3    -0.136406375573E+04   -0.14806E-01   -0.21161E-01  2584   0.763E-01    0.464E-01
DAV:   4    -0.136406044792E+04    0.33078E-02   -0.19946E-02  2576   0.333E-01    0.323E-01
DAV:   5    -0.136405770300E+04    0.27449E-02   -0.10666E-02  2280   0.197E-01    0.124E-01
DAV:   6    -0.136405796346E+04   -0.26046E-03   -0.58771E-03  2424   0.139E-01    0.981E-02
DAV:   7    -0.136405796456E+04   -0.10981E-05   -0.23994E-03  2448   0.890E-02    0.654E-02
DAV:   8    -0.136405796077E+04    0.37871E-05   -0.83084E-04  2608   0.563E-02    0.399E-02
DAV:   9    -0.136405795488E+04    0.58945E-05   -0.15975E-04  2528   0.278E-02    0.292E-02
DAV:  10    -0.136405795550E+04   -0.62298E-06   -0.93419E-05  2560   0.174E-02    0.140E-02
DAV:  11    -0.136405795657E+04   -0.10735E-05   -0.26848E-05  2384   0.115E-02    0.652E-03
DAV:  12    -0.136405795696E+04   -0.39060E-06   -0.93669E-06  1784   0.725E-03
  15 F= -.13640580E+04 E0= -.13640580E+04  d E =-.414308E+00
 BRION: g(F)=  0.150E+00 g(S)=  0.000E+00 retain N=  3 mean eig= 4.50
 eig:   1.671  5.910  5.910
 bond charge predicted
       N       E                     dE             d eps       ncg     rms          rms(c)
DAV:   1    -0.136419461839E+04   -0.13666E+00   -0.45689E+01  1376   0.966E+00    0.113E+00
DAV:   2    -0.136443168090E+04   -0.23706E+00   -0.25086E+00  2304   0.381E+00    0.566E-01
DAV:   3    -0.136444589139E+04   -0.14210E-01   -0.20062E-01  2576   0.741E-01    0.454E-01
DAV:   4    -0.136444292030E+04    0.29711E-02   -0.18767E-02  2568   0.324E-01    0.321E-01
DAV:   5    -0.136444007766E+04    0.28426E-02   -0.96309E-03  2320   0.197E-01    0.124E-01
DAV:   6    -0.136444030256E+04   -0.22491E-03   -0.63980E-03  2408   0.146E-01    0.972E-02
DAV:   7    -0.136444031141E+04   -0.88481E-05   -0.24834E-03  2424   0.908E-02    0.716E-02
DAV:   8    -0.136444029317E+04    0.18238E-04   -0.86391E-04  2608   0.572E-02    0.384E-02
DAV:   9    -0.136444028623E+04    0.69402E-05   -0.19844E-04  2448   0.294E-02    0.273E-02
DAV:  10    -0.136444028892E+04   -0.26857E-05   -0.78005E-05  2480   0.169E-02    0.169E-02
DAV:  11    -0.136444028858E+04    0.34434E-06   -0.38091E-05  2368   0.128E-02    0.894E-03
DAV:  12    -0.136444028866E+04   -0.82029E-07   -0.15013E-05  1936   0.905E-03    0.796E-03
DAV:  13    -0.136444028826E+04    0.39367E-06   -0.84570E-06  1600   0.586E-03
  16 F= -.13644403E+04 E0= -.13644403E+04  d E =-.382331E+00
 BRION: g(F)=  0.136E+00 g(S)=  0.000E+00 retain N=  2 mean eig= 3.71
 eig:   3.706  3.706
 bond charge predicted
       N       E                     dE             d eps       ncg     rms          rms(c)
DAV:   1    -0.136456505352E+04   -0.12476E+00   -0.38714E+01  1376   0.893E+00    0.103E+00
DAV:   2    -0.136476461836E+04   -0.19956E+00   -0.21120E+00  2312   0.351E+00    0.520E-01
DAV:   3    -0.136477665461E+04   -0.12036E-01   -0.16834E-01  2576   0.675E-01    0.415E-01
DAV:   4    -0.136477428728E+04    0.23673E-02   -0.15331E-02  2576   0.294E-01    0.297E-01
DAV:   5    -0.136477199332E+04    0.22940E-02   -0.81515E-03  2280   0.176E-01    0.117E-01
DAV:   6    -0.136477216737E+04   -0.17405E-03   -0.50197E-03  2392   0.127E-01    0.907E-02
DAV:   7    -0.136477216864E+04   -0.12745E-05   -0.20903E-03  2416   0.826E-02    0.630E-02
DAV:   8    -0.136477215911E+04    0.95288E-05   -0.76632E-04  2600   0.541E-02    0.387E-02
DAV:   9    -0.136477215136E+04    0.77545E-05   -0.16031E-04  2504   0.271E-02    0.269E-02
DAV:  10    -0.136477215192E+04   -0.56517E-06   -0.67738E-05  2544   0.154E-02    0.135E-02
DAV:  11    -0.136477215310E+04   -0.11737E-05   -0.20539E-05  2232   0.986E-03    0.733E-03
DAV:  12    -0.136477215299E+04    0.11035E-06   -0.90833E-06  1752   0.687E-03
  17 F= -.13647722E+04 E0= -.13647722E+04  d E =-.331865E+00
 BRION: g(F)=  0.124E+00 g(S)=  0.000E+00 retain N=  3 mean eig= 5.25
 eig:   6.962  6.962  1.829
 bond charge predicted
       N       E                     dE             d eps       ncg     rms          rms(c)
DAV:   1    -0.136485662264E+04   -0.84470E-01   -0.50778E+01  1384   0.102E+01    0.118E+00
DAV:   2    -0.136511828585E+04   -0.26166E+00   -0.27623E+00  2312   0.399E+00    0.599E-01
DAV:   3    -0.136513333574E+04   -0.15050E-01   -0.21724E-01  2584   0.766E-01    0.473E-01
DAV:   4    -0.136512985684E+04    0.34789E-02   -0.20604E-02  2568   0.338E-01    0.331E-01
DAV:   5    -0.136512688783E+04    0.29690E-02   -0.97527E-03  2328   0.198E-01    0.134E-01
DAV:   6    -0.136512699568E+04   -0.10786E-03   -0.64075E-03  2376   0.146E-01    0.903E-02
DAV:   7    -0.136512704960E+04   -0.53919E-04   -0.25724E-03  2408   0.934E-02    0.702E-02
DAV:   8    -0.136512703708E+04    0.12519E-04   -0.87205E-04  2608   0.576E-02    0.421E-02
DAV:   9    -0.136512702719E+04    0.98951E-05   -0.23165E-04  2552   0.309E-02    0.276E-02
DAV:  10    -0.136512702956E+04   -0.23728E-05   -0.86301E-05  2560   0.183E-02    0.167E-02
DAV:  11    -0.136512702970E+04   -0.14118E-06   -0.33561E-05  2432   0.119E-02    0.856E-03
DAV:  12    -0.136512702963E+04    0.72483E-07   -0.14246E-05  1968   0.853E-03    0.683E-03
DAV:  13    -0.136512702945E+04    0.17755E-06   -0.76585E-06  1616   0.548E-03
  18 F= -.13651270E+04 E0= -.13651270E+04  d E =-.354876E+00
 BRION: g(F)=  0.108E+00 g(S)=  0.000E+00 retain N=  2 mean eig= 4.12
 eig:   4.118  4.118
 bond charge predicted
       N       E                     dE             d eps       ncg     rms          rms(c)
DAV:   1    -0.136516821121E+04   -0.41182E-01   -0.52746E+01  1384   0.104E+01    0.120E+00
DAV:   2    -0.136544240551E+04   -0.27419E+00   -0.28971E+00  2304   0.410E+00    0.612E-01
DAV:   3    -0.136545836609E+04   -0.15961E-01   -0.22866E-01  2576   0.795E-01    0.491E-01
DAV:   4    -0.136545496629E+04    0.33998E-02   -0.21476E-02  2576   0.349E-01    0.351E-01
DAV:   5    -0.136545164347E+04    0.33228E-02   -0.10376E-02  2352   0.207E-01    0.146E-01
DAV:   6    -0.136545170111E+04   -0.57639E-04   -0.75361E-03  2360   0.160E-01    0.100E-01
DAV:   7    -0.136545176241E+04   -0.61307E-04   -0.32847E-03  2384   0.105E-01    0.810E-02
DAV:   8    -0.136545173822E+04    0.24194E-04   -0.10612E-03  2600   0.637E-02    0.487E-02
DAV:   9    -0.136545171997E+04    0.18246E-04   -0.31378E-04  2504   0.348E-02    0.298E-02
DAV:  10    -0.136545172516E+04   -0.51866E-05   -0.11337E-04  2504   0.205E-02    0.196E-02
DAV:  11    -0.136545172564E+04   -0.48369E-06   -0.46180E-05  2424   0.142E-02    0.121E-02
DAV:  12    -0.136545172472E+04    0.92360E-06   -0.26093E-05  2248   0.110E-02    0.998E-03
DAV:  13    -0.136545172406E+04    0.65689E-06   -0.13613E-05  1776   0.715E-03    0.563E-03
DAV:  14    -0.136545172385E+04    0.21246E-06   -0.41811E-06  1280   0.524E-03
  19 F= -.13654517E+04 E0= -.13654517E+04  d E =-.324694E+00
 BRION: g(F)=  0.887E-01 g(S)=  0.000E+00 retain N=  2 mean eig= 4.50
 eig:   4.499  4.499
 bond charge predicted
       N       E                     dE             d eps       ncg     rms          rms(c)
DAV:   1    -0.136550123959E+04   -0.49516E-01   -0.34853E+01  1376   0.847E+00    0.990E-01
DAV:   2    -0.136568068946E+04   -0.17945E+00   -0.19097E+00  2304   0.332E+00    0.505E-01
DAV:   3    -0.136569123926E+04   -0.10550E-01   -0.15496E-01  2576   0.657E-01    0.408E-01
DAV:   4    -0.136568889049E+04    0.23488E-02   -0.15112E-02  2584   0.293E-01    0.288E-01
DAV:   5    -0.136568678011E+04    0.21104E-02   -0.76509E-03  2360   0.170E-01    0.121E-01
DAV:   6    -0.136568679335E+04   -0.13245E-04   -0.46282E-03  2296   0.129E-01    0.882E-02
DAV:   7    -0.136568683710E+04   -0.43749E-04   -0.24965E-03  2432   0.894E-02    0.678E-02
DAV:   8    -0.136568682329E+04    0.13811E-04   -0.78845E-04  2600   0.552E-02    0.431E-02
DAV:   9    -0.136568681119E+04    0.12104E-04   -0.22004E-04  2528   0.292E-02    0.274E-02
DAV:  10    -0.136568681311E+04   -0.19231E-05   -0.81492E-05  2560   0.173E-02    0.167E-02
DAV:  11    -0.136568681385E+04   -0.73560E-06   -0.30483E-05  2408   0.117E-02    0.106E-02
DAV:  12    -0.136568681298E+04    0.86687E-06   -0.18399E-05  2040   0.927E-03    0.831E-03
DAV:  13    -0.136568681254E+04    0.43433E-06   -0.99688E-06  1760   0.652E-03
  20 F= -.13656868E+04 E0= -.13656868E+04  d E =-.235089E+00
 BRION: g(F)=  0.761E-01 g(S)=  0.000E+00 retain N=  3 mean eig= 5.64
 eig:   7.509  7.509  1.911
