 running on  160 total cores
 distrk:  each k-point on  160 cores,    1 groups
 distr:  one band on   20 cores,    8 groups
 using from now: INCAR     
 vasp.5.4.4.18Apr17-6-g9f103f2a35 (build May 01 2020 14:22:42) gamma-only       
  
 POSCAR found type information on POSCAR  O  La Zr Li Al
 POSCAR found :  5 types and     188 ions
 scaLAPACK will be used
 LDA part: xc-table for Pade appr. of Perdew
 POSCAR, INCAR and KPOINTS ok, starting setup
 FFT: planning ...
 WAVECAR not read
 WARNING: random wavefunctions but no delay for mixing, default for NELMDL
 entering main loop
       N       E                     dE             d eps       ncg     rms          rms(c)
DAV:   1     0.253167963505E+05    0.25317E+05   -0.42081E+05  1600   0.253E+03
DAV:   2     0.935752870231E+04   -0.15959E+05   -0.14722E+05  1416   0.705E+02
DAV:   3     0.261234079679E+04   -0.67452E+04   -0.61606E+04  1528   0.357E+02
DAV:   4    -0.374469810582E+03   -0.29868E+04   -0.27974E+04  2040   0.225E+02
DAV:   5    -0.141223064753E+04   -0.10378E+04   -0.99935E+03  2520   0.138E+02    0.117E+02
DAV:   6    -0.129682497995E+04    0.11541E+03   -0.14288E+03  2448   0.660E+01    0.501E+01
DAV:   7    -0.132011835668E+04   -0.23293E+02   -0.40180E+02  2568   0.341E+01    0.251E+01
DAV:   8    -0.132739066398E+04   -0.72723E+01   -0.24767E+02  2552   0.268E+01    0.248E+01
DAV:   9    -0.132197284881E+04    0.54178E+01   -0.48433E+01  2520   0.144E+01    0.779E+00
DAV:  10    -0.132281461773E+04   -0.84177E+00   -0.16840E+01  2616   0.787E+00    0.709E+00
DAV:  11    -0.132320215393E+04   -0.38754E+00   -0.53192E+00  2624   0.418E+00    0.436E+00
DAV:  12    -0.132306039571E+04    0.14176E+00   -0.23649E+00  2552   0.344E+00    0.321E+00
DAV:  13    -0.132311085116E+04   -0.50455E-01   -0.10378E+00  2544   0.185E+00    0.239E+00
DAV:  14    -0.132309964219E+04    0.11209E-01   -0.19469E-01  2616   0.962E-01    0.158E+00
DAV:  15    -0.132309369064E+04    0.59516E-02   -0.10176E-01  2592   0.562E-01    0.933E-01
DAV:  16    -0.132309334736E+04    0.34328E-03   -0.32089E-02  2608   0.347E-01    0.561E-01
DAV:  17    -0.132309338491E+04   -0.37553E-04   -0.18860E-02  2336   0.255E-01    0.337E-01
DAV:  18    -0.132309356846E+04   -0.18354E-03   -0.48760E-03  2480   0.136E-01    0.124E-01
DAV:  19    -0.132309354617E+04    0.22286E-04   -0.28564E-03  2600   0.106E-01    0.120E-01
DAV:  20    -0.132309358517E+04   -0.38996E-04   -0.91101E-04  2520   0.549E-02    0.409E-02
DAV:  21    -0.132309360100E+04   -0.15831E-04   -0.25955E-04  2624   0.303E-02    0.396E-02
DAV:  22    -0.132309361092E+04   -0.99241E-05   -0.10954E-04  2536   0.179E-02    0.148E-02
DAV:  23    -0.132309361401E+04   -0.30887E-05   -0.37239E-05  2056   0.112E-02    0.110E-02
DAV:  24    -0.132309361662E+04   -0.26037E-05   -0.10941E-05  1104   0.637E-03    0.593E-03
DAV:  25    -0.132309361709E+04   -0.47221E-06   -0.71480E-06  1168   0.554E-03
   1 F= -.13230936E+04 E0= -.13230894E+04  d E =-.132309E+04
 BRION: g(F)=  0.675E+02 g(S)=  0.000E+00
 bond charge predicted
       N       E                     dE             d eps       ncg     rms          rms(c)
DAV:   1    -0.127443639899E+04    0.48657E+02   -0.86396E+03  1688   0.140E+02    0.329E+01
DAV:   2    -0.134275150685E+04   -0.68315E+02   -0.79276E+02  2568   0.633E+01    0.166E+01
DAV:   3    -0.133961918082E+04    0.31323E+01   -0.46647E+01  2624   0.175E+01    0.109E+01
DAV:   4    -0.133663342949E+04    0.29858E+01   -0.19467E+01  2352   0.931E+00    0.497E+00
DAV:   5    -0.133651541818E+04    0.11801E+00   -0.63662E+00  2512   0.529E+00    0.389E+00
DAV:   6    -0.133637201979E+04    0.14340E+00   -0.35131E+00  2600   0.322E+00    0.195E+00
DAV:   7    -0.133631846324E+04    0.53557E-01   -0.42239E-01  2496   0.186E+00    0.118E+00
DAV:   8    -0.133631817734E+04    0.28590E-03   -0.54231E-01  2552   0.129E+00    0.808E-01
DAV:   9    -0.133632155454E+04   -0.33772E-02   -0.96900E-02  2496   0.623E-01    0.704E-01
DAV:  10    -0.133631802510E+04    0.35294E-02   -0.47075E-02  2400   0.351E-01    0.402E-01
DAV:  11    -0.133631745806E+04    0.56704E-03   -0.34263E-02  2472   0.307E-01    0.182E-01
DAV:  12    -0.133631750278E+04   -0.44717E-04   -0.67925E-03  2296   0.188E-01    0.135E-01
DAV:  13    -0.133631760295E+04   -0.10017E-03   -0.28983E-03  2592   0.899E-02    0.794E-02
DAV:  14    -0.133631757715E+04    0.25798E-04   -0.10138E-03  2624   0.594E-02    0.440E-02
DAV:  15    -0.133631758698E+04   -0.98328E-05   -0.21246E-04  2584   0.318E-02    0.334E-02
DAV:  16    -0.133631758221E+04    0.47727E-05   -0.83783E-05  2592   0.175E-02    0.254E-02
DAV:  17    -0.133631757428E+04    0.79322E-05   -0.60068E-05  2216   0.130E-02    0.799E-03
DAV:  18    -0.133631757578E+04   -0.15005E-05   -0.19709E-05  2160   0.878E-03    0.582E-03
DAV:  19    -0.133631757506E+04    0.71689E-06   -0.12813E-06  1008   0.509E-03
   2 F= -.13363176E+04 E0= -.13363176E+04  d E =-.132240E+02
 BRION: g(F)=  0.217E+03 g(S)=  0.000E+00 retain N=  1 mean eig= 0.31
 eig:   0.310
 bond charge predicted
       N       E                     dE             d eps       ncg     rms          rms(c)
DAV:   1    -0.132318441786E+04    0.13133E+02   -0.25541E+03  1312   0.612E+01    0.221E+01
DAV:   2    -0.135463127249E+04   -0.31447E+02   -0.41054E+02  2552   0.323E+01    0.188E+01
DAV:   3    -0.135138937102E+04    0.32419E+01   -0.40805E+01  2528   0.129E+01    0.143E+01
DAV:   4    -0.134850254346E+04    0.28868E+01   -0.37570E+01  2232   0.674E+00    0.627E+00
DAV:   5    -0.134933652993E+04   -0.83399E+00   -0.90039E+00  2488   0.439E+00    0.792E+00
DAV:   6    -0.134818372396E+04    0.11528E+01   -0.10282E+01  2456   0.350E+00    0.140E+00
DAV:   7    -0.134828978199E+04   -0.10606E+00   -0.14233E+00  2512   0.252E+00    0.146E+00
DAV:   8    -0.134826066820E+04    0.29114E-01   -0.29569E-01  2592   0.967E-01    0.730E-01
DAV:   9    -0.134825931305E+04    0.13551E-02   -0.82084E-02  2544   0.538E-01    0.323E-01
DAV:  10    -0.134825936317E+04   -0.50122E-04   -0.17816E-02  2320   0.268E-01    0.232E-01
DAV:  11    -0.134825924403E+04    0.11914E-03   -0.86798E-03  2400   0.158E-01    0.136E-01
DAV:  12    -0.134825916888E+04    0.75154E-04   -0.40674E-03  2528   0.103E-01    0.535E-02
DAV:  13    -0.134825929507E+04   -0.12620E-03   -0.11403E-03  2552   0.670E-02    0.710E-02
DAV:  14    -0.134825921298E+04    0.82090E-04   -0.36777E-04  2560   0.403E-02    0.319E-02
DAV:  15    -0.134825921888E+04   -0.58910E-05   -0.24782E-04  2504   0.264E-02    0.120E-02
DAV:  16    -0.134825922098E+04   -0.21062E-05   -0.35350E-05  2512   0.126E-02    0.582E-03
DAV:  17    -0.134825922126E+04   -0.27656E-06   -0.52903E-06  1520   0.650E-03
   3 F= -.13482592E+04 E0= -.13482592E+04  d E =-.119416E+02
 BRION: g(F)=  0.143E+02 g(S)=  0.000E+00 retain N=  2 mean eig= 3.16
 eig:   0.195  6.131
 bond charge predicted
       N       E                     dE             d eps       ncg     rms          rms(c)
DAV:   1    -0.134848036371E+04   -0.22114E+00   -0.76220E+02  1392   0.391E+01    0.733E+00
DAV:   2    -0.135267889377E+04   -0.41985E+01   -0.49843E+01  2296   0.159E+01    0.406E+00
DAV:   3    -0.135283674904E+04   -0.15786E+00   -0.46012E+00  2568   0.446E+00    0.353E+00
DAV:   4    -0.135268711577E+04    0.14963E+00   -0.85622E-01  2552   0.199E+00    0.209E+00
DAV:   5    -0.135263626048E+04    0.50855E-01   -0.74305E-01  2176   0.158E+00    0.141E+00
DAV:   6    -0.135262408972E+04    0.12171E-01   -0.29268E-01  2504   0.109E+00    0.118E+00
DAV:   7    -0.135261234382E+04    0.11746E-01   -0.25792E-01  2376   0.848E-01    0.514E-01
DAV:   8    -0.135261198548E+04    0.35833E-03   -0.33231E-02  2512   0.395E-01    0.341E-01
DAV:   9    -0.135261151606E+04    0.46943E-03   -0.11307E-02  2616   0.202E-01    0.160E-01
DAV:  10    -0.135261177401E+04   -0.25796E-03   -0.38620E-03  2568   0.113E-01    0.123E-01
DAV:  11    -0.135261154395E+04    0.23007E-03   -0.14687E-03  2584   0.812E-02    0.391E-02
DAV:  12    -0.135261158790E+04   -0.43959E-04   -0.65155E-04  2552   0.510E-02    0.224E-02
DAV:  13    -0.135261159299E+04   -0.50880E-05   -0.91438E-05  2624   0.211E-02    0.155E-02
DAV:  14    -0.135261159391E+04   -0.92141E-06   -0.52726E-05  2376   0.135E-02    0.693E-03
DAV:  15    -0.135261159453E+04   -0.61950E-06   -0.87649E-06  1712   0.733E-03
   4 F= -.13526116E+04 E0= -.13526116E+04  d E =-.435237E+01
 BRION: g(F)=  0.580E+01 g(S)=  0.000E+00 retain N=  2 mean eig= 0.37
 eig:   0.371  0.371
 bond charge predicted
       N       E                     dE             d eps       ncg     rms          rms(c)
DAV:   1    -0.135378327195E+04   -0.11717E+01   -0.22536E+02  1368   0.209E+01    0.354E+00
DAV:   2    -0.135496704334E+04   -0.11838E+01   -0.13098E+01  2328   0.847E+00    0.186E+00
DAV:   3    -0.135498306199E+04   -0.16019E-01   -0.91491E-01  2616   0.182E+00    0.155E+00
DAV:   4    -0.135494002841E+04    0.43034E-01   -0.23941E-01  2568   0.989E-01    0.775E-01
DAV:   5    -0.135493118828E+04    0.88401E-02   -0.97008E-02  2344   0.639E-01    0.534E-01
DAV:   6    -0.135492984733E+04    0.13410E-02   -0.61421E-02  2544   0.480E-01    0.347E-01
DAV:   7    -0.135492953065E+04    0.31667E-03   -0.28524E-02  2336   0.288E-01    0.236E-01
DAV:   8    -0.135492945349E+04    0.77166E-04   -0.68573E-03  2320   0.150E-01    0.129E-01
DAV:   9    -0.135492931020E+04    0.14329E-03   -0.25177E-03  2528   0.879E-02    0.765E-02
DAV:  10    -0.135492940116E+04   -0.90958E-04   -0.13335E-03  2432   0.655E-02    0.822E-02
DAV:  11    -0.135492931036E+04    0.90796E-04   -0.66943E-04  2480   0.489E-02    0.302E-02
DAV:  12    -0.135492932379E+04   -0.13432E-04   -0.31938E-04  2464   0.327E-02    0.233E-02
DAV:  13    -0.135492932134E+04    0.24507E-05   -0.70685E-05  2520   0.169E-02    0.122E-02
DAV:  14    -0.135492932158E+04   -0.23896E-06   -0.25247E-05  2208   0.867E-03    0.563E-03
DAV:  15    -0.135492932193E+04   -0.34644E-06   -0.47022E-06  1272   0.569E-03
   5 F= -.13549293E+04 E0= -.13549293E+04  d E =-.231773E+01
 BRION: g(F)=  0.321E+01 g(S)=  0.000E+00 retain N=  3 mean eig= 0.59
 eig:   1.193  0.289  0.289
 bond charge predicted
       N       E                     dE             d eps       ncg     rms          rms(c)
DAV:   1    -0.135573940628E+04   -0.81008E+00   -0.28817E+02  1376   0.238E+01    0.325E+00
DAV:   2    -0.135720481251E+04   -0.14654E+01   -0.15327E+01  2288   0.885E+00    0.173E+00
DAV:   3    -0.135725864807E+04   -0.53836E-01   -0.10656E+00  2592   0.183E+00    0.149E+00
DAV:   4    -0.135722866709E+04    0.29981E-01   -0.15826E-01  2576   0.852E-01    0.944E-01
DAV:   5    -0.135720962002E+04    0.19047E-01   -0.98768E-02  2336   0.592E-01    0.383E-01
DAV:   6    -0.135721300469E+04   -0.33847E-02   -0.48396E-02  2568   0.406E-01    0.406E-01
DAV:   7    -0.135721110322E+04    0.19015E-02   -0.19114E-02  2536   0.259E-01    0.222E-01
DAV:   8    -0.135721091264E+04    0.19059E-03   -0.72629E-03  2544   0.154E-01    0.974E-02
DAV:   9    -0.135721091064E+04    0.19929E-05   -0.95439E-04  2568   0.671E-02    0.704E-02
DAV:  10    -0.135721093368E+04   -0.23035E-04   -0.46837E-04  2440   0.376E-02    0.356E-02
DAV:  11    -0.135721092598E+04    0.77023E-05   -0.12526E-04  2560   0.262E-02    0.175E-02
DAV:  12    -0.135721093336E+04   -0.73842E-05   -0.10936E-04  2496   0.180E-02    0.194E-02
DAV:  13    -0.135721092853E+04    0.48253E-05   -0.37753E-05  2304   0.123E-02    0.789E-03
DAV:  14    -0.135721092892E+04   -0.38114E-06   -0.86987E-06  1616   0.650E-03
   6 F= -.13572109E+04 E0= -.13572109E+04  d E =-.228161E+01
 BRION: g(F)=  0.204E+01 g(S)=  0.000E+00 retain N=  4 mean eig= 0.52
 eig:   0.949  0.291  0.417  0.417
 bond charge predicted
       N       E                     dE             d eps       ncg     rms          rms(c)
DAV:   1    -0.135746193462E+04   -0.25101E+00   -0.27256E+02  1376   0.230E+01    0.315E+00
DAV:   2    -0.135888745571E+04   -0.14255E+01   -0.14953E+01  2288   0.870E+00    0.169E+00
DAV:   3    -0.135894493721E+04   -0.57482E-01   -0.10878E+00  2616   0.182E+00    0.144E+00
DAV:   4    -0.135891723319E+04    0.27704E-01   -0.15149E-01  2592   0.847E-01    0.908E-01
DAV:   5    -0.135889923823E+04    0.17995E-01   -0.92512E-02  2312   0.576E-01    0.358E-01
DAV:   6    -0.135890241908E+04   -0.31808E-02   -0.46026E-02  2512   0.394E-01    0.391E-01
DAV:   7    -0.135890100068E+04    0.14184E-02   -0.16298E-02  2552   0.241E-01    0.232E-01
DAV:   8    -0.135890061073E+04    0.38995E-03   -0.66965E-03  2536   0.146E-01    0.994E-02
DAV:   9    -0.135890062356E+04   -0.12836E-04   -0.86702E-04  2528   0.645E-02    0.706E-02
DAV:  10    -0.135890062976E+04   -0.61949E-05   -0.40686E-04  2360   0.365E-02    0.299E-02
DAV:  11    -0.135890063238E+04   -0.26271E-05   -0.95113E-05  2592   0.235E-02    0.194E-02
DAV:  12    -0.135890063638E+04   -0.39949E-05   -0.95381E-05  2448   0.158E-02    0.173E-02
DAV:  13    -0.135890063214E+04    0.42418E-05   -0.26726E-05  2160   0.108E-02    0.753E-03
DAV:  14    -0.135890063241E+04   -0.27045E-06   -0.10336E-05  1672   0.650E-03    0.345E-03
DAV:  15    -0.135890063241E+04    0.24884E-08   -0.18556E-06  1048   0.458E-03
   7 F= -.13589006E+04 E0= -.13589006E+04  d E =-.168970E+01
 BRION: g(F)=  0.878E+00 g(S)=  0.000E+00 retain N=  5 mean eig= 0.91
 eig:   1.589  0.866  0.866  0.294  0.920
 bond charge predicted
       N       E                     dE             d eps       ncg     rms          rms(c)
DAV:   1    -0.135919283643E+04   -0.29220E+00   -0.94141E+01  1400   0.136E+01    0.189E+00
DAV:   2    -0.135966590425E+04   -0.47307E+00   -0.50083E+00  2288   0.521E+00    0.950E-01
DAV:   3    -0.135968712477E+04   -0.21221E-01   -0.38014E-01  2616   0.106E+00    0.747E-01
DAV:   4    -0.135967686660E+04    0.10258E-01   -0.50313E-02  2552   0.516E-01    0.424E-01
DAV:   5    -0.135967386335E+04    0.30032E-02   -0.23945E-02  2352   0.305E-01    0.186E-01
DAV:   6    -0.135967446138E+04   -0.59802E-03   -0.10572E-02  2568   0.189E-01    0.138E-01
DAV:   7    -0.135967438667E+04    0.74705E-04   -0.29807E-03  2552   0.107E-01    0.933E-02
DAV:   8    -0.135967437019E+04    0.16488E-04   -0.12471E-03  2568   0.636E-02    0.505E-02
DAV:   9    -0.135967435287E+04    0.17319E-04   -0.22589E-04  2528   0.347E-02    0.337E-02
DAV:  10    -0.135967436200E+04   -0.91320E-05   -0.25150E-04  2376   0.272E-02    0.245E-02
DAV:  11    -0.135967435603E+04    0.59637E-05   -0.58766E-05  2416   0.180E-02    0.115E-02
DAV:  12    -0.135967435797E+04   -0.19376E-05   -0.43071E-05  2304   0.108E-02    0.933E-03
DAV:  13    -0.135967435663E+04    0.13396E-05   -0.58650E-06  1400   0.669E-03    0.458E-03
DAV:  14    -0.135967435729E+04   -0.65344E-06   -0.11515E-05  1616   0.653E-03    0.352E-03
DAV:  15    -0.135967435707E+04    0.21300E-06   -0.10285E-06   992   0.425E-03
   8 F= -.13596744E+04 E0= -.13596744E+04  d E =-.773725E+00
 BRION: g(F)=  0.479E+00 g(S)=  0.000E+00 retain N=  6 mean eig= 1.22
 eig:   2.269  2.269  1.661  0.220  0.447  0.447
 bond charge predicted
       N       E                     dE             d eps       ncg     rms          rms(c)
DAV:   1    -0.135989588419E+04   -0.22153E+00   -0.87835E+01  1392   0.134E+01    0.167E+00
DAV:   2    -0.136033990606E+04   -0.44402E+00   -0.46781E+00  2288   0.515E+00    0.842E-01
DAV:   3    -0.136036522739E+04   -0.25321E-01   -0.36674E-01  2616   0.102E+00    0.675E-01
DAV:   4    -0.136035847333E+04    0.67541E-02   -0.38466E-02  2600   0.466E-01    0.434E-01
DAV:   5    -0.136035474589E+04    0.37274E-02   -0.20898E-02  2344   0.284E-01    0.162E-01
DAV:   6    -0.136035548081E+04   -0.73493E-03   -0.96786E-03  2560   0.181E-01    0.143E-01
DAV:   7    -0.136035541771E+04    0.63100E-04   -0.33172E-03  2584   0.112E-01    0.903E-02
DAV:   8    -0.136035538492E+04    0.32794E-04   -0.12276E-03  2616   0.681E-02    0.469E-02
DAV:   9    -0.136035538032E+04    0.46030E-05   -0.19812E-04  2512   0.329E-02    0.345E-02
DAV:  10    -0.136035538781E+04   -0.74920E-05   -0.17149E-04  2440   0.236E-02    0.183E-02
DAV:  11    -0.136035538576E+04    0.20518E-05   -0.38886E-05  2440   0.154E-02    0.870E-03
DAV:  12    -0.136035538776E+04   -0.20066E-05   -0.27531E-05  2328   0.910E-03    0.832E-03
DAV:  13    -0.136035538626E+04    0.15030E-05   -0.21774E-06  1024   0.583E-03    0.491E-03
DAV:  14    -0.136035538784E+04   -0.15782E-05   -0.25088E-05  1632   0.850E-03    0.732E-03
DAV:  15    -0.136035538707E+04    0.76587E-06   -0.16964E-06   992   0.549E-03
   9 F= -.13603554E+04 E0= -.13603554E+04  d E =-.681030E+00
 BRION: g(F)=  0.521E+00 g(S)=  0.000E+00 retain N=  7 mean eig= 1.95
 eig:   4.571  4.571  2.454  0.840  0.840  0.283  0.113
 bond charge predicted
       N       E                     dE             d eps       ncg     rms          rms(c)
DAV:   1    -0.136061882361E+04   -0.26344E+00   -0.79025E+01  1392   0.127E+01    0.160E+00
DAV:   2    -0.136102580962E+04   -0.40699E+00   -0.42951E+00  2304   0.496E+00    0.800E-01
DAV:   3    -0.136104854476E+04   -0.22735E-01   -0.33408E-01  2616   0.947E-01    0.639E-01
DAV:   4    -0.136104210289E+04    0.64419E-02   -0.37286E-02  2584   0.455E-01    0.397E-01
DAV:   5    -0.136103913320E+04    0.29697E-02   -0.17321E-02  2384   0.268E-01    0.152E-01
DAV:   6    -0.136103978307E+04   -0.64987E-03   -0.83486E-03  2528   0.169E-01    0.123E-01
DAV:   7    -0.136103973170E+04    0.51367E-04   -0.27021E-03  2584   0.104E-01    0.824E-02
DAV:   8    -0.136103972987E+04    0.18308E-05   -0.11591E-03  2616   0.632E-02    0.453E-02
DAV:   9    -0.136103972002E+04    0.98534E-05   -0.19036E-04  2528   0.313E-02    0.335E-02
DAV:  10    -0.136103972247E+04   -0.24469E-05   -0.15606E-04  2560   0.231E-02    0.171E-02
DAV:  11    -0.136103972191E+04    0.55140E-06   -0.43617E-05  2416   0.149E-02    0.776E-03
DAV:  12    -0.136103972352E+04   -0.16090E-05   -0.17140E-05  2152   0.860E-03    0.757E-03
DAV:  13    -0.136103972261E+04    0.91546E-06   -0.36834E-06  1216   0.565E-03
  10 F= -.13610397E+04 E0= -.13610397E+04  d E =-.684336E+00
 BRION: g(F)=  0.335E+00 g(S)=  0.000E+00 retain N=  8 mean eig= 1.88
 eig:   4.790  4.790  1.240  1.240  1.013  1.013  0.281  0.704
 bond charge predicted
       N       E                     dE             d eps       ncg     rms          rms(c)
DAV:   1    -0.136123982703E+04   -0.20010E+00   -0.67538E+01  1384   0.117E+01    0.140E+00
DAV:   2    -0.136159114453E+04   -0.35132E+00   -0.37070E+00  2304   0.462E+00    0.721E-01
DAV:   3    -0.136161158746E+04   -0.20443E-01   -0.28961E-01  2600   0.879E-01    0.577E-01
DAV:   4    -0.136160692568E+04    0.46618E-02   -0.29467E-02  2600   0.409E-01    0.388E-01
DAV:   5    -0.136160362028E+04    0.33054E-02   -0.14982E-02  2384   0.247E-01    0.145E-01
DAV:   6    -0.136160417153E+04   -0.55125E-03   -0.82118E-03  2488   0.167E-01    0.123E-01
DAV:   7    -0.136160413024E+04    0.41290E-04   -0.29047E-03  2520   0.106E-01    0.853E-02
DAV:   8    -0.136160411129E+04    0.18946E-04   -0.12702E-03  2568   0.665E-02    0.466E-02
DAV:   9    -0.136160409905E+04    0.12242E-04   -0.21914E-04  2448   0.329E-02    0.343E-02
DAV:  10    -0.136160410052E+04   -0.14675E-05   -0.13213E-04  2528   0.213E-02    0.174E-02
DAV:  11    -0.136160410113E+04   -0.61524E-06   -0.35217E-05  2432   0.136E-02    0.891E-03
DAV:  12    -0.136160410219E+04   -0.10595E-05   -0.16141E-05  2168   0.851E-03    0.810E-03
DAV:  13    -0.136160410150E+04    0.69762E-06   -0.67638E-06  1504   0.575E-03
  11 F= -.13616041E+04 E0= -.13616041E+04  d E =-.564379E+00
 BRION: g(F)=  0.256E+00 g(S)=  0.000E+00 retain N=  9 mean eig= 2.71
 eig:   7.658  7.658  2.891  2.891  0.604  0.604  0.915  0.915  0.278
 bond charge predicted
       N       E                     dE             d eps       ncg     rms          rms(c)
DAV:   1    -0.136175781319E+04   -0.15371E+00   -0.72527E+01  1384   0.121E+01    0.142E+00
DAV:   2    -0.136214278626E+04   -0.38497E+00   -0.40600E+00  2280   0.494E+00    0.739E-01
DAV:   3    -0.136216525685E+04   -0.22471E-01   -0.31856E-01  2608   0.935E-01    0.603E-01
DAV:   4    -0.136216058906E+04    0.46678E-02   -0.30249E-02  2608   0.419E-01    0.428E-01
DAV:   5    -0.136215599099E+04    0.45981E-02   -0.15941E-02  2352   0.252E-01    0.164E-01
DAV:   6    -0.136215648386E+04   -0.49287E-03   -0.10619E-02  2384   0.184E-01    0.132E-01
DAV:   7    -0.136215643828E+04    0.45587E-04   -0.39203E-03  2480   0.120E-01    0.957E-02
DAV:   8    -0.136215640816E+04    0.30120E-04   -0.16198E-03  2560   0.758E-02    0.542E-02
DAV:   9    -0.136215638912E+04    0.19037E-04   -0.32656E-04  2392   0.381E-02    0.378E-02
DAV:  10    -0.136215639133E+04   -0.22075E-05   -0.13162E-04  2464   0.215E-02    0.200E-02
DAV:  11    -0.136215639315E+04   -0.18208E-05   -0.40487E-05  2464   0.140E-02    0.119E-02
DAV:  12    -0.136215639300E+04    0.15055E-06   -0.22564E-05  2344   0.105E-02    0.936E-03
DAV:  13    -0.136215639251E+04    0.48397E-06   -0.12727E-05  1768   0.681E-03    0.483E-03
DAV:  14    -0.136215639233E+04    0.18239E-06   -0.22049E-06   968   0.510E-03
  12 F= -.13621564E+04 E0= -.13621564E+04  d E =-.552291E+00
 BRION: g(F)=  0.208E+00 g(S)=  0.000E+00 retain N=  9 mean eig= 2.32
 eig:   5.131  5.131  2.618  2.618  0.966  0.966  1.361  1.361  0.744
 bond charge predicted
       N       E                     dE             d eps       ncg     rms          rms(c)
DAV:   1    -0.136233376260E+04   -0.17737E+00   -0.36012E+01  1384   0.852E+00    0.100E+00
DAV:   2    -0.136251827278E+04   -0.18451E+00   -0.19423E+00  2304   0.335E+00    0.515E-01
DAV:   3    -0.136252854172E+04   -0.10269E-01   -0.15055E-01  2600   0.632E-01    0.411E-01
DAV:   4    -0.136252567854E+04    0.28632E-02   -0.15045E-02  2592   0.292E-01    0.274E-01
DAV:   5    -0.136252365757E+04    0.20210E-02   -0.82884E-03  2312   0.185E-01    0.954E-02
DAV:   6    -0.136252400726E+04   -0.34969E-03   -0.47171E-03  2520   0.124E-01    0.907E-02
DAV:   7    -0.136252397749E+04    0.29775E-04   -0.12778E-03  2544   0.706E-02    0.631E-02
DAV:   8    -0.136252395461E+04    0.22874E-04   -0.54601E-04  2576   0.439E-02    0.311E-02
DAV:   9    -0.136252395007E+04    0.45439E-05   -0.91170E-05  2352   0.215E-02    0.221E-02
DAV:  10    -0.136252395123E+04   -0.11603E-05   -0.44295E-05  2376   0.132E-02    0.102E-02
DAV:  11    -0.136252395148E+04   -0.25003E-06   -0.10149E-05  1824   0.806E-03    0.549E-03
DAV:  12    -0.136252395210E+04   -0.61943E-06   -0.81983E-06  1616   0.570E-03
  13 F= -.13625240E+04 E0= -.13625240E+04  d E =-.367560E+00
 BRION: g(F)=  0.188E+00 g(S)=  0.000E+00 retain N=  5 mean eig= 3.95
 eig:   7.235  7.235  2.076  2.076  1.108
 bond charge predicted
       N       E                     dE             d eps       ncg     rms          rms(c)
DAV:   1    -0.136256552195E+04   -0.41570E-01   -0.95179E+01  1376   0.137E+01    0.156E+00
DAV:   2    -0.136305680538E+04   -0.49128E+00   -0.51450E+00  2280   0.554E+00    0.820E-01
DAV:   3    -0.136308475207E+04   -0.27947E-01   -0.39836E-01  2592   0.104E+00    0.673E-01
DAV:   4    -0.136307919438E+04    0.55577E-02   -0.35107E-02  2608   0.445E-01    0.496E-01
DAV:   5    -0.136307189682E+04    0.72976E-02   -0.19800E-02  2256   0.283E-01    0.196E-01
DAV:   6    -0.136307245998E+04   -0.56316E-03   -0.16430E-02  2280   0.221E-01    0.153E-01
DAV:   7    -0.136307242361E+04    0.36375E-04   -0.55610E-03  2440   0.136E-01    0.120E-01
DAV:   8    -0.136307233942E+04    0.84186E-04   -0.19377E-03  2552   0.855E-02    0.652E-02
DAV:   9    -0.136307228919E+04    0.50229E-04   -0.57656E-04  2256   0.469E-02    0.399E-02
DAV:  10    -0.136307230126E+04   -0.12069E-04   -0.20250E-04  2416   0.262E-02    0.252E-02
DAV:  11    -0.136307229707E+04    0.41862E-05   -0.61353E-05  2472   0.168E-02    0.124E-02
DAV:  12    -0.136307229901E+04   -0.19397E-05   -0.37464E-05  2384   0.120E-02    0.111E-02
DAV:  13    -0.136307229808E+04    0.93236E-06   -0.11992E-05  1792   0.697E-03    0.608E-03
DAV:  14    -0.136307229808E+04    0.19063E-08   -0.77095E-06  1528   0.573E-03
  14 F= -.13630723E+04 E0= -.13630723E+04  d E =-.548346E+00
 BRION: g(F)=  0.158E+00 g(S)=  0.000E+00 retain N=  3 mean eig= 4.76
 eig:   6.365  6.365  1.545
 bond charge predicted
       N       E                     dE             d eps       ncg     rms          rms(c)
DAV:   1    -0.136322514195E+04   -0.15284E+00   -0.36746E+01  1368   0.853E+00    0.967E-01
DAV:   2    -0.136341105954E+04   -0.18592E+00   -0.19485E+00  2296   0.337E+00    0.507E-01
DAV:   3    -0.136342157007E+04   -0.10511E-01   -0.15211E-01  2584   0.635E-01    0.406E-01
DAV:   4    -0.136341898491E+04    0.25852E-02   -0.13877E-02  2592   0.277E-01    0.282E-01
DAV:   5    -0.136341666107E+04    0.23238E-02   -0.74992E-03  2232   0.172E-01    0.102E-01
DAV:   6    -0.136341690658E+04   -0.24551E-03   -0.48200E-03  2408   0.119E-01    0.855E-02
DAV:   7    -0.136341689162E+04    0.14960E-04   -0.14652E-03  2440   0.716E-02    0.606E-02
DAV:   8    -0.136341687395E+04    0.17670E-04   -0.60542E-04  2576   0.463E-02    0.328E-02
DAV:   9    -0.136341686880E+04    0.51512E-05   -0.12379E-04  2440   0.238E-02    0.234E-02
DAV:  10    -0.136341686924E+04   -0.44329E-06   -0.54596E-05  2480   0.144E-02    0.110E-02
DAV:  11    -0.136341686965E+04   -0.41534E-06   -0.13368E-05  1992   0.892E-03    0.541E-03
DAV:  12    -0.136341687027E+04   -0.61402E-06   -0.94407E-06  1664   0.596E-03
  15 F= -.13634169E+04 E0= -.13634169E+04  d E =-.344572E+00
 BRION: g(F)=  0.149E+00 g(S)=  0.000E+00 retain N=  3 mean eig= 3.55
 eig:   4.530  4.530  1.580
 bond charge predicted
       N       E                     dE             d eps       ncg     rms          rms(c)
DAV:   1    -0.136356370382E+04   -0.14683E+00   -0.21810E+01  1368   0.656E+00    0.749E-01
DAV:   2    -0.136367245954E+04   -0.10876E+00   -0.11397E+00  2304   0.257E+00    0.392E-01
DAV:   3    -0.136367859046E+04   -0.61309E-02   -0.89166E-02  2592   0.484E-01    0.310E-01
DAV:   4    -0.136367693153E+04    0.16589E-02   -0.82575E-03  2560   0.213E-01    0.208E-01
DAV:   5    -0.136367573573E+04    0.11958E-02   -0.44982E-03  2264   0.134E-01    0.742E-02
DAV:   6    -0.136367590710E+04   -0.17137E-03   -0.25352E-03  2448   0.897E-02    0.653E-02
DAV:   7    -0.136367589041E+04    0.16690E-04   -0.78378E-04  2504   0.539E-02    0.447E-02
DAV:   8    -0.136367588077E+04    0.96388E-05   -0.30966E-04  2536   0.333E-02    0.238E-02
DAV:   9    -0.136367587799E+04    0.27761E-05   -0.61710E-05  2408   0.170E-02    0.168E-02
DAV:  10    -0.136367587867E+04   -0.68321E-06   -0.33062E-05  2400   0.111E-02    0.826E-03
DAV:  11    -0.136367587837E+04    0.30194E-06   -0.54602E-06  1360   0.725E-03
  16 F= -.13636759E+04 E0= -.13636759E+04  d E =-.259008E+00
 BRION: g(F)=  0.137E+00 g(S)=  0.000E+00 retain N=  3 mean eig= 4.83
 eig:   6.456  6.456  1.587
 bond charge predicted
       N       E                     dE             d eps       ncg     rms          rms(c)
DAV:   1    -0.136383499145E+04   -0.15911E+00   -0.29910E+01  1384   0.770E+00    0.864E-01
DAV:   2    -0.136398315729E+04   -0.14817E+00   -0.15549E+00  2312   0.304E+00    0.456E-01
DAV:   3    -0.136399126984E+04   -0.81126E-02   -0.11897E-01  2592   0.562E-01    0.359E-01
DAV:   4    -0.136398917465E+04    0.20952E-02   -0.11322E-02  2576   0.246E-01    0.243E-01
DAV:   5    -0.136398758813E+04    0.15865E-02   -0.60882E-03  2232   0.152E-01    0.898E-02
DAV:   6    -0.136398777201E+04   -0.18388E-03   -0.31742E-03  2432   0.969E-02    0.762E-02
DAV:   7    -0.136398774957E+04    0.22437E-04   -0.11571E-03  2480   0.644E-02    0.489E-02
DAV:   8    -0.136398774276E+04    0.68139E-05   -0.44873E-04  2544   0.405E-02    0.310E-02
DAV:   9    -0.136398773895E+04    0.38065E-05   -0.92065E-05  2480   0.206E-02    0.216E-02
DAV:  10    -0.136398773857E+04    0.38379E-06   -0.53086E-05  2496   0.134E-02    0.957E-03
DAV:  11    -0.136398773895E+04   -0.38091E-06   -0.10960E-05  1880   0.854E-03    0.460E-03
DAV:  12    -0.136398773949E+04   -0.53844E-06   -0.85714E-06  1664   0.579E-03
  17 F= -.13639877E+04 E0= -.13639877E+04  d E =-.311861E+00
 BRION: g(F)=  0.127E+00 g(S)=  0.000E+00 retain N=  3 mean eig= 4.56
 eig:   6.083  6.083  1.521
 bond charge predicted
       N       E                     dE             d eps       ncg     rms          rms(c)
DAV:   1    -0.136413166391E+04   -0.14392E+00   -0.27298E+01  1384   0.734E+00    0.828E-01
DAV:   2    -0.136426577103E+04   -0.13411E+00   -0.14060E+00  2312   0.287E+00    0.433E-01
DAV:   3    -0.136427323131E+04   -0.74603E-02   -0.11006E-01  2592   0.529E-01    0.339E-01
DAV:   4    -0.136427107173E+04    0.21596E-02   -0.10199E-02  2568   0.235E-01    0.226E-01
DAV:   5    -0.136426953473E+04    0.15370E-02   -0.55204E-03  2232   0.149E-01    0.805E-02
DAV:   6    -0.136426973008E+04   -0.19535E-03   -0.32658E-03  2448   0.978E-02    0.708E-02
DAV:   7    -0.136426971892E+04    0.11159E-04   -0.86312E-04  2504   0.573E-02    0.501E-02
DAV:   8    -0.136426970471E+04    0.14208E-04   -0.37107E-04  2568   0.354E-02    0.257E-02
DAV:   9    -0.136426970173E+04    0.29865E-05   -0.73179E-05  2416   0.189E-02    0.177E-02
DAV:  10    -0.136426970206E+04   -0.33692E-06   -0.33700E-05  2464   0.119E-02    0.846E-03
DAV:  11    -0.136426970207E+04   -0.15134E-08   -0.75405E-06  1616   0.704E-03
  18 F= -.13642697E+04 E0= -.13642697E+04  d E =-.281963E+00
 BRION: g(F)=  0.116E+00 g(S)=  0.000E+00 retain N=  3 mean eig= 3.91
 eig:   5.134  5.134  1.448
 bond charge predicted
       N       E                     dE             d eps       ncg     rms          rms(c)
DAV:   1    -0.136438111079E+04   -0.11141E+00   -0.46129E+01  1368   0.958E+00    0.108E+00
DAV:   2    -0.136461103161E+04   -0.22992E+00   -0.24198E+00  2312   0.378E+00    0.567E-01
DAV:   3    -0.136462426373E+04   -0.13232E-01   -0.19106E-01  2584   0.703E-01    0.451E-01
DAV:   4    -0.136462126172E+04    0.30020E-02   -0.17274E-02  2584   0.308E-01    0.319E-01
DAV:   5    -0.136461830634E+04    0.29554E-02   -0.93627E-03  2208   0.192E-01    0.125E-01
DAV:   6    -0.136461851947E+04   -0.21313E-03   -0.62083E-03  2344   0.134E-01    0.103E-01
DAV:   7    -0.136461849195E+04    0.27527E-04   -0.22834E-03  2440   0.891E-02    0.718E-02
DAV:   8    -0.136461846804E+04    0.23911E-04   -0.93179E-04  2568   0.575E-02    0.440E-02
DAV:   9    -0.136461845631E+04    0.11730E-04   -0.21108E-04  2472   0.302E-02    0.291E-02
DAV:  10    -0.136461845577E+04    0.54202E-06   -0.10413E-04  2536   0.189E-02    0.137E-02
DAV:  11    -0.136461845683E+04   -0.10697E-05   -0.24272E-05  2272   0.119E-02    0.690E-03
DAV:  12    -0.136461845739E+04   -0.55689E-06   -0.12414E-05  1848   0.730E-03    0.631E-03
DAV:  13    -0.136461845684E+04    0.55454E-06   -0.23892E-06  1056   0.525E-03
  19 F= -.13646185E+04 E0= -.13646185E+04  d E =-.348755E+00
 BRION: g(F)=  0.998E-01 g(S)=  0.000E+00 retain N=  3 mean eig= 5.80
 eig:   7.800  7.800  1.814
 bond charge predicted
       N       E                     dE             d eps       ncg     rms          rms(c)
DAV:   1    -0.136472618242E+04   -0.10773E+00   -0.27615E+01  1376   0.743E+00    0.847E-01
DAV:   2    -0.136486378362E+04   -0.13760E+00   -0.14509E+00  2304   0.291E+00    0.439E-01
DAV:   3    -0.136487174665E+04   -0.79630E-02   -0.11559E-01  2584   0.547E-01    0.352E-01
DAV:   4    -0.136486990647E+04    0.18402E-02   -0.10463E-02  2584   0.242E-01    0.251E-01
DAV:   5    -0.136486798171E+04    0.19248E-02   -0.60449E-03  2232   0.155E-01    0.973E-02
DAV:   6    -0.136486813000E+04   -0.14828E-03   -0.41862E-03  2344   0.111E-01    0.860E-02
DAV:   7    -0.136486810738E+04    0.22623E-04   -0.14112E-03  2464   0.709E-02    0.608E-02
DAV:   8    -0.136486808173E+04    0.25649E-04   -0.59750E-04  2544   0.457E-02    0.325E-02
DAV:   9    -0.136486807598E+04    0.57462E-05   -0.12731E-04  2368   0.237E-02    0.215E-02
DAV:  10    -0.136486807627E+04   -0.28611E-06   -0.58475E-05  2408   0.148E-02    0.108E-02
DAV:  11    -0.136486807629E+04   -0.20998E-07   -0.13650E-05  2000   0.906E-03    0.494E-03
DAV:  12    -0.136486807688E+04   -0.59487E-06   -0.89802E-06  1664   0.579E-03
  20 F= -.13648681E+04 E0= -.13648681E+04  d E =-.249620E+00
 BRION: g(F)=  0.888E-01 g(S)=  0.000E+00 retain N=  3 mean eig= 5.27
 eig:   7.006  7.006  1.813
