 running on  160 total cores
 distrk:  each k-point on  160 cores,    1 groups
 distr:  one band on   20 cores,    8 groups
 using from now: INCAR     
 vasp.5.4.4.18Apr17-6-g9f103f2a35 (build May 01 2020 14:22:42) gamma-only       
  
 POSCAR found type information on POSCAR  O  La Zr Li Al
 POSCAR found :  5 types and     188 ions
 scaLAPACK will be used
 LDA part: xc-table for Pade appr. of Perdew
 POSCAR, INCAR and KPOINTS ok, starting setup
 FFT: planning ...
 WAVECAR not read
 WARNING: random wavefunctions but no delay for mixing, default for NELMDL
 entering main loop
       N       E                     dE             d eps       ncg     rms          rms(c)
DAV:   1     0.253001157699E+05    0.25300E+05   -0.42104E+05  1608   0.253E+03
DAV:   2     0.941362897005E+04   -0.15886E+05   -0.14644E+05  1432   0.708E+02
DAV:   3     0.268948167673E+04   -0.67241E+04   -0.61266E+04  1504   0.356E+02
DAV:   4    -0.370433550195E+03   -0.30599E+04   -0.28543E+04  2048   0.222E+02
DAV:   5    -0.140993225723E+04   -0.10395E+04   -0.10015E+04  2536   0.141E+02    0.117E+02
DAV:   6    -0.129766403982E+04    0.11227E+03   -0.14597E+03  2440   0.660E+01    0.502E+01
DAV:   7    -0.132035337669E+04   -0.22689E+02   -0.39452E+02  2536   0.341E+01    0.254E+01
DAV:   8    -0.132752104041E+04   -0.71677E+01   -0.25385E+02  2520   0.273E+01    0.252E+01
DAV:   9    -0.132197127491E+04    0.55498E+01   -0.47389E+01  2552   0.144E+01    0.842E+00
DAV:  10    -0.132262436895E+04   -0.65309E+00   -0.17443E+01  2608   0.786E+00    0.773E+00
DAV:  11    -0.132291432520E+04   -0.28996E+00   -0.51225E+00  2624   0.412E+00    0.493E+00
DAV:  12    -0.132292628692E+04   -0.11962E-01   -0.17038E+00  2576   0.292E+00    0.442E+00
DAV:  13    -0.132288256443E+04    0.43722E-01   -0.15877E+00  2584   0.212E+00    0.257E+00
DAV:  14    -0.132286925707E+04    0.13307E-01   -0.23627E-01  2520   0.111E+00    0.189E+00
DAV:  15    -0.132286985589E+04   -0.59882E-03   -0.19468E-01  2408   0.764E-01    0.129E+00
DAV:  16    -0.132285930891E+04    0.10547E-01   -0.85250E-02  2440   0.515E-01    0.656E-01
DAV:  17    -0.132286040153E+04   -0.10926E-02   -0.18149E-02  2568   0.272E-01    0.326E-01
DAV:  18    -0.132286059961E+04   -0.19807E-03   -0.51430E-03  2624   0.126E-01    0.195E-01
DAV:  19    -0.132286056889E+04    0.30717E-04   -0.36164E-03  2544   0.111E-01    0.108E-01
DAV:  20    -0.132286064086E+04   -0.71969E-04   -0.79761E-04  2592   0.548E-02    0.630E-02
DAV:  21    -0.132286063197E+04    0.88891E-05   -0.36939E-04  2536   0.333E-02    0.381E-02
DAV:  22    -0.132286064483E+04   -0.12858E-04   -0.13099E-04  2520   0.190E-02    0.111E-02
DAV:  23    -0.132286065023E+04   -0.54014E-05   -0.57521E-05  2368   0.118E-02    0.166E-02
DAV:  24    -0.132286065276E+04   -0.25311E-05   -0.18285E-05  1312   0.885E-03    0.630E-03
DAV:  25    -0.132286065295E+04   -0.19452E-06   -0.21423E-05  1704   0.829E-03    0.505E-03
DAV:  26    -0.132286065451E+04   -0.15568E-05   -0.35424E-06  1008   0.493E-03    0.349E-03
DAV:  27    -0.132286065452E+04   -0.72177E-08   -0.18623E-06   968   0.481E-03
   1 F= -.13228607E+04 E0= -.13228417E+04  d E =-.132286E+04
 BRION: g(F)=  0.719E+02 g(S)=  0.000E+00
 bond charge predicted
       N       E                     dE             d eps       ncg     rms          rms(c)
DAV:   1    -0.128126561959E+04    0.41595E+02   -0.82335E+03  1728   0.138E+02    0.306E+01
DAV:   2    -0.134497587167E+04   -0.63710E+02   -0.73939E+02  2568   0.623E+01    0.157E+01
DAV:   3    -0.134283201110E+04    0.21439E+01   -0.43755E+01  2616   0.168E+01    0.102E+01
DAV:   4    -0.134031017880E+04    0.25218E+01   -0.14892E+01  2464   0.803E+00    0.488E+00
DAV:   5    -0.134002076159E+04    0.28942E+00   -0.43383E+00  2528   0.472E+00    0.325E+00
DAV:   6    -0.133992015840E+04    0.10060E+00   -0.29892E+00  2608   0.314E+00    0.181E+00
DAV:   7    -0.133989465387E+04    0.25505E-01   -0.57968E-01  2544   0.182E+00    0.118E+00
DAV:   8    -0.133989477049E+04   -0.11662E-03   -0.43806E-01  2576   0.111E+00    0.766E-01
DAV:   9    -0.133989110980E+04    0.36607E-02   -0.59253E-02  2536   0.609E-01    0.535E-01
DAV:  10    -0.133988905996E+04    0.20498E-02   -0.52082E-02  2624   0.393E-01    0.201E-01
DAV:  11    -0.133988976739E+04   -0.70742E-03   -0.99975E-03  2552   0.215E-01    0.135E-01
DAV:  12    -0.133988985925E+04   -0.91869E-04   -0.21590E-03  2616   0.979E-02    0.782E-02
DAV:  13    -0.133988983724E+04    0.22016E-04   -0.13040E-03  2544   0.689E-02    0.257E-02
DAV:  14    -0.133988985913E+04   -0.21891E-04   -0.29855E-04  2536   0.397E-02    0.130E-02
DAV:  15    -0.133988986686E+04   -0.77264E-05   -0.81371E-05  2608   0.190E-02    0.106E-02
DAV:  16    -0.133988986798E+04   -0.11279E-05   -0.23916E-05  2360   0.100E-02    0.581E-03
DAV:  17    -0.133988986949E+04   -0.15037E-05   -0.10230E-05  1976   0.700E-03    0.438E-03
DAV:  18    -0.133988986931E+04    0.17571E-06   -0.12129E-06  1016   0.440E-03
   2 F= -.13398899E+04 E0= -.13398899E+04  d E =-.170292E+02
 BRION: g(F)=  0.113E+03 g(S)=  0.000E+00 retain N=  1 mean eig= 0.42
 eig:   0.424
 bond charge predicted
       N       E                     dE             d eps       ncg     rms          rms(c)
DAV:   1    -0.132341384928E+04    0.16476E+02   -0.28611E+03  1376   0.659E+01    0.220E+01
DAV:   2    -0.135464875621E+04   -0.31235E+02   -0.40101E+02  2568   0.329E+01    0.199E+01
DAV:   3    -0.135128990485E+04    0.33589E+01   -0.31907E+01  2448   0.122E+01    0.140E+01
DAV:   4    -0.134908748482E+04    0.22024E+01   -0.30365E+01  2144   0.685E+00    0.621E+00
DAV:   5    -0.134970469559E+04   -0.61721E+00   -0.75265E+00  2488   0.464E+00    0.730E+00
DAV:   6    -0.134880596056E+04    0.89874E+00   -0.40997E+00  2504   0.310E+00    0.258E+00
DAV:   7    -0.134879802924E+04    0.79313E-02   -0.13858E+00  2504   0.205E+00    0.771E-01
DAV:   8    -0.134880292559E+04   -0.48963E-02   -0.16136E-01  2584   0.927E-01    0.480E-01
DAV:   9    -0.134880272423E+04    0.20136E-03   -0.42855E-02  2608   0.373E-01    0.285E-01
DAV:  10    -0.134880284831E+04   -0.12408E-03   -0.11246E-02  2552   0.226E-01    0.127E-01
DAV:  11    -0.134880311837E+04   -0.27007E-03   -0.48931E-03  2624   0.133E-01    0.135E-01
DAV:  12    -0.134880297934E+04    0.13904E-03   -0.21830E-03  2624   0.888E-02    0.693E-02
DAV:  13    -0.134880298778E+04   -0.84415E-05   -0.80352E-04  2576   0.515E-02    0.363E-02
DAV:  14    -0.134880298811E+04   -0.33628E-06   -0.19802E-04  2624   0.283E-02    0.203E-02
DAV:  15    -0.134880298804E+04    0.78813E-07   -0.63775E-05  2624   0.172E-02    0.118E-02
DAV:  16    -0.134880298871E+04   -0.67287E-06   -0.16182E-05  2272   0.868E-03    0.736E-03
DAV:  17    -0.134880298835E+04    0.35732E-06   -0.27770E-06  1136   0.500E-03
   3 F= -.13488030E+04 E0= -.13488030E+04  d E =-.891312E+01
 BRION: g(F)=  0.175E+02 g(S)=  0.000E+00 retain N=  2 mean eig= 1.26
 eig:   0.251  2.273
 bond charge predicted
       N       E                     dE             d eps       ncg     rms          rms(c)
DAV:   1    -0.134912103507E+04   -0.31805E+00   -0.65447E+02  1336   0.329E+01    0.742E+00
DAV:   2    -0.135309935579E+04   -0.39783E+01   -0.44681E+01  2392   0.137E+01    0.430E+00
DAV:   3    -0.135305848295E+04    0.40873E-01   -0.29074E+00  2592   0.418E+00    0.332E+00
DAV:   4    -0.135292725128E+04    0.13123E+00   -0.11012E+00  2360   0.185E+00    0.177E+00
DAV:   5    -0.135291961067E+04    0.76406E-02   -0.31313E-01  2488   0.117E+00    0.130E+00
DAV:   6    -0.135290056683E+04    0.19044E-01   -0.28378E-01  2488   0.927E-01    0.522E-01
DAV:   7    -0.135290238375E+04   -0.18169E-02   -0.61654E-02  2496   0.477E-01    0.457E-01
DAV:   8    -0.135290082687E+04    0.15569E-02   -0.16453E-02  2576   0.233E-01    0.261E-01
DAV:   9    -0.135290011120E+04    0.71568E-03   -0.97457E-03  2448   0.168E-01    0.115E-01
DAV:  10    -0.135290049444E+04   -0.38324E-03   -0.46021E-03  2344   0.116E-01    0.131E-01
DAV:  11    -0.135290022262E+04    0.27182E-03   -0.82079E-04  2544   0.660E-02    0.616E-02
DAV:  12    -0.135290022836E+04   -0.57397E-05   -0.87906E-04  2472   0.451E-02    0.351E-02
DAV:  13    -0.135290022833E+04    0.32334E-07   -0.11816E-04  2528   0.241E-02    0.186E-02
DAV:  14    -0.135290022705E+04    0.12805E-05   -0.34984E-05  2488   0.104E-02    0.928E-03
DAV:  15    -0.135290022731E+04   -0.26243E-06   -0.49767E-06  1344   0.607E-03
   4 F= -.13529002E+04 E0= -.13529002E+04  d E =-.409724E+01
 BRION: g(F)=  0.565E+01 g(S)=  0.000E+00 retain N=  3 mean eig= 2.24
 eig:   5.921  0.404  0.404
 bond charge predicted
       N       E                     dE             d eps       ncg     rms          rms(c)
DAV:   1    -0.135386918390E+04   -0.96896E+00   -0.28091E+02  1360   0.222E+01    0.474E+00
DAV:   2    -0.135524993088E+04   -0.13807E+01   -0.15000E+01  2280   0.824E+00    0.234E+00
DAV:   3    -0.135524324150E+04    0.66894E-02   -0.10091E+00  2616   0.191E+00    0.185E+00
DAV:   4    -0.135519829827E+04    0.44943E-01   -0.40396E-01  2456   0.120E+00    0.775E-01
DAV:   5    -0.135519830840E+04   -0.10125E-04   -0.99526E-02  2488   0.678E-01    0.598E-01
DAV:   6    -0.135519748704E+04    0.82136E-03   -0.96736E-02  2392   0.496E-01    0.300E-01
DAV:   7    -0.135519684845E+04    0.63859E-03   -0.15426E-02  2448   0.261E-01    0.238E-01
DAV:   8    -0.135519655272E+04    0.29573E-03   -0.86003E-03  2504   0.145E-01    0.804E-02
DAV:   9    -0.135519663618E+04   -0.83464E-04   -0.18877E-03  2552   0.809E-02    0.736E-02
DAV:  10    -0.135519658760E+04    0.48581E-04   -0.53814E-04  2600   0.465E-02    0.418E-02
DAV:  11    -0.135519659136E+04   -0.37571E-05   -0.36823E-04  2608   0.324E-02    0.173E-02
DAV:  12    -0.135519659299E+04   -0.16315E-05   -0.54371E-05  2592   0.141E-02    0.114E-02
DAV:  13    -0.135519659222E+04    0.76827E-06   -0.15171E-05  2096   0.941E-03    0.590E-03
DAV:  14    -0.135519659274E+04   -0.52083E-06   -0.11067E-05  1824   0.614E-03    0.235E-03
DAV:  15    -0.135519659280E+04   -0.59736E-07   -0.11711E-06  1040   0.402E-03
   5 F= -.13551966E+04 E0= -.13551966E+04  d E =-.229637E+01
 BRION: g(F)=  0.250E+01 g(S)=  0.000E+00 retain N=  4 mean eig= 1.92
 eig:   6.495  0.451  0.451  0.284
 bond charge predicted
       N       E                     dE             d eps       ncg     rms          rms(c)
DAV:   1    -0.135579124290E+04   -0.59465E+00   -0.19626E+02  1376   0.195E+01    0.292E+00
DAV:   2    -0.135674460208E+04   -0.95336E+00   -0.10141E+01  2280   0.742E+00    0.141E+00
DAV:   3    -0.135676735775E+04   -0.22756E-01   -0.67685E-01  2608   0.147E+00    0.115E+00
DAV:   4    -0.135673777625E+04    0.29582E-01   -0.12904E-01  2552   0.769E-01    0.613E-01
DAV:   5    -0.135673053440E+04    0.72418E-02   -0.57002E-02  2416   0.481E-01    0.318E-01
DAV:   6    -0.135673128819E+04   -0.75378E-03   -0.32754E-02  2552   0.338E-01    0.210E-01
DAV:   7    -0.135673113611E+04    0.15208E-03   -0.89862E-03  2296   0.179E-01    0.162E-01
DAV:   8    -0.135673109207E+04    0.44044E-04   -0.32412E-03  2352   0.960E-02    0.858E-02
DAV:   9    -0.135673104316E+04    0.48904E-04   -0.94513E-04  2600   0.570E-02    0.541E-02
DAV:  10    -0.135673106513E+04   -0.21968E-04   -0.53786E-04  2552   0.441E-02    0.479E-02
DAV:  11    -0.135673104223E+04    0.22901E-04   -0.23690E-04  2480   0.305E-02    0.186E-02
DAV:  12    -0.135673104691E+04   -0.46869E-05   -0.10862E-04  2424   0.190E-02    0.125E-02
DAV:  13    -0.135673104644E+04    0.47425E-06   -0.21264E-05  2272   0.102E-02    0.724E-03
DAV:  14    -0.135673104662E+04   -0.17612E-06   -0.98292E-06  1712   0.620E-03
   6 F= -.13567310E+04 E0= -.13567310E+04  d E =-.153445E+01
 BRION: g(F)=  0.145E+01 g(S)=  0.000E+00 retain N=  5 mean eig= 1.75
 eig:   5.890  0.933  0.626  0.626  0.672
 bond charge predicted
       N       E                     dE             d eps       ncg     rms          rms(c)
DAV:   1    -0.135693510172E+04   -0.20406E+00   -0.20242E+02  1360   0.199E+01    0.281E+00
DAV:   2    -0.135794721447E+04   -0.10121E+01   -0.10637E+01  2280   0.731E+00    0.144E+00
DAV:   3    -0.135798548635E+04   -0.38272E-01   -0.76027E-01  2616   0.153E+00    0.116E+00
DAV:   4    -0.135796288467E+04    0.22602E-01   -0.11597E-01  2584   0.741E-01    0.657E-01
DAV:   5    -0.135795609936E+04    0.67853E-02   -0.53267E-02  2472   0.442E-01    0.307E-01
DAV:   6    -0.135795703609E+04   -0.93672E-03   -0.22277E-02  2568   0.282E-01    0.221E-01
DAV:   7    -0.135795673567E+04    0.30041E-03   -0.74603E-03  2528   0.167E-01    0.137E-01
DAV:   8    -0.135795677149E+04   -0.35818E-04   -0.32201E-03  2592   0.983E-02    0.759E-02
DAV:   9    -0.135795671712E+04    0.54370E-04   -0.52926E-04  2600   0.507E-02    0.502E-02
DAV:  10    -0.135795673994E+04   -0.22821E-04   -0.57395E-04  2384   0.396E-02    0.359E-02
DAV:  11    -0.135795672347E+04    0.16476E-04   -0.16303E-04  2504   0.285E-02    0.129E-02
DAV:  12    -0.135795672834E+04   -0.48740E-05   -0.71464E-05  2448   0.154E-02    0.112E-02
DAV:  13    -0.135795672724E+04    0.11048E-05   -0.13501E-05  1832   0.816E-03    0.545E-03
DAV:  14    -0.135795672725E+04   -0.12689E-07   -0.45724E-06  1256   0.557E-03
   7 F= -.13579567E+04 E0= -.13579567E+04  d E =-.122568E+01
 BRION: g(F)=  0.605E+00 g(S)=  0.000E+00 retain N=  6 mean eig= 1.79
 eig:   6.527  1.318  1.318  0.498  0.541  0.541
 bond charge predicted
       N       E                     dE             d eps       ncg     rms          rms(c)
DAV:   1    -0.135816293544E+04   -0.20621E+00   -0.94655E+01  1384   0.139E+01    0.191E+00
DAV:   2    -0.135863619324E+04   -0.47326E+00   -0.49629E+00  2288   0.529E+00    0.958E-01
DAV:   3    -0.135865915717E+04   -0.22964E-01   -0.37891E-01  2624   0.105E+00    0.768E-01
DAV:   4    -0.135864942159E+04    0.97356E-02   -0.54801E-02  2584   0.529E-01    0.431E-01
DAV:   5    -0.135864699937E+04    0.24222E-02   -0.22380E-02  2448   0.311E-01    0.197E-01
DAV:   6    -0.135864756199E+04   -0.56262E-03   -0.10674E-02  2584   0.201E-01    0.142E-01
DAV:   7    -0.135864743894E+04    0.12304E-03   -0.33169E-03  2336   0.115E-01    0.956E-02
DAV:   8    -0.135864746203E+04   -0.23087E-04   -0.17780E-03  2400   0.714E-02    0.559E-02
DAV:   9    -0.135864743642E+04    0.25614E-04   -0.27376E-04  2552   0.378E-02    0.396E-02
DAV:  10    -0.135864743683E+04   -0.41268E-06   -0.37018E-04  2432   0.331E-02    0.268E-02
DAV:  11    -0.135864743234E+04    0.44838E-05   -0.93217E-05  2432   0.212E-02    0.122E-02
DAV:  12    -0.135864743446E+04   -0.21106E-05   -0.41978E-05  2336   0.116E-02    0.886E-03
DAV:  13    -0.135864743368E+04    0.77151E-06   -0.75395E-06  1544   0.695E-03
   8 F= -.13586474E+04 E0= -.13586474E+04  d E =-.690706E+00
 BRION: g(F)=  0.482E+00 g(S)=  0.000E+00 retain N=  7 mean eig= 1.87
 eig:   6.897  1.995  1.995  0.385  0.615  0.615  0.565
 bond charge predicted
       N       E                     dE             d eps       ncg     rms          rms(c)
DAV:   1    -0.135887403464E+04   -0.22660E+00   -0.46128E+01  1376   0.975E+00    0.121E+00
DAV:   2    -0.135910912937E+04   -0.23509E+00   -0.24889E+00  2288   0.378E+00    0.620E-01
DAV:   3    -0.135912257299E+04   -0.13444E-01   -0.19835E-01  2616   0.752E-01    0.505E-01
DAV:   4    -0.135911911863E+04    0.34544E-02   -0.21994E-02  2616   0.351E-01    0.331E-01
DAV:   5    -0.135911698526E+04    0.21334E-02   -0.11552E-02  2320   0.212E-01    0.131E-01
DAV:   6    -0.135911737531E+04   -0.39005E-03   -0.62183E-03  2536   0.153E-01    0.122E-01
DAV:   7    -0.135911730162E+04    0.73684E-04   -0.29403E-03  2472   0.991E-02    0.801E-02
DAV:   8    -0.135911728153E+04    0.20089E-04   -0.99424E-04  2592   0.610E-02    0.433E-02
DAV:   9    -0.135911727234E+04    0.91920E-05   -0.17099E-04  2576   0.284E-02    0.321E-02
DAV:  10    -0.135911727586E+04   -0.35178E-05   -0.13704E-04  2344   0.198E-02    0.198E-02
DAV:  11    -0.135911727287E+04    0.29884E-05   -0.47250E-05  2400   0.154E-02    0.873E-03
DAV:  12    -0.135911727471E+04   -0.18373E-05   -0.26814E-05  2280   0.986E-03    0.974E-03
DAV:  13    -0.135911727341E+04    0.12981E-05   -0.77794E-06  1584   0.638E-03    0.430E-03
DAV:  14    -0.135911727337E+04    0.39043E-07   -0.27522E-06  1088   0.521E-03
   9 F= -.13591173E+04 E0= -.13591173E+04  d E =-.469840E+00
 BRION: g(F)=  0.342E+00 g(S)=  0.000E+00 retain N=  8 mean eig= 2.19
 eig:   6.844  3.621  3.621  0.769  0.730  0.730  0.605  0.605
 bond charge predicted
       N       E                     dE             d eps       ncg     rms          rms(c)
DAV:   1    -0.135930536394E+04   -0.18809E+00   -0.62264E+01  1376   0.113E+01    0.142E+00
DAV:   2    -0.135962010250E+04   -0.31474E+00   -0.33110E+00  2280   0.430E+00    0.711E-01
DAV:   3    -0.135963788456E+04   -0.17782E-01   -0.25844E-01  2608   0.861E-01    0.570E-01
DAV:   4    -0.135963310872E+04    0.47758E-02   -0.29040E-02  2592   0.401E-01    0.358E-01
DAV:   5    -0.135963089565E+04    0.22131E-02   -0.14190E-02  2392   0.239E-01    0.136E-01
DAV:   6    -0.135963145025E+04   -0.55461E-03   -0.67116E-03  2600   0.154E-01    0.118E-01
DAV:   7    -0.135963137969E+04    0.70563E-04   -0.21766E-03  2600   0.926E-02    0.762E-02
DAV:   8    -0.135963136055E+04    0.19144E-04   -0.85376E-04  2624   0.567E-02    0.398E-02
DAV:   9    -0.135963135590E+04    0.46482E-05   -0.14339E-04  2544   0.268E-02    0.276E-02
DAV:  10    -0.135963136085E+04   -0.49555E-05   -0.96496E-05  2552   0.181E-02    0.159E-02
DAV:  11    -0.135963136005E+04    0.79870E-06   -0.29794E-05  2368   0.122E-02    0.749E-03
DAV:  12    -0.135963136076E+04   -0.70842E-06   -0.10984E-05  1848   0.734E-03    0.673E-03
DAV:  13    -0.135963136004E+04    0.71785E-06   -0.25299E-06  1064   0.531E-03
  10 F= -.13596314E+04 E0= -.13596314E+04  d E =-.514087E+00
 BRION: g(F)=  0.259E+00 g(S)=  0.000E+00 retain N=  9 mean eig= 2.36
 eig:   7.904  4.179  4.179  0.670  1.243  1.243  0.532  0.532  0.761
 bond charge predicted
       N       E                     dE             d eps       ncg     rms          rms(c)
DAV:   1    -0.135981860646E+04   -0.18725E+00   -0.43209E+01  1376   0.941E+00    0.111E+00
DAV:   2    -0.136003763129E+04   -0.21902E+00   -0.23044E+00  2296   0.360E+00    0.570E-01
DAV:   3    -0.136005044663E+04   -0.12815E-01   -0.18172E-01  2600   0.710E-01    0.455E-01
DAV:   4    -0.136004754081E+04    0.29058E-02   -0.19270E-02  2584   0.324E-01    0.298E-01
DAV:   5    -0.136004575269E+04    0.17881E-02   -0.85329E-03  2408   0.185E-01    0.117E-01
DAV:   6    -0.136004601667E+04   -0.26398E-03   -0.45374E-03  2480   0.128E-01    0.853E-02
DAV:   7    -0.136004602238E+04   -0.57159E-05   -0.17965E-03  2456   0.822E-02    0.616E-02
DAV:   8    -0.136004602315E+04   -0.76622E-06   -0.68385E-04  2616   0.493E-02    0.359E-02
DAV:   9    -0.136004601643E+04    0.67183E-05   -0.13899E-04  2536   0.257E-02    0.260E-02
DAV:  10    -0.136004601735E+04   -0.91751E-06   -0.80352E-05  2568   0.164E-02    0.154E-02
DAV:  11    -0.136004601732E+04    0.32218E-07   -0.30639E-05  2336   0.117E-02    0.799E-03
DAV:  12    -0.136004601720E+04    0.12197E-06   -0.90299E-06  1808   0.770E-03
  11 F= -.13600460E+04 E0= -.13600460E+04  d E =-.414657E+00
 BRION: g(F)=  0.210E+00 g(S)=  0.000E+00 retain N=  9 mean eig= 2.30
 eig:   6.724  6.724  2.373  2.373  0.918  0.918  0.421  0.112  0.112
 bond charge predicted
       N       E                     dE             d eps       ncg     rms          rms(c)
DAV:   1    -0.136019623102E+04   -0.15021E+00   -0.61449E+01  1368   0.112E+01    0.132E+00
DAV:   2    -0.136051068706E+04   -0.31446E+00   -0.33132E+00  2296   0.432E+00    0.659E-01
DAV:   3    -0.136052940850E+04   -0.18721E-01   -0.26288E-01  2592   0.853E-01    0.527E-01
DAV:   4    -0.136052550682E+04    0.39017E-02   -0.26370E-02  2592   0.382E-01    0.359E-01
DAV:   5    -0.136052252773E+04    0.29791E-02   -0.11731E-02  2408   0.217E-01    0.137E-01
DAV:   6    -0.136052287014E+04   -0.34241E-03   -0.67157E-03  2464   0.150E-01    0.952E-02
DAV:   7    -0.136052290601E+04   -0.35863E-04   -0.24103E-03  2496   0.944E-02    0.695E-02
DAV:   8    -0.136052290506E+04    0.94980E-06   -0.83542E-04  2616   0.562E-02    0.397E-02
DAV:   9    -0.136052290000E+04    0.50587E-05   -0.19059E-04  2520   0.296E-02    0.288E-02
DAV:  10    -0.136052290326E+04   -0.32577E-05   -0.86358E-05  2544   0.178E-02    0.162E-02
DAV:  11    -0.136052290326E+04   -0.91677E-09   -0.33511E-05  2432   0.124E-02    0.780E-03
DAV:  12    -0.136052290361E+04   -0.35661E-06   -0.12590E-05  1928   0.831E-03    0.622E-03
DAV:  13    -0.136052290335E+04    0.26515E-06   -0.51532E-06  1360   0.524E-03
  12 F= -.13605229E+04 E0= -.13605229E+04  d E =-.476886E+00
 BRION: g(F)=  0.168E+00 g(S)=  0.000E+00 retain N=  9 mean eig= 2.29
 eig:   5.942  5.942  2.005  2.005  0.778  0.778  1.060  1.060  1.063
 bond charge predicted
       N       E                     dE             d eps       ncg     rms          rms(c)
DAV:   1    -0.136066958307E+04   -0.14668E+00   -0.46504E+01  1368   0.979E+00    0.114E+00
DAV:   2    -0.136091180309E+04   -0.24222E+00   -0.25693E+00  2304   0.383E+00    0.582E-01
DAV:   3    -0.136092690200E+04   -0.15099E-01   -0.20956E-01  2576   0.761E-01    0.478E-01
DAV:   4    -0.136092430515E+04    0.25968E-02   -0.20476E-02  2592   0.338E-01    0.343E-01
DAV:   5    -0.136092148538E+04    0.28198E-02   -0.97779E-03  2384   0.196E-01    0.141E-01
DAV:   6    -0.136092162468E+04   -0.13929E-03   -0.66747E-03  2384   0.153E-01    0.102E-01
DAV:   7    -0.136092164575E+04   -0.21069E-04   -0.31265E-03  2400   0.103E-01    0.779E-02
DAV:   8    -0.136092163316E+04    0.12585E-04   -0.10920E-03  2608   0.640E-02    0.461E-02
DAV:   9    -0.136092162192E+04    0.11247E-04   -0.25453E-04  2560   0.328E-02    0.314E-02
DAV:  10    -0.136092162446E+04   -0.25440E-05   -0.86394E-05  2568   0.177E-02    0.189E-02
DAV:  11    -0.136092162598E+04   -0.15233E-05   -0.37144E-05  2432   0.126E-02    0.129E-02
DAV:  12    -0.136092162457E+04    0.14098E-05   -0.21602E-05  2232   0.105E-02    0.941E-03
DAV:  13    -0.136092162414E+04    0.43462E-06   -0.13922E-05  1800   0.705E-03    0.486E-03
DAV:  14    -0.136092162401E+04    0.13060E-06   -0.31294E-06  1168   0.498E-03
  13 F= -.13609216E+04 E0= -.13609216E+04  d E =-.398721E+00
 BRION: g(F)=  0.144E+00 g(S)=  0.000E+00 retain N= 10 mean eig= 2.68
 eig:   7.760  7.760  2.157  2.157  0.877  0.877  1.549  1.549  1.044  1.044
 bond charge predicted
       N       E                     dE             d eps       ncg     rms          rms(c)
DAV:   1    -0.136098407998E+04   -0.62456E-01   -0.63197E+01  1376   0.114E+01    0.134E+00
DAV:   2    -0.136131590790E+04   -0.33183E+00   -0.35105E+00  2296   0.453E+00    0.689E-01
DAV:   3    -0.136133582492E+04   -0.19917E-01   -0.28343E-01  2576   0.882E-01    0.558E-01
DAV:   4    -0.136133175661E+04    0.40683E-02   -0.28405E-02  2584   0.398E-01    0.394E-01
DAV:   5    -0.136132790627E+04    0.38503E-02   -0.12541E-02  2368   0.230E-01    0.164E-01
DAV:   6    -0.136132802435E+04   -0.11808E-03   -0.89765E-03  2384   0.178E-01    0.103E-01
DAV:   7    -0.136132812694E+04   -0.10259E-03   -0.39232E-03  2408   0.116E-01    0.856E-02
DAV:   8    -0.136132810623E+04    0.20707E-04   -0.11617E-03  2608   0.675E-02    0.484E-02
DAV:   9    -0.136132809514E+04    0.11088E-04   -0.35040E-04  2592   0.373E-02    0.313E-02
DAV:  10    -0.136132810202E+04   -0.68809E-05   -0.12347E-04  2584   0.217E-02    0.216E-02
DAV:  11    -0.136132810112E+04    0.90347E-06   -0.56622E-05  2456   0.154E-02    0.121E-02
DAV:  12    -0.136132810112E+04   -0.66357E-08   -0.29457E-05  2368   0.117E-02    0.105E-02
DAV:  13    -0.136132810024E+04    0.88759E-06   -0.14299E-05  1832   0.733E-03    0.543E-03
DAV:  14    -0.136132810025E+04   -0.17826E-07   -0.70034E-06  1616   0.568E-03
  14 F= -.13613281E+04 E0= -.13613281E+04  d E =-.406476E+00
 BRION: g(F)=  0.117E+00 g(S)=  0.000E+00 retain N=  4 mean eig= 4.31
 eig:   6.861  6.861  1.765  1.765
 bond charge predicted
       N       E                     dE             d eps       ncg     rms          rms(c)
DAV:   1    -0.136142614068E+04   -0.98040E-01   -0.33758E+01  1384   0.833E+00    0.971E-01
DAV:   2    -0.136160744216E+04   -0.18130E+00   -0.19229E+00  2312   0.335E+00    0.500E-01
DAV:   3    -0.136161912098E+04   -0.11679E-01   -0.15930E-01  2592   0.654E-01    0.412E-01
DAV:   4    -0.136161734135E+04    0.17796E-02   -0.14986E-02  2616   0.298E-01    0.304E-01
DAV:   5    -0.136161519298E+04    0.21484E-02   -0.66778E-03  2376   0.164E-01    0.139E-01
DAV:   6    -0.136161510299E+04    0.89988E-04   -0.53633E-03  2272   0.138E-01    0.836E-02
DAV:   7    -0.136161519315E+04   -0.90162E-04   -0.28889E-03  2488   0.969E-02    0.770E-02
DAV:   8    -0.136161516241E+04    0.30748E-04   -0.76303E-04  2584   0.570E-02    0.495E-02
DAV:   9    -0.136161514034E+04    0.22067E-04   -0.29494E-04  2536   0.316E-02    0.260E-02
DAV:  10    -0.136161514611E+04   -0.57747E-05   -0.87964E-05  2560   0.185E-02    0.169E-02
DAV:  11    -0.136161514764E+04   -0.15286E-05   -0.28304E-05  2224   0.113E-02    0.128E-02
DAV:  12    -0.136161514629E+04    0.13572E-05   -0.26450E-05  2152   0.105E-02    0.101E-02
DAV:  13    -0.136161514546E+04    0.82288E-06   -0.12492E-05  1808   0.732E-03    0.627E-03
DAV:  14    -0.136161514508E+04    0.38584E-06   -0.31645E-06  1120   0.490E-03
  15 F= -.13616151E+04 E0= -.13616151E+04  d E =-.287045E+00
 BRION: g(F)=  0.104E+00 g(S)=  0.000E+00 retain N=  3 mean eig= 4.93
 eig:   6.533  6.533  1.730
 bond charge predicted
       N       E                     dE             d eps       ncg     rms          rms(c)
DAV:   1    -0.136171230560E+04   -0.97160E-01   -0.16118E+01  1384   0.573E+00    0.676E-01
DAV:   2    -0.136179740592E+04   -0.85100E-01   -0.90114E-01  2296   0.225E+00    0.344E-01
DAV:   3    -0.136180284874E+04   -0.54428E-02   -0.75550E-02  2592   0.453E-01    0.281E-01
DAV:   4    -0.136180188694E+04    0.96180E-03   -0.71016E-03  2592   0.205E-01    0.203E-01
DAV:   5    -0.136180084847E+04    0.10385E-02   -0.33678E-03  2360   0.120E-01    0.890E-02
DAV:   6    -0.136180083318E+04    0.15295E-04   -0.26323E-03  2336   0.102E-01    0.608E-02
DAV:   7    -0.136180087180E+04   -0.38621E-04   -0.14469E-03  2400   0.686E-02    0.523E-02
DAV:   8    -0.136180085965E+04    0.12144E-04   -0.39546E-04  2592   0.395E-02    0.305E-02
DAV:   9    -0.136180085143E+04    0.82206E-05   -0.12902E-04  2544   0.220E-02    0.180E-02
DAV:  10    -0.136180085346E+04   -0.20265E-05   -0.45327E-05  2552   0.130E-02    0.124E-02
DAV:  11    -0.136180085349E+04   -0.32771E-07   -0.19193E-05  2032   0.939E-03    0.799E-03
DAV:  12    -0.136180085316E+04    0.33503E-06   -0.10402E-05  1736   0.771E-03    0.692E-03
DAV:  13    -0.136180085278E+04    0.37588E-06   -0.72778E-06  1608   0.578E-03
  16 F= -.13618009E+04 E0= -.13618009E+04  d E =-.185708E+00
 BRION: g(F)=  0.968E-01 g(S)=  0.000E+00 retain N=  3 mean eig= 4.35
 eig:   5.822  5.822  1.408
 bond charge predicted
       N       E                     dE             d eps       ncg     rms          rms(c)
DAV:   1    -0.136187650924E+04   -0.75656E-01   -0.26424E+01  1384   0.733E+00    0.841E-01
DAV:   2    -0.136201665432E+04   -0.14015E+00   -0.14754E+00  2296   0.292E+00    0.432E-01
DAV:   3    -0.136202538258E+04   -0.87283E-02   -0.11947E-01  2592   0.561E-01    0.353E-01
DAV:   4    -0.136202404481E+04    0.13378E-02   -0.10854E-02  2608   0.253E-01    0.265E-01
DAV:   5    -0.136202227591E+04    0.17689E-02   -0.47681E-03  2360   0.142E-01    0.128E-01
DAV:   6    -0.136202208547E+04    0.19044E-03   -0.44888E-03  2256   0.129E-01    0.699E-02
DAV:   7    -0.136202220397E+04   -0.11849E-03   -0.26626E-03  2424   0.898E-02    0.715E-02
DAV:   8    -0.136202217767E+04    0.26297E-04   -0.54375E-04  2568   0.507E-02    0.499E-02
DAV:   9    -0.136202214568E+04    0.31987E-04   -0.29206E-04  2488   0.307E-02    0.235E-02
DAV:  10    -0.136202215271E+04   -0.70285E-05   -0.11170E-04  2504   0.199E-02    0.159E-02
DAV:  11    -0.136202215346E+04   -0.75204E-06   -0.31836E-05  2192   0.117E-02    0.115E-02
DAV:  12    -0.136202215260E+04    0.86355E-06   -0.27765E-05  2160   0.109E-02    0.106E-02
DAV:  13    -0.136202215164E+04    0.95848E-06   -0.14323E-05  1976   0.768E-03    0.734E-03
DAV:  14    -0.136202215098E+04    0.66290E-06   -0.21288E-06  1000   0.491E-03
  17 F= -.13620222E+04 E0= -.13620222E+04  d E =-.221298E+00
 BRION: g(F)=  0.860E-01 g(S)=  0.000E+00 retain N=  3 mean eig= 4.87
 eig:   6.617  6.617  1.387
 bond charge predicted
       N       E                     dE             d eps       ncg     rms          rms(c)
DAV:   1    -0.136205659635E+04   -0.34445E-01   -0.40417E+01  1384   0.902E+00    0.102E+00
DAV:   2    -0.136227120550E+04   -0.21461E+00   -0.22594E+00  2288   0.357E+00    0.524E-01
DAV:   3    -0.136228529580E+04   -0.14090E-01   -0.18714E-01  2592   0.706E-01    0.433E-01
DAV:   4    -0.136228362665E+04    0.16692E-02   -0.16348E-02  2624   0.311E-01    0.332E-01
DAV:   5    -0.136228105454E+04    0.25721E-02   -0.67266E-03  2408   0.168E-01    0.173E-01
DAV:   6    -0.136228058407E+04    0.47047E-03   -0.70668E-03  2184   0.162E-01    0.883E-02
DAV:   7    -0.136228080906E+04   -0.22499E-03   -0.46337E-03  2448   0.116E-01    0.980E-02
DAV:   8    -0.136228077020E+04    0.38858E-04   -0.82480E-04  2552   0.649E-02    0.764E-02
DAV:   9    -0.136228068420E+04    0.86004E-04   -0.49532E-04  2368   0.396E-02    0.355E-02
DAV:  10    -0.136228069632E+04   -0.12115E-04   -0.27060E-04  2408   0.284E-02    0.192E-02
DAV:  11    -0.136228070097E+04   -0.46510E-05   -0.69369E-05  2024   0.167E-02    0.168E-02
DAV:  12    -0.136228069806E+04    0.29085E-05   -0.54624E-05  2216   0.158E-02    0.157E-02
DAV:  13    -0.136228069591E+04    0.21442E-05   -0.34399E-05  2240   0.114E-02    0.114E-02
DAV:  14    -0.136228069484E+04    0.10710E-05   -0.95488E-06  1800   0.655E-03    0.543E-03
DAV:  15    -0.136228069448E+04    0.36217E-06   -0.18932E-06   928   0.419E-03
  18 F= -.13622807E+04 E0= -.13622807E+04  d E =-.258544E+00
 BRION: g(F)=  0.780E-01 g(S)=  0.000E+00 retain N=  3 mean eig= 4.72
 eig:   1.407  6.377  6.377
 bond charge predicted
       N       E                     dE             d eps       ncg     rms          rms(c)
DAV:   1    -0.136233376136E+04   -0.53067E-01   -0.26106E+01  1384   0.725E+00    0.809E-01
DAV:   2    -0.136246980409E+04   -0.13604E+00   -0.14252E+00  2288   0.285E+00    0.414E-01
DAV:   3    -0.136247841673E+04   -0.86126E-02   -0.11548E-01  2592   0.552E-01    0.338E-01
DAV:   4    -0.136247731675E+04    0.11000E-02   -0.98480E-03  2624   0.241E-01    0.260E-01
DAV:   5    -0.136247562070E+04    0.16960E-02   -0.40753E-03  2376   0.133E-01    0.138E-01
DAV:   6    -0.136247524374E+04    0.37696E-03   -0.45367E-03  2152   0.133E-01    0.698E-02
DAV:   7    -0.136247542092E+04   -0.17718E-03   -0.33309E-03  2424   0.961E-02    0.798E-02
DAV:   8    -0.136247539789E+04    0.23039E-04   -0.51251E-04  2512   0.526E-02    0.638E-02
DAV:   9    -0.136247533312E+04    0.64761E-04   -0.33431E-04  2328   0.333E-02    0.298E-02
DAV:  10    -0.136247534291E+04   -0.97895E-05   -0.21950E-04  2424   0.250E-02    0.165E-02
DAV:  11    -0.136247534486E+04   -0.19508E-05   -0.48032E-05  2032   0.143E-02    0.129E-02
DAV:  12    -0.136247534325E+04    0.16143E-05   -0.38883E-05  2128   0.132E-02    0.125E-02
DAV:  13    -0.136247534193E+04    0.13230E-05   -0.26654E-05  2240   0.998E-03    0.953E-03
DAV:  14    -0.136247534098E+04    0.94456E-06   -0.31417E-06  1136   0.566E-03
  19 F= -.13624753E+04 E0= -.13624753E+04  d E =-.194647E+00
 BRION: g(F)=  0.726E-01 g(S)=  0.000E+00 retain N=  3 mean eig= 5.78
 eig:   7.700  7.700  1.933
 bond charge predicted
       N       E                     dE             d eps       ncg     rms          rms(c)
DAV:   1    -0.136254046609E+04   -0.65124E-01   -0.15885E+01  1384   0.562E+00    0.621E-01
DAV:   2    -0.136262259530E+04   -0.82129E-01   -0.85971E-01  2288   0.220E+00    0.316E-01
DAV:   3    -0.136262786413E+04   -0.52688E-02   -0.69557E-02  2584   0.425E-01    0.260E-01
DAV:   4    -0.136262729540E+04    0.56873E-03   -0.57703E-03  2608   0.184E-01    0.203E-01
DAV:   5    -0.136262626108E+04    0.10343E-02   -0.24154E-03  2376   0.102E-01    0.108E-01
DAV:   6    -0.136262603573E+04    0.22535E-03   -0.28080E-03  2144   0.103E-01    0.550E-02
DAV:   7    -0.136262613547E+04   -0.99745E-04   -0.19766E-03  2416   0.742E-02    0.621E-02
DAV:   8    -0.136262612214E+04    0.13338E-04   -0.31960E-04  2424   0.409E-02    0.498E-02
DAV:   9    -0.136262608254E+04    0.39591E-04   -0.20658E-04  2320   0.260E-02    0.230E-02
DAV:  10    -0.136262608847E+04   -0.59240E-05   -0.12878E-04  2376   0.193E-02    0.128E-02
DAV:  11    -0.136262608973E+04   -0.12591E-05   -0.27351E-05  1928   0.107E-02    0.107E-02
DAV:  12    -0.136262608882E+04    0.91064E-06   -0.25062E-05  2088   0.106E-02    0.106E-02
DAV:  13    -0.136262608777E+04    0.10436E-05   -0.15592E-05  1968   0.804E-03    0.772E-03
DAV:  14    -0.136262608714E+04    0.63493E-06   -0.17325E-06   936   0.509E-03
  20 F= -.13626261E+04 E0= -.13626261E+04  d E =-.150746E+00
 BRION: g(F)=  0.705E-01 g(S)=  0.000E+00 retain N=  3 mean eig= 5.43
 eig:   7.191  7.191  1.896
