 running on  160 total cores
 distrk:  each k-point on  160 cores,    1 groups
 distr:  one band on   20 cores,    8 groups
 using from now: INCAR     
 vasp.5.4.4.18Apr17-6-g9f103f2a35 (build May 01 2020 14:22:42) gamma-only       
  
 POSCAR found type information on POSCAR  O  La Zr Li Al
 POSCAR found :  5 types and     188 ions
 scaLAPACK will be used
 LDA part: xc-table for Pade appr. of Perdew
 POSCAR, INCAR and KPOINTS ok, starting setup
 FFT: planning ...
 WAVECAR not read
 WARNING: random wavefunctions but no delay for mixing, default for NELMDL
 entering main loop
       N       E                     dE             d eps       ncg     rms          rms(c)
DAV:   1     0.252509544272E+05    0.25251E+05   -0.41993E+05  1608   0.253E+03
DAV:   2     0.942119608661E+04   -0.15830E+05   -0.14655E+05  1440   0.706E+02
DAV:   3     0.264005922979E+04   -0.67811E+04   -0.61854E+04  1512   0.357E+02
DAV:   4    -0.379027859389E+03   -0.30191E+04   -0.28174E+04  2056   0.223E+02
DAV:   5    -0.141291719557E+04   -0.10339E+04   -0.99637E+03  2528   0.140E+02    0.117E+02
DAV:   6    -0.129953712412E+04    0.11338E+03   -0.14519E+03  2448   0.664E+01    0.502E+01
DAV:   7    -0.132238759257E+04   -0.22850E+02   -0.38986E+02  2560   0.344E+01    0.252E+01
DAV:   8    -0.132863616405E+04   -0.62486E+01   -0.23579E+02  2520   0.261E+01    0.238E+01
DAV:   9    -0.132438221810E+04    0.42539E+01   -0.43625E+01  2552   0.140E+01    0.819E+00
DAV:  10    -0.132499057417E+04   -0.60836E+00   -0.17001E+01  2616   0.756E+00    0.684E+00
DAV:  11    -0.132544396401E+04   -0.45339E+00   -0.52369E+00  2624   0.413E+00    0.446E+00
DAV:  12    -0.132529762529E+04    0.14634E+00   -0.23086E+00  2576   0.328E+00    0.301E+00
DAV:  13    -0.132529873871E+04   -0.11134E-02   -0.13327E+00  2504   0.201E+00    0.216E+00
DAV:  14    -0.132529229128E+04    0.64474E-02   -0.21876E-01  2600   0.105E+00    0.125E+00
DAV:  15    -0.132529107800E+04    0.12133E-02   -0.88455E-02  2608   0.530E-01    0.666E-01
DAV:  16    -0.132529141378E+04   -0.33578E-03   -0.32806E-02  2592   0.318E-01    0.427E-01
DAV:  17    -0.132529176447E+04   -0.35069E-03   -0.12914E-02  2536   0.227E-01    0.186E-01
DAV:  18    -0.132529192145E+04   -0.15698E-03   -0.38997E-03  2536   0.117E-01    0.121E-01
DAV:  19    -0.132529195652E+04   -0.35071E-04   -0.25509E-03  2512   0.950E-02    0.789E-02
DAV:  20    -0.132529199491E+04   -0.38383E-04   -0.63494E-04  2512   0.437E-02    0.336E-02
DAV:  21    -0.132529200701E+04   -0.12107E-04   -0.26838E-04  2608   0.321E-02    0.340E-02
DAV:  22    -0.132529201993E+04   -0.12914E-04   -0.10313E-04  2544   0.174E-02    0.752E-03
DAV:  23    -0.132529202094E+04   -0.10175E-05   -0.32198E-05  2000   0.107E-02    0.887E-03
DAV:  24    -0.132529202486E+04   -0.39135E-05   -0.99674E-06  1144   0.606E-03    0.385E-03
DAV:  25    -0.132529202410E+04    0.75708E-06   -0.59336E-06  1104   0.599E-03
   1 F= -.13252920E+04 E0= -.13252876E+04  d E =-.132529E+04
 BRION: g(F)=  0.655E+02 g(S)=  0.000E+00
 bond charge predicted
       N       E                     dE             d eps       ncg     rms          rms(c)
DAV:   1    -0.126474415983E+04    0.60548E+02   -0.97058E+03  1696   0.147E+02    0.364E+01
DAV:   2    -0.134447020413E+04   -0.79726E+02   -0.92594E+02  2560   0.683E+01    0.168E+01
DAV:   3    -0.134255098197E+04    0.19192E+01   -0.55939E+01  2624   0.187E+01    0.111E+01
DAV:   4    -0.133996236627E+04    0.25886E+01   -0.17237E+01  2488   0.889E+00    0.521E+00
DAV:   5    -0.133974557728E+04    0.21679E+00   -0.51774E+00  2520   0.501E+00    0.353E+00
DAV:   6    -0.133967208753E+04    0.73490E-01   -0.31637E+00  2608   0.314E+00    0.188E+00
DAV:   7    -0.133963958864E+04    0.32499E-01   -0.45916E-01  2536   0.173E+00    0.102E+00
DAV:   8    -0.133964822526E+04   -0.86366E-02   -0.40335E-01  2568   0.107E+00    0.775E-01
DAV:   9    -0.133964460510E+04    0.36202E-02   -0.60639E-02  2544   0.575E-01    0.504E-01
DAV:  10    -0.133964364804E+04    0.95706E-03   -0.48776E-02  2536   0.365E-01    0.208E-01
DAV:  11    -0.133964471948E+04   -0.10714E-02   -0.13227E-02  2608   0.227E-01    0.201E-01
DAV:  12    -0.133964443273E+04    0.28675E-03   -0.27417E-03  2616   0.115E-01    0.127E-01
DAV:  13    -0.133964434105E+04    0.91679E-04   -0.29595E-03  2592   0.910E-02    0.254E-02
DAV:  14    -0.133964437627E+04   -0.35215E-04   -0.37475E-04  2616   0.438E-02    0.170E-02
DAV:  15    -0.133964438529E+04   -0.90200E-05   -0.70296E-05  2624   0.173E-02    0.125E-02
DAV:  16    -0.133964438474E+04    0.54813E-06   -0.23605E-05  2160   0.107E-02    0.911E-03
DAV:  17    -0.133964438641E+04   -0.16712E-05   -0.22682E-05  2200   0.861E-03    0.465E-03
DAV:  18    -0.133964438635E+04    0.60580E-07   -0.28940E-06  1144   0.498E-03
   2 F= -.13396444E+04 E0= -.13396444E+04  d E =-.143524E+02
 BRION: g(F)=  0.137E+03 g(S)=  0.000E+00 retain N=  1 mean eig= 0.38
 eig:   0.378
 bond charge predicted
       N       E                     dE             d eps       ncg     rms          rms(c)
DAV:   1    -0.132166569302E+04    0.17979E+02   -0.26964E+03  1336   0.710E+01    0.242E+01
DAV:   2    -0.135575686739E+04   -0.34091E+02   -0.42837E+02  2544   0.349E+01    0.205E+01
DAV:   3    -0.135254712037E+04    0.32097E+01   -0.44860E+01  2592   0.141E+01    0.162E+01
DAV:   4    -0.134894599911E+04    0.36011E+01   -0.29576E+01  2256   0.580E+00    0.714E+00
DAV:   5    -0.134994271441E+04   -0.99672E+00   -0.11253E+01  2424   0.462E+00    0.765E+00
DAV:   6    -0.134884181523E+04    0.11009E+01   -0.75757E+00  2512   0.329E+00    0.161E+00
DAV:   7    -0.134896366555E+04   -0.12185E+00   -0.17066E+00  2600   0.252E+00    0.168E+00
DAV:   8    -0.134891327507E+04    0.50390E-01   -0.32734E-01  2552   0.116E+00    0.820E-01
DAV:   9    -0.134891217813E+04    0.10969E-02   -0.12206E-01  2528   0.623E-01    0.350E-01
DAV:  10    -0.134891373124E+04   -0.15531E-02   -0.21461E-02  2544   0.291E-01    0.313E-01
DAV:  11    -0.134891203370E+04    0.16975E-02   -0.85857E-03  2592   0.184E-01    0.147E-01
DAV:  12    -0.134891230784E+04   -0.27414E-03   -0.93736E-03  2584   0.144E-01    0.113E-01
DAV:  13    -0.134891218850E+04    0.11934E-03   -0.15946E-03  2560   0.819E-02    0.532E-02
DAV:  14    -0.134891219081E+04   -0.23024E-05   -0.46557E-04  2536   0.403E-02    0.315E-02
DAV:  15    -0.134891219212E+04   -0.13181E-05   -0.16341E-04  2624   0.238E-02    0.142E-02
DAV:  16    -0.134891219273E+04   -0.60681E-06   -0.60459E-05  2520   0.137E-02    0.712E-03
DAV:  17    -0.134891219338E+04   -0.65075E-06   -0.14761E-05  2096   0.842E-03    0.677E-03
DAV:  18    -0.134891219270E+04    0.67704E-06   -0.24687E-06  1128   0.425E-03
   3 F= -.13489122E+04 E0= -.13489122E+04  d E =-.926781E+01
 BRION: g(F)=  0.188E+02 g(S)=  0.000E+00 retain N=  2 mean eig= 1.63
 eig:   0.229  3.037
 bond charge predicted
       N       E                     dE             d eps       ncg     rms          rms(c)
DAV:   1    -0.134789497445E+04    0.10172E+01   -0.79709E+02  1400   0.329E+01    0.876E+00
DAV:   2    -0.135331044897E+04   -0.54155E+01   -0.66805E+01  2464   0.154E+01    0.520E+00
DAV:   3    -0.135304745841E+04    0.26299E+00   -0.42738E+00  2512   0.481E+00    0.411E+00
DAV:   4    -0.135279089211E+04    0.25657E+00   -0.25451E+00  2256   0.228E+00    0.173E+00
DAV:   5    -0.135279799947E+04   -0.71074E-02   -0.56317E-01  2480   0.141E+00    0.179E+00
DAV:   6    -0.135274914396E+04    0.48856E-01   -0.43559E-01  2480   0.122E+00    0.665E-01
DAV:   7    -0.135275517605E+04   -0.60321E-02   -0.22056E-01  2392   0.731E-01    0.669E-01
DAV:   8    -0.135275388119E+04    0.12949E-02   -0.42890E-02  2600   0.357E-01    0.518E-01
DAV:   9    -0.135274988181E+04    0.39994E-02   -0.19835E-02  2528   0.229E-01    0.202E-01
DAV:  10    -0.135275029371E+04   -0.41190E-03   -0.12258E-02  2536   0.157E-01    0.126E-01
DAV:  11    -0.135275006404E+04    0.22967E-03   -0.12301E-03  2600   0.845E-02    0.710E-02
DAV:  12    -0.135275005402E+04    0.10023E-04   -0.10901E-03  2408   0.482E-02    0.246E-02
DAV:  13    -0.135275006756E+04   -0.13539E-04   -0.15047E-04  2512   0.251E-02    0.176E-02
DAV:  14    -0.135275006468E+04    0.28766E-05   -0.35687E-05  2480   0.120E-02    0.110E-02
DAV:  15    -0.135275006498E+04   -0.29936E-06   -0.23236E-05  2160   0.867E-03    0.489E-03
DAV:  16    -0.135275006480E+04    0.17592E-06   -0.23002E-06  1072   0.458E-03
   4 F= -.13527501E+04 E0= -.13527501E+04  d E =-.383787E+01
 BRION: g(F)=  0.512E+01 g(S)=  0.000E+00 retain N=  2 mean eig= 0.36
 eig:   0.356  0.356
 bond charge predicted
       N       E                     dE             d eps       ncg     rms          rms(c)
DAV:   1    -0.135389336337E+04   -0.11433E+01   -0.27271E+02  1360   0.220E+01    0.389E+00
DAV:   2    -0.135518144392E+04   -0.12881E+01   -0.13804E+01  2272   0.818E+00    0.196E+00
DAV:   3    -0.135518292013E+04   -0.14762E-02   -0.86232E-01  2624   0.170E+00    0.158E+00
DAV:   4    -0.135513234397E+04    0.50576E-01   -0.31155E-01  2400   0.104E+00    0.683E-01
DAV:   5    -0.135513197044E+04    0.37353E-03   -0.88948E-02  2456   0.599E-01    0.546E-01
DAV:   6    -0.135513033052E+04    0.16399E-02   -0.73611E-02  2376   0.446E-01    0.244E-01
DAV:   7    -0.135513019770E+04    0.13282E-03   -0.14151E-02  2368   0.238E-01    0.216E-01
DAV:   8    -0.135512988552E+04    0.31218E-03   -0.56239E-03  2456   0.120E-01    0.960E-02
DAV:   9    -0.135512989330E+04   -0.77819E-05   -0.27114E-03  2528   0.849E-02    0.644E-02
DAV:  10    -0.135512986922E+04    0.24085E-04   -0.61140E-04  2440   0.507E-02    0.427E-02
DAV:  11    -0.135512987228E+04   -0.30569E-05   -0.36718E-04  2512   0.308E-02    0.187E-02
DAV:  12    -0.135512987224E+04    0.31345E-07   -0.63434E-05  2496   0.151E-02    0.101E-02
DAV:  13    -0.135512987325E+04   -0.10067E-05   -0.18782E-05  2112   0.903E-03    0.626E-03
DAV:  14    -0.135512987338E+04   -0.13197E-06   -0.67917E-06  1464   0.616E-03
   5 F= -.13551299E+04 E0= -.13551299E+04  d E =-.237981E+01
 BRION: g(F)=  0.255E+01 g(S)=  0.000E+00 retain N=  3 mean eig= 0.23
 eig:   0.194  0.194  0.299
 bond charge predicted
       N       E                     dE             d eps       ncg     rms          rms(c)
DAV:   1    -0.135559222570E+04   -0.46235E+00   -0.27099E+02  1352   0.226E+01    0.331E+00
DAV:   2    -0.135691356487E+04   -0.13213E+01   -0.14046E+01  2280   0.839E+00    0.173E+00
DAV:   3    -0.135694800387E+04   -0.34439E-01   -0.94436E-01  2616   0.177E+00    0.149E+00
DAV:   4    -0.135691289954E+04    0.35104E-01   -0.17082E-01  2552   0.858E-01    0.868E-01
DAV:   5    -0.135689708054E+04    0.15819E-01   -0.94476E-02  2336   0.584E-01    0.433E-01
DAV:   6    -0.135689887941E+04   -0.17989E-02   -0.47900E-02  2520   0.408E-01    0.404E-01
DAV:   7    -0.135689709808E+04    0.17813E-02   -0.21659E-02  2448   0.266E-01    0.217E-01
DAV:   8    -0.135689709851E+04   -0.43114E-06   -0.77957E-03  2464   0.155E-01    0.957E-02
DAV:   9    -0.135689704062E+04    0.57886E-04   -0.12239E-03  2512   0.710E-02    0.673E-02
DAV:  10    -0.135689708407E+04   -0.43452E-04   -0.83835E-04  2328   0.478E-02    0.489E-02
DAV:  11    -0.135689704911E+04    0.34967E-04   -0.24538E-04  2528   0.353E-02    0.204E-02
DAV:  12    -0.135689706022E+04   -0.11113E-04   -0.20721E-04  2488   0.241E-02    0.214E-02
DAV:  13    -0.135689705456E+04    0.56608E-05   -0.60272E-05  2344   0.151E-02    0.834E-03
DAV:  14    -0.135689705496E+04   -0.40144E-06   -0.13545E-05  1856   0.796E-03    0.431E-03
DAV:  15    -0.135689705530E+04   -0.34360E-06   -0.40806E-06  1320   0.480E-03
   6 F= -.13568971E+04 E0= -.13568971E+04  d E =-.176718E+01
 BRION: g(F)=  0.179E+01 g(S)=  0.000E+00 retain N=  4 mean eig= 0.41
 eig:   0.231  0.231  0.518  0.666
 bond charge predicted
       N       E                     dE             d eps       ncg     rms          rms(c)
DAV:   1    -0.135712620868E+04   -0.22915E+00   -0.23198E+02  1352   0.212E+01    0.296E+00
DAV:   2    -0.135828501275E+04   -0.11588E+01   -0.12149E+01  2304   0.792E+00    0.155E+00
DAV:   3    -0.135831923436E+04   -0.34222E-01   -0.82871E-01  2608   0.162E+00    0.126E+00
DAV:   4    -0.135828903442E+04    0.30200E-01   -0.15418E-01  2536   0.815E-01    0.686E-01
DAV:   5    -0.135828117170E+04    0.78627E-02   -0.60629E-02  2488   0.478E-01    0.350E-01
DAV:   6    -0.135828165389E+04   -0.48219E-03   -0.26818E-02  2592   0.310E-01    0.209E-01
DAV:   7    -0.135828138016E+04    0.27373E-03   -0.89702E-03  2256   0.188E-01    0.138E-01
DAV:   8    -0.135828157688E+04   -0.19672E-03   -0.49784E-03  2344   0.111E-01    0.966E-02
DAV:   9    -0.135828147465E+04    0.10223E-03   -0.82052E-04  2584   0.611E-02    0.653E-02
DAV:  10    -0.135828146540E+04    0.92468E-05   -0.10196E-03  2440   0.512E-02    0.401E-02
DAV:  11    -0.135828145568E+04    0.97224E-05   -0.27111E-04  2520   0.337E-02    0.143E-02
DAV:  12    -0.135828146063E+04   -0.49557E-05   -0.66061E-05  2328   0.176E-02    0.970E-03
DAV:  13    -0.135828146153E+04   -0.89753E-06   -0.22560E-05  2112   0.889E-03    0.759E-03
DAV:  14    -0.135828146151E+04    0.24898E-07   -0.91858E-06  1712   0.632E-03
   7 F= -.13582815E+04 E0= -.13582815E+04  d E =-.138441E+01
 BRION: g(F)=  0.784E+00 g(S)=  0.000E+00 retain N=  5 mean eig= 0.75
 eig:   1.369  1.369  0.243  0.243  0.547
 bond charge predicted
       N       E                     dE             d eps       ncg     rms          rms(c)
DAV:   1    -0.135859027996E+04   -0.30882E+00   -0.65391E+01  1360   0.114E+01    0.168E+00
DAV:   2    -0.135891445983E+04   -0.32418E+00   -0.34170E+00  2296   0.432E+00    0.839E-01
DAV:   3    -0.135892731648E+04   -0.12857E-01   -0.24851E-01  2616   0.866E-01    0.664E-01
DAV:   4    -0.135891928252E+04    0.80340E-02   -0.43893E-02  2520   0.453E-01    0.332E-01
DAV:   5    -0.135891857924E+04    0.70328E-03   -0.17263E-02  2464   0.269E-01    0.190E-01
DAV:   6    -0.135891873005E+04   -0.15081E-03   -0.79806E-03  2592   0.163E-01    0.101E-01
DAV:   7    -0.135891869010E+04    0.39942E-04   -0.16385E-03  2544   0.880E-02    0.685E-02
DAV:   8    -0.135891870008E+04   -0.99719E-05   -0.68590E-04  2576   0.467E-02    0.366E-02
DAV:   9    -0.135891869002E+04    0.10050E-04   -0.16112E-04  2576   0.288E-02    0.212E-02
DAV:  10    -0.135891869849E+04   -0.84669E-05   -0.13006E-04  2512   0.193E-02    0.185E-02
DAV:  11    -0.135891869481E+04    0.36787E-05   -0.37021E-05  2376   0.132E-02    0.756E-03
DAV:  12    -0.135891869568E+04   -0.86254E-06   -0.15912E-05  1872   0.782E-03    0.575E-03
DAV:  13    -0.135891869528E+04    0.39495E-06   -0.19556E-06  1024   0.527E-03
   8 F= -.13589187E+04 E0= -.13589187E+04  d E =-.637234E+00
 BRION: g(F)=  0.470E+00 g(S)=  0.000E+00 retain N=  6 mean eig= 0.84
 eig:   1.709  1.709  0.631  0.631  0.189  0.200
 bond charge predicted
       N       E                     dE             d eps       ncg     rms          rms(c)
DAV:   1    -0.135910662969E+04   -0.18793E+00   -0.93898E+01  1384   0.138E+01    0.186E+00
DAV:   2    -0.135957928190E+04   -0.47265E+00   -0.49619E+00  2288   0.528E+00    0.897E-01
DAV:   3    -0.135960573298E+04   -0.26451E-01   -0.38535E-01  2616   0.104E+00    0.726E-01
DAV:   4    -0.135959791200E+04    0.78210E-02   -0.44075E-02  2584   0.491E-01    0.442E-01
DAV:   5    -0.135959506070E+04    0.28513E-02   -0.24497E-02  2312   0.310E-01    0.175E-01
DAV:   6    -0.135959585947E+04   -0.79877E-03   -0.98385E-03  2544   0.191E-01    0.154E-01
DAV:   7    -0.135959573762E+04    0.12185E-03   -0.33084E-03  2600   0.110E-01    0.945E-02
DAV:   8    -0.135959566369E+04    0.73933E-04   -0.10414E-03  2616   0.655E-02    0.487E-02
DAV:   9    -0.135959567190E+04   -0.82168E-05   -0.21880E-04  2576   0.340E-02    0.303E-02
DAV:  10    -0.135959568160E+04   -0.96934E-05   -0.12632E-04  2560   0.209E-02    0.183E-02
DAV:  11    -0.135959567762E+04    0.39774E-05   -0.37184E-05  2384   0.132E-02    0.886E-03
DAV:  12    -0.135959567922E+04   -0.16068E-05   -0.22685E-05  2104   0.839E-03    0.770E-03
DAV:  13    -0.135959567799E+04    0.12367E-05   -0.33574E-06  1152   0.610E-03    0.386E-03
DAV:  14    -0.135959567917E+04   -0.11868E-05   -0.17047E-05  1664   0.757E-03    0.547E-03
DAV:  15    -0.135959567869E+04    0.48157E-06   -0.13688E-06  1000   0.473E-03
   9 F= -.13595957E+04 E0= -.13595957E+04  d E =-.676983E+00
 BRION: g(F)=  0.451E+00 g(S)=  0.000E+00 retain N=  7 mean eig= 0.96
 eig:   1.798  1.798  0.863  0.863  0.536  0.415  0.415
 bond charge predicted
       N       E                     dE             d eps       ncg     rms          rms(c)
DAV:   1    -0.135977403592E+04   -0.17836E+00   -0.88973E+01  1384   0.136E+01    0.161E+00
DAV:   2    -0.136023837668E+04   -0.46434E+00   -0.48983E+00  2296   0.534E+00    0.806E-01
DAV:   3    -0.136026817096E+04   -0.29794E-01   -0.39823E-01  2600   0.104E+00    0.662E-01
DAV:   4    -0.136026358871E+04    0.45823E-02   -0.36734E-02  2608   0.463E-01    0.479E-01
DAV:   5    -0.136025874659E+04    0.48421E-02   -0.20477E-02  2328   0.280E-01    0.195E-01
DAV:   6    -0.136025934887E+04   -0.60228E-03   -0.12961E-02  2424   0.216E-01    0.163E-01
DAV:   7    -0.136025926501E+04    0.83856E-04   -0.65987E-03  2416   0.148E-01    0.112E-01
DAV:   8    -0.136025923426E+04    0.30752E-04   -0.24212E-03  2576   0.959E-02    0.660E-02
DAV:   9    -0.136025921075E+04    0.23506E-04   -0.48013E-04  2488   0.465E-02    0.469E-02
DAV:  10    -0.136025921197E+04   -0.12129E-05   -0.19469E-04  2568   0.255E-02    0.264E-02
DAV:  11    -0.136025921741E+04   -0.54443E-05   -0.84487E-05  2464   0.194E-02    0.184E-02
DAV:  12    -0.136025921397E+04    0.34387E-05   -0.42526E-05  2328   0.151E-02    0.135E-02
DAV:  13    -0.136025921379E+04    0.18133E-06   -0.35991E-05  2240   0.102E-02    0.815E-03
DAV:  14    -0.136025921308E+04    0.70718E-06   -0.43061E-06  1232   0.549E-03
  10 F= -.13602592E+04 E0= -.13602592E+04  d E =-.663534E+00
 BRION: g(F)=  0.320E+00 g(S)=  0.000E+00 retain N=  8 mean eig= 1.70
 eig:   3.256  3.256  2.325  2.325  0.783  0.401  0.635  0.635
 bond charge predicted
       N       E                     dE             d eps       ncg     rms          rms(c)
DAV:   1    -0.136041707907E+04   -0.15787E+00   -0.86590E+01  1376   0.134E+01    0.158E+00
DAV:   2    -0.136087122228E+04   -0.45414E+00   -0.47781E+00  2296   0.524E+00    0.796E-01
DAV:   3    -0.136089888205E+04   -0.27660E-01   -0.38090E-01  2600   0.102E+00    0.637E-01
DAV:   4    -0.136089369834E+04    0.51837E-02   -0.35777E-02  2600   0.454E-01    0.448E-01
DAV:   5    -0.136088918769E+04    0.45107E-02   -0.18644E-02  2344   0.266E-01    0.174E-01
DAV:   6    -0.136088975693E+04   -0.56924E-03   -0.10837E-02  2440   0.192E-01    0.135E-01
DAV:   7    -0.136088974635E+04    0.10574E-04   -0.45801E-03  2456   0.124E-01    0.943E-02
DAV:   8    -0.136088973011E+04    0.16240E-04   -0.16356E-03  2608   0.790E-02    0.567E-02
DAV:   9    -0.136088971231E+04    0.17802E-04   -0.35428E-04  2520   0.400E-02    0.402E-02
DAV:  10    -0.136088971502E+04   -0.27095E-05   -0.16552E-04  2576   0.239E-02    0.218E-02
DAV:  11    -0.136088971720E+04   -0.21782E-05   -0.61087E-05  2472   0.167E-02    0.125E-02
DAV:  12    -0.136088971703E+04    0.16570E-06   -0.27438E-05  2320   0.118E-02    0.104E-02
DAV:  13    -0.136088971644E+04    0.59362E-06   -0.18260E-05  2040   0.772E-03    0.574E-03
DAV:  14    -0.136088971614E+04    0.29731E-06   -0.24626E-06  1048   0.491E-03
  11 F= -.13608897E+04 E0= -.13608897E+04  d E =-.630503E+00
 BRION: g(F)=  0.225E+00 g(S)=  0.000E+00 retain N=  9 mean eig= 2.13
 eig:   5.575  5.575  2.346  2.346  0.955  0.955  0.344  0.552  0.552
 bond charge predicted
       N       E                     dE             d eps       ncg     rms          rms(c)
DAV:   1    -0.136107423731E+04   -0.18452E+00   -0.56979E+01  1376   0.108E+01    0.126E+00
DAV:   2    -0.136137334575E+04   -0.29911E+00   -0.31453E+00  2304   0.430E+00    0.635E-01
DAV:   3    -0.136139094943E+04   -0.17604E-01   -0.24654E-01  2584   0.812E-01    0.508E-01
DAV:   4    -0.136138752033E+04    0.34291E-02   -0.23038E-02  2592   0.362E-01    0.363E-01
DAV:   5    -0.136138416144E+04    0.33589E-02   -0.12189E-02  2344   0.219E-01    0.144E-01
DAV:   6    -0.136138444917E+04   -0.28773E-03   -0.78080E-03  2392   0.164E-01    0.108E-01
DAV:   7    -0.136138446765E+04   -0.18484E-04   -0.33569E-03  2424   0.105E-01    0.793E-02
DAV:   8    -0.136138445481E+04    0.12846E-04   -0.11360E-03  2624   0.667E-02    0.472E-02
DAV:   9    -0.136138444234E+04    0.12470E-04   -0.27111E-04  2528   0.339E-02    0.322E-02
DAV:  10    -0.136138444522E+04   -0.28810E-05   -0.10328E-04  2544   0.194E-02    0.185E-02
DAV:  11    -0.136138444710E+04   -0.18864E-05   -0.44202E-05  2440   0.140E-02    0.114E-02
DAV:  12    -0.136138444655E+04    0.55962E-06   -0.21780E-05  2256   0.105E-02    0.961E-03
DAV:  13    -0.136138444598E+04    0.56687E-06   -0.14402E-05  1880   0.713E-03    0.542E-03
DAV:  14    -0.136138444562E+04    0.35616E-06   -0.22676E-06  1032   0.499E-03
  12 F= -.13613844E+04 E0= -.13613844E+04  d E =-.494729E+00
 BRION: g(F)=  0.197E+00 g(S)=  0.000E+00 retain N= 10 mean eig= 2.51
 eig:   7.267  7.267  2.631  2.631  1.280  1.280  0.721  0.721  0.824  0.467
 bond charge predicted
       N       E                     dE             d eps       ncg     rms          rms(c)
DAV:   1    -0.136155592147E+04   -0.17148E+00   -0.59995E+01  1376   0.111E+01    0.129E+00
DAV:   2    -0.136186940862E+04   -0.31349E+00   -0.32932E+00  2296   0.443E+00    0.650E-01
DAV:   3    -0.136188718348E+04   -0.17775E-01   -0.25560E-01  2568   0.831E-01    0.514E-01
DAV:   4    -0.136188320417E+04    0.39793E-02   -0.24715E-02  2568   0.370E-01    0.361E-01
DAV:   5    -0.136187973842E+04    0.34657E-02   -0.12729E-02  2328   0.228E-01    0.141E-01
DAV:   6    -0.136188006034E+04   -0.32192E-03   -0.82025E-03  2440   0.168E-01    0.106E-01
DAV:   7    -0.136188008532E+04   -0.24977E-04   -0.30713E-03  2440   0.102E-01    0.795E-02
DAV:   8    -0.136188007310E+04    0.12220E-04   -0.11219E-03  2624   0.647E-02    0.447E-02
DAV:   9    -0.136188006223E+04    0.10862E-04   -0.25998E-04  2480   0.335E-02    0.307E-02
DAV:  10    -0.136188006519E+04   -0.29597E-05   -0.10907E-04  2496   0.203E-02    0.186E-02
DAV:  11    -0.136188006527E+04   -0.76252E-07   -0.42880E-05  2424   0.141E-02    0.956E-03
DAV:  12    -0.136188006606E+04   -0.79264E-06   -0.21806E-05  2248   0.991E-03    0.926E-03
DAV:  13    -0.136188006531E+04    0.75050E-06   -0.11469E-05  1784   0.671E-03    0.496E-03
DAV:  14    -0.136188006515E+04    0.16647E-06   -0.32451E-06  1176   0.491E-03
  13 F= -.13618801E+04 E0= -.13618801E+04  d E =-.495620E+00
 BRION: g(F)=  0.176E+00 g(S)=  0.000E+00 retain N= 10 mean eig= 2.54
 eig:   7.381  7.381  2.325  2.325  0.674  0.674  1.277  1.277  1.067  1.067
 bond charge predicted
       N       E                     dE             d eps       ncg     rms          rms(c)
DAV:   1    -0.136205910035E+04   -0.17904E+00   -0.40412E+01  1376   0.910E+00    0.106E+00
DAV:   2    -0.136227071768E+04   -0.21162E+00   -0.22234E+00  2304   0.365E+00    0.540E-01
DAV:   3    -0.136228288958E+04   -0.12172E-01   -0.17320E-01  2568   0.685E-01    0.431E-01
DAV:   4    -0.136228041056E+04    0.24790E-02   -0.16734E-02  2600   0.304E-01    0.309E-01
DAV:   5    -0.136227786258E+04    0.25480E-02   -0.84279E-03  2344   0.189E-01    0.129E-01
DAV:   6    -0.136227800569E+04   -0.14312E-03   -0.61002E-03  2368   0.145E-01    0.938E-02
DAV:   7    -0.136227801969E+04   -0.13995E-04   -0.25234E-03  2432   0.928E-02    0.745E-02
DAV:   8    -0.136227800010E+04    0.19586E-04   -0.91628E-04  2608   0.593E-02    0.442E-02
DAV:   9    -0.136227798489E+04    0.15216E-04   -0.24510E-04  2504   0.309E-02    0.269E-02
DAV:  10    -0.136227798869E+04   -0.38010E-05   -0.95709E-05  2512   0.186E-02    0.166E-02
DAV:  11    -0.136227798899E+04   -0.30380E-06   -0.29511E-05  2376   0.121E-02    0.104E-02
DAV:  12    -0.136227798879E+04    0.20124E-06   -0.19703E-05  2136   0.926E-03    0.930E-03
DAV:  13    -0.136227798799E+04    0.80325E-06   -0.11558E-05  1760   0.694E-03    0.470E-03
DAV:  14    -0.136227798786E+04    0.12937E-06   -0.29175E-06  1128   0.483E-03
  14 F= -.13622780E+04 E0= -.13622780E+04  d E =-.397923E+00
 BRION: g(F)=  0.162E+00 g(S)=  0.000E+00 retain N=  6 mean eig= 3.87
 eig:   7.475  7.475  2.779  2.779  1.347  1.347
 bond charge predicted
       N       E                     dE             d eps       ncg     rms          rms(c)
DAV:   1    -0.136245866363E+04   -0.18068E+00   -0.26584E+01  1384   0.739E+00    0.871E-01
DAV:   2    -0.136259770680E+04   -0.13904E+00   -0.14618E+00  2304   0.296E+00    0.439E-01
DAV:   3    -0.136260587793E+04   -0.81711E-02   -0.11647E-01  2568   0.559E-01    0.347E-01
DAV:   4    -0.136260402581E+04    0.18521E-02   -0.11090E-02  2576   0.251E-01    0.247E-01
DAV:   5    -0.136260230581E+04    0.17200E-02   -0.61617E-03  2288   0.165E-01    0.957E-02
DAV:   6    -0.136260248021E+04   -0.17440E-03   -0.42733E-03  2456   0.122E-01    0.816E-02
DAV:   7    -0.136260248269E+04   -0.24761E-05   -0.14150E-03  2464   0.713E-02    0.621E-02
DAV:   8    -0.136260246240E+04    0.20286E-04   -0.57959E-04  2592   0.456E-02    0.308E-02
DAV:   9    -0.136260245433E+04    0.80715E-05   -0.13172E-04  2280   0.242E-02    0.199E-02
DAV:  10    -0.136260245620E+04   -0.18701E-05   -0.51019E-05  2376   0.146E-02    0.126E-02
DAV:  11    -0.136260245541E+04    0.78525E-06   -0.16179E-05  2080   0.921E-03    0.559E-03
DAV:  12    -0.136260245617E+04   -0.75159E-06   -0.94777E-06  1800   0.643E-03
  15 F= -.13626025E+04 E0= -.13626025E+04  d E =-.324468E+00
 BRION: g(F)=  0.152E+00 g(S)=  0.000E+00 retain N=  3 mean eig= 4.15
 eig:   5.472  5.472  1.515
 bond charge predicted
       N       E                     dE             d eps       ncg     rms          rms(c)
DAV:   1    -0.136279120075E+04   -0.18875E+00   -0.29144E+01  1368   0.770E+00    0.895E-01
DAV:   2    -0.136294347281E+04   -0.15227E+00   -0.16048E+00  2304   0.308E+00    0.452E-01
DAV:   3    -0.136295260481E+04   -0.91320E-02   -0.12893E-01  2568   0.590E-01    0.363E-01
DAV:   4    -0.136295084968E+04    0.17551E-02   -0.12047E-02  2584   0.260E-01    0.263E-01
DAV:   5    -0.136294888939E+04    0.19603E-02   -0.61496E-03  2296   0.164E-01    0.112E-01
DAV:   6    -0.136294894794E+04   -0.58555E-04   -0.48051E-03  2360   0.130E-01    0.828E-02
DAV:   7    -0.136294896756E+04   -0.19619E-04   -0.19698E-03  2416   0.817E-02    0.663E-02
DAV:   8    -0.136294895202E+04    0.15545E-04   -0.68875E-04  2600   0.509E-02    0.383E-02
DAV:   9    -0.136294893855E+04    0.13465E-04   -0.21402E-04  2472   0.285E-02    0.224E-02
DAV:  10    -0.136294894309E+04   -0.45330E-05   -0.81380E-05  2488   0.173E-02    0.163E-02
DAV:  11    -0.136294894184E+04    0.12496E-05   -0.29053E-05  2272   0.118E-02    0.929E-03
DAV:  12    -0.136294894199E+04   -0.15172E-06   -0.15305E-05  2024   0.837E-03    0.865E-03
DAV:  13    -0.136294894121E+04    0.77685E-06   -0.91574E-06  1632   0.631E-03
  16 F= -.13629489E+04 E0= -.13629489E+04  d E =-.346485E+00
 BRION: g(F)=  0.143E+00 g(S)=  0.000E+00 retain N=  3 mean eig= 4.32
 eig:   5.716  5.716  1.533
 bond charge predicted
       N       E                     dE             d eps       ncg     rms          rms(c)
DAV:   1    -0.136312899902E+04   -0.18006E+00   -0.33966E+01  1376   0.834E+00    0.973E-01
DAV:   2    -0.136330725896E+04   -0.17826E+00   -0.18764E+00  2304   0.332E+00    0.493E-01
DAV:   3    -0.136331804349E+04   -0.10785E-01   -0.15208E-01  2568   0.640E-01    0.391E-01
DAV:   4    -0.136331583813E+04    0.22054E-02   -0.14201E-02  2584   0.284E-01    0.283E-01
DAV:   5    -0.136331352377E+04    0.23144E-02   -0.74072E-03  2304   0.181E-01    0.117E-01
DAV:   6    -0.136331362027E+04   -0.96502E-04   -0.55062E-03  2368   0.138E-01    0.896E-02
DAV:   7    -0.136331364394E+04   -0.23670E-04   -0.21189E-03  2424   0.854E-02    0.711E-02
DAV:   8    -0.136331362178E+04    0.22160E-04   -0.79947E-04  2592   0.543E-02    0.390E-02
DAV:   9    -0.136331360723E+04    0.14557E-04   -0.22066E-04  2360   0.299E-02    0.235E-02
DAV:  10    -0.136331361131E+04   -0.40829E-05   -0.92228E-05  2384   0.185E-02    0.162E-02
DAV:  11    -0.136331360970E+04    0.16131E-05   -0.29444E-05  2288   0.121E-02    0.773E-03
DAV:  12    -0.136331361052E+04   -0.81756E-06   -0.15523E-05  2000   0.827E-03    0.780E-03
DAV:  13    -0.136331360975E+04    0.76981E-06   -0.63725E-06  1488   0.593E-03
  17 F= -.13633136E+04 E0= -.13633136E+04  d E =-.364669E+00
 BRION: g(F)=  0.134E+00 g(S)=  0.000E+00 retain N=  3 mean eig= 4.88
 eig:   6.443  6.443  1.742
 bond charge predicted
       N       E                     dE             d eps       ncg     rms          rms(c)
DAV:   1    -0.136346807184E+04   -0.15446E+00   -0.52440E+01  1376   0.103E+01    0.119E+00
DAV:   2    -0.136374245798E+04   -0.27439E+00   -0.28879E+00  2304   0.409E+00    0.604E-01
DAV:   3    -0.136375880484E+04   -0.16347E-01   -0.23335E-01  2560   0.790E-01    0.481E-01
DAV:   4    -0.136375548983E+04    0.33150E-02   -0.22086E-02  2584   0.349E-01    0.349E-01
DAV:   5    -0.136375178927E+04    0.37006E-02   -0.10704E-02  2328   0.218E-01    0.150E-01
DAV:   6    -0.136375176744E+04    0.21832E-04   -0.85675E-03  2288   0.172E-01    0.103E-01
DAV:   7    -0.136375184863E+04   -0.81191E-04   -0.35832E-03  2432   0.110E-01    0.885E-02
DAV:   8    -0.136375181491E+04    0.33726E-04   -0.11230E-03  2584   0.661E-02    0.526E-02
DAV:   9    -0.136375178806E+04    0.26844E-04   -0.42677E-04  2512   0.392E-02    0.285E-02
DAV:  10    -0.136375179850E+04   -0.10436E-04   -0.15632E-04  2496   0.244E-02    0.228E-02
DAV:  11    -0.136375179475E+04    0.37496E-05   -0.54951E-05  2432   0.160E-02    0.121E-02
DAV:  12    -0.136375179536E+04   -0.61221E-06   -0.32621E-05  2272   0.114E-02    0.115E-02
DAV:  13    -0.136375179411E+04    0.12515E-05   -0.16794E-05  1856   0.782E-03    0.572E-03
DAV:  14    -0.136375179396E+04    0.14820E-06   -0.41834E-06  1328   0.535E-03
  18 F= -.13637518E+04 E0= -.13637518E+04  d E =-.438184E+00
 BRION: g(F)=  0.121E+00 g(S)=  0.000E+00 retain N=  2 mean eig= 5.43
 eig:   5.435  5.435
 bond charge predicted
       N       E                     dE             d eps       ncg     rms          rms(c)
DAV:   1    -0.136389582650E+04   -0.14403E+00   -0.40403E+01  1376   0.904E+00    0.106E+00
DAV:   2    -0.136410733917E+04   -0.21151E+00   -0.22282E+00  2296   0.357E+00    0.537E-01
DAV:   3    -0.136411926699E+04   -0.11928E-01   -0.17684E-01  2576   0.706E-01    0.425E-01
DAV:   4    -0.136411633721E+04    0.29298E-02   -0.17124E-02  2584   0.307E-01    0.301E-01
DAV:   5    -0.136411363473E+04    0.27025E-02   -0.86481E-03  2280   0.189E-01    0.124E-01
DAV:   6    -0.136411369925E+04   -0.64520E-04   -0.58431E-03  2344   0.138E-01    0.918E-02
DAV:   7    -0.136411372272E+04   -0.23467E-04   -0.22986E-03  2384   0.883E-02    0.713E-02
DAV:   8    -0.136411371210E+04    0.10621E-04   -0.97829E-04  2568   0.576E-02    0.465E-02
DAV:   9    -0.136411369337E+04    0.18724E-04   -0.25279E-04  2488   0.324E-02    0.287E-02
DAV:  10    -0.136411369492E+04   -0.15462E-05   -0.12596E-04  2512   0.206E-02    0.169E-02
DAV:  11    -0.136411369484E+04    0.80094E-07   -0.31976E-05  2376   0.129E-02    0.942E-03
DAV:  12    -0.136411369523E+04   -0.38846E-06   -0.20520E-05  2152   0.900E-03    0.881E-03
DAV:  13    -0.136411369448E+04    0.74960E-06   -0.97985E-06  1744   0.650E-03
  19 F= -.13641137E+04 E0= -.13641137E+04  d E =-.361901E+00
 BRION: g(F)=  0.109E+00 g(S)=  0.000E+00 retain N=  2 mean eig= 5.26
 eig:   5.262  5.262
 bond charge predicted
       N       E                     dE             d eps       ncg     rms          rms(c)
DAV:   1    -0.136422780415E+04   -0.11411E+00   -0.37998E+01  1376   0.875E+00    0.104E+00
DAV:   2    -0.136442531337E+04   -0.19751E+00   -0.20778E+00  2296   0.343E+00    0.527E-01
DAV:   3    -0.136443578745E+04   -0.10474E-01   -0.16154E-01  2568   0.678E-01    0.415E-01
DAV:   4    -0.136443261156E+04    0.31759E-02   -0.16679E-02  2576   0.297E-01    0.284E-01
DAV:   5    -0.136443003478E+04    0.25768E-02   -0.84061E-03  2296   0.190E-01    0.112E-01
DAV:   6    -0.136443017361E+04   -0.13883E-03   -0.54485E-03  2392   0.134E-01    0.888E-02
DAV:   7    -0.136443017914E+04   -0.55275E-05   -0.18256E-03  2408   0.798E-02    0.685E-02
DAV:   8    -0.136443016158E+04    0.17554E-04   -0.83674E-04  2592   0.518E-02    0.384E-02
DAV:   9    -0.136443015119E+04    0.10389E-04   -0.19814E-04  2440   0.293E-02    0.253E-02
DAV:  10    -0.136443015199E+04   -0.79397E-06   -0.94317E-05  2480   0.189E-02    0.167E-02
DAV:  11    -0.136443015055E+04    0.14422E-05   -0.32522E-05  2344   0.125E-02    0.743E-03
DAV:  12    -0.136443015158E+04   -0.10295E-05   -0.16806E-05  2040   0.825E-03    0.765E-03
DAV:  13    -0.136443015075E+04    0.82157E-06   -0.51202E-06  1344   0.578E-03
  20 F= -.13644302E+04 E0= -.13644302E+04  d E =-.316456E+00
 BRION: g(F)=  0.968E-01 g(S)=  0.000E+00 retain N=  2 mean eig= 4.45
 eig:   4.450  4.450
