 running on  160 total cores
 distrk:  each k-point on  160 cores,    1 groups
 distr:  one band on   20 cores,    8 groups
 using from now: INCAR     
 vasp.5.4.4.18Apr17-6-g9f103f2a35 (build May 01 2020 14:22:42) gamma-only       
  
 POSCAR found type information on POSCAR  O  La Zr Li Al
 POSCAR found :  5 types and     188 ions
 scaLAPACK will be used
 LDA part: xc-table for Pade appr. of Perdew
 POSCAR, INCAR and KPOINTS ok, starting setup
 FFT: planning ...
 WAVECAR not read
 WARNING: random wavefunctions but no delay for mixing, default for NELMDL
 entering main loop
       N       E                     dE             d eps       ncg     rms          rms(c)
DAV:   1     0.253742254776E+05    0.25374E+05   -0.41999E+05  1584   0.253E+03
DAV:   2     0.939240855276E+04   -0.15982E+05   -0.14688E+05  1392   0.706E+02
DAV:   3     0.263937239811E+04   -0.67530E+04   -0.61563E+04  1512   0.358E+02
DAV:   4    -0.387314555260E+03   -0.30267E+04   -0.28291E+04  2040   0.224E+02
DAV:   5    -0.140544336490E+04   -0.10181E+04   -0.97663E+03  2536   0.139E+02    0.117E+02
DAV:   6    -0.128955231779E+04    0.11589E+03   -0.14491E+03  2424   0.665E+01    0.500E+01
DAV:   7    -0.131311105028E+04   -0.23559E+02   -0.39195E+02  2568   0.344E+01    0.252E+01
DAV:   8    -0.131921020735E+04   -0.60992E+01   -0.21680E+02  2552   0.251E+01    0.228E+01
DAV:   9    -0.131556271207E+04    0.36475E+01   -0.38014E+01  2576   0.137E+01    0.854E+00
DAV:  10    -0.131606717617E+04   -0.50446E+00   -0.17854E+01  2608   0.735E+00    0.700E+00
DAV:  11    -0.131633337650E+04   -0.26620E+00   -0.39647E+00  2608   0.404E+00    0.504E+00
DAV:  12    -0.131648218593E+04   -0.14881E+00   -0.14658E+00  2568   0.246E+00    0.525E+00
DAV:  13    -0.131629472566E+04    0.18746E+00   -0.22975E+00  2560   0.221E+00    0.225E+00
DAV:  14    -0.131629121428E+04    0.35114E-02   -0.28591E-01  2456   0.120E+00    0.151E+00
DAV:  15    -0.131628731240E+04    0.39019E-02   -0.21229E-01  2504   0.796E-01    0.882E-01
DAV:  16    -0.131628523073E+04    0.20817E-02   -0.53158E-02  2440   0.439E-01    0.566E-01
DAV:  17    -0.131628463399E+04    0.59674E-03   -0.17485E-02  2600   0.259E-01    0.314E-01
DAV:  18    -0.131628477939E+04   -0.14541E-03   -0.90265E-03  2464   0.147E-01    0.129E-01
DAV:  19    -0.131628474521E+04    0.34180E-04   -0.21838E-03  2584   0.937E-02    0.875E-02
DAV:  20    -0.131628478682E+04   -0.41605E-04   -0.12846E-03  2608   0.614E-02    0.484E-02
DAV:  21    -0.131628477501E+04    0.11805E-04   -0.35532E-04  2504   0.355E-02    0.356E-02
DAV:  22    -0.131628478618E+04   -0.11165E-04   -0.19918E-04  2488   0.257E-02    0.238E-02
DAV:  23    -0.131628478900E+04   -0.28201E-05   -0.52574E-05  2272   0.139E-02    0.874E-03
DAV:  24    -0.131628478978E+04   -0.77809E-06   -0.22099E-05  1888   0.861E-03    0.874E-03
DAV:  25    -0.131628479212E+04   -0.23383E-05   -0.56856E-06  1048   0.546E-03    0.263E-03
DAV:  26    -0.131628479142E+04    0.69226E-06   -0.33446E-06   976   0.512E-03
   1 F= -.13162848E+04 E0= -.13162470E+04  d E =-.131628E+04
 BRION: g(F)=  0.774E+02 g(S)=  0.000E+00
 bond charge predicted
       N       E                     dE             d eps       ncg     rms          rms(c)
DAV:   1    -0.125229784210E+04    0.63987E+02   -0.10167E+04  1784   0.154E+02    0.374E+01
DAV:   2    -0.134275651618E+04   -0.90459E+02   -0.10358E+03  2584   0.725E+01    0.183E+01
DAV:   3    -0.133973715511E+04    0.30194E+01   -0.60159E+01  2624   0.189E+01    0.119E+01
DAV:   4    -0.133673262054E+04    0.30045E+01   -0.23271E+01  2416   0.996E+00    0.559E+00
DAV:   5    -0.133668619746E+04    0.46423E-01   -0.71210E+00  2584   0.555E+00    0.406E+00
DAV:   6    -0.133657337971E+04    0.11282E+00   -0.40690E+00  2592   0.355E+00    0.228E+00
DAV:   7    -0.133651895732E+04    0.54422E-01   -0.50111E-01  2520   0.200E+00    0.136E+00
DAV:   8    -0.133652268668E+04   -0.37294E-02   -0.69094E-01  2400   0.139E+00    0.868E-01
DAV:   9    -0.133652575829E+04   -0.30716E-02   -0.10505E-01  2536   0.669E-01    0.722E-01
DAV:  10    -0.133652013985E+04    0.56184E-02   -0.47911E-02  2616   0.394E-01    0.314E-01
DAV:  11    -0.133652085505E+04   -0.71520E-03   -0.23562E-02  2624   0.269E-01    0.174E-01
DAV:  12    -0.133652112256E+04   -0.26751E-03   -0.36935E-03  2504   0.133E-01    0.128E-01
DAV:  13    -0.133652094815E+04    0.17441E-03   -0.19994E-03  2592   0.849E-02    0.400E-02
DAV:  14    -0.133652098810E+04   -0.39948E-04   -0.45660E-04  2592   0.430E-02    0.246E-02
DAV:  15    -0.133652099915E+04   -0.11046E-04   -0.14978E-04  2608   0.249E-02    0.130E-02
DAV:  16    -0.133652099882E+04    0.33288E-06   -0.40624E-05  2592   0.149E-02    0.939E-03
DAV:  17    -0.133652100131E+04   -0.24911E-05   -0.27728E-05  2528   0.985E-03    0.773E-03
DAV:  18    -0.133652100070E+04    0.60876E-06   -0.26868E-06  1136   0.521E-03
   2 F= -.13365210E+04 E0= -.13365210E+04  d E =-.202362E+02
 BRION: g(F)=  0.116E+03 g(S)=  0.000E+00 retain N=  1 mean eig= 0.43
 eig:   0.433
 bond charge predicted
       N       E                     dE             d eps       ncg     rms          rms(c)
DAV:   1    -0.131486770812E+04    0.21653E+02   -0.32340E+03  1416   0.778E+01    0.238E+01
DAV:   2    -0.135321134112E+04   -0.38344E+02   -0.48055E+02  2528   0.350E+01    0.209E+01
DAV:   3    -0.134982698865E+04    0.33844E+01   -0.44942E+01  2584   0.143E+01    0.161E+01
DAV:   4    -0.134665337656E+04    0.31736E+01   -0.35017E+01  2208   0.645E+00    0.760E+00
DAV:   5    -0.134736888183E+04   -0.71551E+00   -0.85908E+00  2392   0.438E+00    0.777E+00
DAV:   6    -0.134623617809E+04    0.11327E+01   -0.85225E+00  2424   0.389E+00    0.164E+00
DAV:   7    -0.134634200690E+04   -0.10583E+00   -0.17141E+00  2544   0.266E+00    0.176E+00
DAV:   8    -0.134630508681E+04    0.36920E-01   -0.39038E-01  2576   0.118E+00    0.931E-01
DAV:   9    -0.134629949758E+04    0.55892E-02   -0.15311E-01  2496   0.672E-01    0.357E-01
DAV:  10    -0.134630120471E+04   -0.17071E-02   -0.25961E-02  2520   0.339E-01    0.201E-01
DAV:  11    -0.134630087831E+04    0.32640E-03   -0.44513E-03  2560   0.163E-01    0.147E-01
DAV:  12    -0.134630094948E+04   -0.71166E-04   -0.65402E-03  2528   0.124E-01    0.925E-02
DAV:  13    -0.134630089057E+04    0.58902E-04   -0.94913E-04  2504   0.718E-02    0.557E-02
DAV:  14    -0.134630089364E+04   -0.30617E-05   -0.51003E-04  2544   0.399E-02    0.323E-02
DAV:  15    -0.134630089797E+04   -0.43367E-05   -0.18836E-04  2600   0.258E-02    0.200E-02
DAV:  16    -0.134630089357E+04    0.43996E-05   -0.45184E-05  2560   0.146E-02    0.945E-03
DAV:  17    -0.134630089443E+04   -0.85734E-06   -0.25394E-05  2352   0.955E-03    0.432E-03
DAV:  18    -0.134630089424E+04    0.18698E-06   -0.17939E-06  1104   0.450E-03
   3 F= -.13463009E+04 E0= -.13463009E+04  d E =-.977989E+01
 BRION: g(F)=  0.184E+02 g(S)=  0.000E+00 retain N=  2 mean eig= 1.42
 eig:   0.278  2.564
 bond charge predicted
       N       E                     dE             d eps       ncg     rms          rms(c)
DAV:   1    -0.134454119108E+04    0.17597E+01   -0.72872E+02  1424   0.312E+01    0.846E+00
DAV:   2    -0.135013747001E+04   -0.55963E+01   -0.66705E+01  2408   0.155E+01    0.512E+00
DAV:   3    -0.134986537447E+04    0.27210E+00   -0.43546E+00  2464   0.465E+00    0.420E+00
DAV:   4    -0.134960463822E+04    0.26074E+00   -0.29965E+00  2232   0.232E+00    0.176E+00
DAV:   5    -0.134962697235E+04   -0.22334E-01   -0.62900E-01  2456   0.148E+00    0.201E+00
DAV:   6    -0.134955977116E+04    0.67201E-01   -0.36099E-01  2464   0.115E+00    0.876E-01
DAV:   7    -0.134956166986E+04   -0.18987E-02   -0.27148E-01  2416   0.751E-01    0.612E-01
DAV:   8    -0.134956171471E+04   -0.44847E-04   -0.42786E-02  2512   0.368E-01    0.504E-01
DAV:   9    -0.134955793762E+04    0.37771E-02   -0.13334E-02  2488   0.196E-01    0.257E-01
DAV:  10    -0.134955800250E+04   -0.64886E-04   -0.17432E-02  2408   0.174E-01    0.128E-01
DAV:  11    -0.134955776153E+04    0.24097E-03   -0.22010E-03  2504   0.926E-02    0.563E-02
DAV:  12    -0.134955779630E+04   -0.34768E-04   -0.79259E-04  2552   0.451E-02    0.194E-02
DAV:  13    -0.134955780395E+04   -0.76483E-05   -0.86112E-05  2616   0.187E-02    0.110E-02
DAV:  14    -0.134955780517E+04   -0.12193E-05   -0.21286E-05  2240   0.949E-03    0.783E-03
DAV:  15    -0.134955780540E+04   -0.23250E-06   -0.12148E-05  1832   0.642E-03    0.293E-03
DAV:  16    -0.134955780532E+04    0.81636E-07   -0.15855E-06  1040   0.423E-03
   4 F= -.13495578E+04 E0= -.13495578E+04  d E =-.325691E+01
 BRION: g(F)=  0.756E+01 g(S)=  0.000E+00 retain N=  3 mean eig= 2.18
 eig:   5.808  0.372  0.372
 bond charge predicted
       N       E                     dE             d eps       ncg     rms          rms(c)
DAV:   1    -0.135133339584E+04   -0.17756E+01   -0.21349E+02  1360   0.197E+01    0.340E+00
DAV:   2    -0.135244126470E+04   -0.11079E+01   -0.11980E+01  2312   0.735E+00    0.192E+00
DAV:   3    -0.135245048272E+04   -0.92180E-02   -0.80261E-01  2616   0.161E+00    0.155E+00
DAV:   4    -0.135240636478E+04    0.44118E-01   -0.27413E-01  2472   0.100E+00    0.662E-01
DAV:   5    -0.135240517835E+04    0.11864E-02   -0.82286E-02  2488   0.597E-01    0.554E-01
DAV:   6    -0.135240314409E+04    0.20343E-02   -0.72499E-02  2480   0.445E-01    0.245E-01
DAV:   7    -0.135240319513E+04   -0.51043E-04   -0.13259E-02  2448   0.229E-01    0.203E-01
DAV:   8    -0.135240288219E+04    0.31294E-03   -0.49475E-03  2448   0.117E-01    0.768E-02
DAV:   9    -0.135240296865E+04   -0.86465E-04   -0.19001E-03  2584   0.728E-02    0.689E-02
DAV:  10    -0.135240292965E+04    0.38999E-04   -0.42748E-04  2496   0.418E-02    0.389E-02
DAV:  11    -0.135240293542E+04   -0.57655E-05   -0.39700E-04  2520   0.310E-02    0.227E-02
DAV:  12    -0.135240293214E+04    0.32805E-05   -0.65228E-05  2480   0.156E-02    0.129E-02
DAV:  13    -0.135240293235E+04   -0.20670E-06   -0.29415E-05  2328   0.980E-03    0.557E-03
DAV:  14    -0.135240293243E+04   -0.86584E-07   -0.45579E-06  1208   0.561E-03
   5 F= -.13524029E+04 E0= -.13524029E+04  d E =-.284513E+01
 BRION: g(F)=  0.306E+01 g(S)=  0.000E+00 retain N=  4 mean eig= 1.99
 eig:   6.765  0.391  0.391  0.431
 bond charge predicted
       N       E                     dE             d eps       ncg     rms          rms(c)
DAV:   1    -0.135317488183E+04   -0.77195E+00   -0.20034E+02  1360   0.188E+01    0.288E+00
DAV:   2    -0.135412279767E+04   -0.94792E+00   -0.99718E+00  2272   0.679E+00    0.144E+00
DAV:   3    -0.135413807893E+04   -0.15281E-01   -0.61019E-01  2608   0.140E+00    0.117E+00
DAV:   4    -0.135410646759E+04    0.31611E-01   -0.14856E-01  2504   0.782E-01    0.583E-01
DAV:   5    -0.135410295385E+04    0.35137E-02   -0.57021E-02  2480   0.449E-01    0.356E-01
DAV:   6    -0.135410274820E+04    0.20565E-03   -0.27283E-02  2608   0.285E-01    0.155E-01
DAV:   7    -0.135410275693E+04   -0.87374E-05   -0.49432E-03  2464   0.150E-01    0.118E-01
DAV:   8    -0.135410276104E+04   -0.41120E-05   -0.22209E-03  2376   0.786E-02    0.623E-02
DAV:   9    -0.135410275210E+04    0.89443E-05   -0.96947E-04  2504   0.557E-02    0.413E-02
DAV:  10    -0.135410275690E+04   -0.48010E-05   -0.25540E-04  2496   0.307E-02    0.317E-02
DAV:  11    -0.135410274845E+04    0.84499E-05   -0.12980E-04  2592   0.212E-02    0.126E-02
DAV:  12    -0.135410275103E+04   -0.25753E-05   -0.45057E-05  2392   0.125E-02    0.894E-03
DAV:  13    -0.135410275047E+04    0.56018E-06   -0.70246E-06  1488   0.692E-03
   6 F= -.13541028E+04 E0= -.13541028E+04  d E =-.169982E+01
 BRION: g(F)=  0.198E+01 g(S)=  0.000E+00 retain N=  5 mean eig= 1.95
 eig:   5.863  2.119  0.749  0.514  0.514
 bond charge predicted
       N       E                     dE             d eps       ncg     rms          rms(c)
DAV:   1    -0.135422742716E+04   -0.12468E+00   -0.33806E+02  1360   0.254E+01    0.354E+00
DAV:   2    -0.135599312874E+04   -0.17657E+01   -0.18439E+01  2288   0.935E+00    0.190E+00
DAV:   3    -0.135604456502E+04   -0.51436E-01   -0.12229E+00  2576   0.197E+00    0.164E+00
DAV:   4    -0.135600651219E+04    0.38053E-01   -0.20476E-01  2544   0.916E-01    0.989E-01
DAV:   5    -0.135598519300E+04    0.21319E-01   -0.11683E-01  2352   0.641E-01    0.424E-01
DAV:   6    -0.135598783681E+04   -0.26438E-02   -0.54328E-02  2512   0.449E-01    0.421E-01
DAV:   7    -0.135598624194E+04    0.15949E-02   -0.19903E-02  2552   0.264E-01    0.245E-01
DAV:   8    -0.135598601111E+04    0.23083E-03   -0.83419E-03  2592   0.160E-01    0.100E-01
DAV:   9    -0.135598599635E+04    0.14762E-04   -0.90209E-04  2440   0.695E-02    0.733E-02
DAV:  10    -0.135598600265E+04   -0.63046E-05   -0.55147E-04  2312   0.415E-02    0.322E-02
DAV:  11    -0.135598600143E+04    0.12246E-05   -0.11894E-04  2592   0.265E-02    0.200E-02
DAV:  12    -0.135598600611E+04   -0.46810E-05   -0.12134E-04  2512   0.174E-02    0.155E-02
DAV:  13    -0.135598600330E+04    0.28017E-05   -0.27926E-05  2240   0.112E-02    0.670E-03
DAV:  14    -0.135598600366E+04   -0.35470E-06   -0.66204E-06  1512   0.606E-03
   7 F= -.13559860E+04 E0= -.13559860E+04  d E =-.188325E+01
 BRION: g(F)=  0.981E+00 g(S)=  0.000E+00 retain N=  6 mean eig= 1.89
 eig:   6.101  1.956  1.115  1.115  0.521  0.521
 bond charge predicted
       N       E                     dE             d eps       ncg     rms          rms(c)
DAV:   1    -0.135634102069E+04   -0.35502E+00   -0.91183E+01  1376   0.136E+01    0.201E+00
DAV:   2    -0.135678960637E+04   -0.44859E+00   -0.47541E+00  2296   0.505E+00    0.101E+00
DAV:   3    -0.135680863345E+04   -0.19027E-01   -0.36091E-01  2624   0.104E+00    0.791E-01
DAV:   4    -0.135679825582E+04    0.10378E-01   -0.58852E-02  2568   0.536E-01    0.413E-01
DAV:   5    -0.135679675923E+04    0.14966E-02   -0.22868E-02  2472   0.307E-01    0.213E-01
DAV:   6    -0.135679706289E+04   -0.30366E-03   -0.10255E-02  2608   0.194E-01    0.127E-01
DAV:   7    -0.135679699809E+04    0.64792E-04   -0.28022E-03  2312   0.108E-01    0.890E-02
DAV:   8    -0.135679701964E+04   -0.21548E-04   -0.12801E-03  2392   0.619E-02    0.527E-02
DAV:   9    -0.135679699085E+04    0.28788E-04   -0.26522E-04  2624   0.371E-02    0.329E-02
DAV:  10    -0.135679700499E+04   -0.14135E-04   -0.36859E-04  2464   0.316E-02    0.299E-02
DAV:  11    -0.135679699307E+04    0.11918E-04   -0.97905E-05  2480   0.210E-02    0.117E-02
DAV:  12    -0.135679699579E+04   -0.27176E-05   -0.48689E-05  2248   0.122E-02    0.910E-03
DAV:  13    -0.135679699477E+04    0.10210E-05   -0.62589E-06  1424   0.703E-03    0.413E-03
DAV:  14    -0.135679699527E+04   -0.50603E-06   -0.86199E-06  1504   0.625E-03
   8 F= -.13567970E+04 E0= -.13567970E+04  d E =-.810992E+00
 BRION: g(F)=  0.688E+00 g(S)=  0.000E+00 retain N=  6 mean eig= 0.98
 eig:   3.271  0.570  0.570  0.402  0.530  0.530
 bond charge predicted
       N       E                     dE             d eps       ncg     rms          rms(c)
DAV:   1    -0.135712936479E+04   -0.33237E+00   -0.52321E+01  1376   0.100E+01    0.151E+00
DAV:   2    -0.135737592053E+04   -0.24656E+00   -0.26108E+00  2288   0.371E+00    0.697E-01
DAV:   3    -0.135738577980E+04   -0.98593E-02   -0.19269E-01  2616   0.751E-01    0.547E-01
DAV:   4    -0.135738000106E+04    0.57787E-02   -0.28446E-02  2528   0.369E-01    0.286E-01
DAV:   5    -0.135737913992E+04    0.86114E-03   -0.12810E-02  2432   0.217E-01    0.145E-01
DAV:   6    -0.135737926678E+04   -0.12686E-03   -0.47133E-03  2560   0.129E-01    0.846E-02
DAV:   7    -0.135737926612E+04    0.65799E-06   -0.12135E-03  2552   0.705E-02    0.567E-02
DAV:   8    -0.135737926468E+04    0.14450E-05   -0.37176E-04  2616   0.371E-02    0.328E-02
DAV:   9    -0.135737925894E+04    0.57405E-05   -0.13305E-04  2552   0.244E-02    0.174E-02
DAV:  10    -0.135737926428E+04   -0.53395E-05   -0.73299E-05  2528   0.157E-02    0.144E-02
DAV:  11    -0.135737926159E+04    0.26906E-05   -0.19121E-05  2176   0.965E-03    0.594E-03
DAV:  12    -0.135737926200E+04   -0.41837E-06   -0.83945E-06  1624   0.608E-03
   9 F= -.13573793E+04 E0= -.13573793E+04  d E =-.582267E+00
 BRION: g(F)=  0.505E+00 g(S)=  0.000E+00 retain N=  7 mean eig= 1.15
 eig:   4.044  1.063  1.063  0.726  0.726  0.056  0.371
 bond charge predicted
       N       E                     dE             d eps       ncg     rms          rms(c)
DAV:   1    -0.135766031617E+04   -0.28105E+00   -0.96379E+01  1384   0.142E+01    0.176E+00
DAV:   2    -0.135814425200E+04   -0.48394E+00   -0.51241E+00  2288   0.533E+00    0.870E-01
DAV:   3    -0.135817237707E+04   -0.28125E-01   -0.40341E-01  2592   0.111E+00    0.707E-01
DAV:   4    -0.135816642662E+04    0.59505E-02   -0.44657E-02  2600   0.496E-01    0.469E-01
DAV:   5    -0.135816291901E+04    0.35076E-02   -0.23471E-02  2384   0.295E-01    0.195E-01
DAV:   6    -0.135816348500E+04   -0.56599E-03   -0.10039E-02  2560   0.199E-01    0.162E-01
DAV:   7    -0.135816339762E+04    0.87374E-04   -0.55064E-03  2568   0.141E-01    0.102E-01
DAV:   8    -0.135816338810E+04    0.95290E-05   -0.19264E-03  2584   0.870E-02    0.643E-02
DAV:   9    -0.135816336820E+04    0.19894E-04   -0.35319E-04  2544   0.415E-02    0.447E-02
DAV:  10    -0.135816337066E+04   -0.24547E-05   -0.25862E-04  2520   0.278E-02    0.229E-02
DAV:  11    -0.135816336972E+04    0.93976E-06   -0.73767E-05  2456   0.193E-02    0.966E-03
DAV:  12    -0.135816337150E+04   -0.17838E-05   -0.27772E-05  2328   0.117E-02    0.928E-03
DAV:  13    -0.135816337085E+04    0.65459E-06   -0.93736E-06  1656   0.642E-03
  10 F= -.13581634E+04 E0= -.13581634E+04  d E =-.784109E+00
 BRION: g(F)=  0.427E+00 g(S)=  0.000E+00 retain N=  8 mean eig= 1.96
 eig:   4.518  3.899  3.899  1.011  1.011  0.839  0.325  0.150
 bond charge predicted
       N       E                     dE             d eps       ncg     rms          rms(c)
DAV:   1    -0.135845379339E+04   -0.29042E+00   -0.57783E+01  1384   0.109E+01    0.132E+00
DAV:   2    -0.135874724351E+04   -0.29345E+00   -0.31013E+00  2272   0.418E+00    0.666E-01
DAV:   3    -0.135876364727E+04   -0.16404E-01   -0.24243E-01  2584   0.839E-01    0.535E-01
DAV:   4    -0.135875938104E+04    0.42662E-02   -0.25991E-02  2576   0.379E-01    0.357E-01
DAV:   5    -0.135875635827E+04    0.30228E-02   -0.13594E-02  2312   0.238E-01    0.138E-01
DAV:   6    -0.135875678961E+04   -0.43135E-03   -0.77716E-03  2464   0.169E-01    0.121E-01
DAV:   7    -0.135875676800E+04    0.21611E-04   -0.26996E-03  2472   0.997E-02    0.843E-02
DAV:   8    -0.135875673800E+04    0.30000E-04   -0.11722E-03  2608   0.635E-02    0.433E-02
DAV:   9    -0.135875673002E+04    0.79869E-05   -0.19678E-04  2456   0.321E-02    0.321E-02
DAV:  10    -0.135875672992E+04    0.93991E-07   -0.13097E-04  2464   0.216E-02    0.176E-02
DAV:  11    -0.135875672940E+04    0.52448E-06   -0.41706E-05  2416   0.150E-02    0.802E-03
DAV:  12    -0.135875673121E+04   -0.18137E-05   -0.22159E-05  2168   0.910E-03    0.874E-03
DAV:  13    -0.135875673000E+04    0.12090E-05   -0.42960E-06  1264   0.592E-03    0.458E-03
DAV:  14    -0.135875673074E+04   -0.73659E-06   -0.13366E-05  1632   0.698E-03    0.477E-03
DAV:  15    -0.135875673030E+04    0.43758E-06   -0.11770E-06   976   0.475E-03
  11 F= -.13587567E+04 E0= -.13587567E+04  d E =-.593359E+00
 BRION: g(F)=  0.288E+00 g(S)=  0.000E+00 retain N=  9 mean eig= 2.50
 eig:   6.193  6.193  4.958  1.532  1.532  0.240  0.240  0.805  0.805
 bond charge predicted
       N       E                     dE             d eps       ncg     rms          rms(c)
DAV:   1    -0.135897644488E+04   -0.21971E+00   -0.83756E+01  1384   0.130E+01    0.156E+00
DAV:   2    -0.135940506103E+04   -0.42862E+00   -0.45274E+00  2304   0.509E+00    0.767E-01
DAV:   3    -0.135943001876E+04   -0.24958E-01   -0.35385E-01  2584   0.989E-01    0.625E-01
DAV:   4    -0.135942477021E+04    0.52486E-02   -0.34145E-02  2584   0.438E-01    0.438E-01
DAV:   5    -0.135941988350E+04    0.48867E-02   -0.18509E-02  2296   0.271E-01    0.166E-01
DAV:   6    -0.135942043458E+04   -0.55108E-03   -0.10991E-02  2440   0.194E-01    0.142E-01
DAV:   7    -0.135942037553E+04    0.59048E-04   -0.42763E-03  2472   0.123E-01    0.965E-02
DAV:   8    -0.135942034555E+04    0.29976E-04   -0.16856E-03  2576   0.794E-02    0.549E-02
DAV:   9    -0.135942033272E+04    0.12834E-04   -0.31497E-04  2480   0.389E-02    0.396E-02
DAV:  10    -0.135942033342E+04   -0.69800E-06   -0.16220E-04  2560   0.234E-02    0.198E-02
DAV:  11    -0.135942033497E+04   -0.15497E-05   -0.46498E-05  2512   0.155E-02    0.993E-03
DAV:  12    -0.135942033608E+04   -0.11110E-05   -0.23370E-05  2336   0.102E-02    0.949E-03
DAV:  13    -0.135942033525E+04    0.83208E-06   -0.94356E-06  1632   0.637E-03
  12 F= -.13594203E+04 E0= -.13594203E+04  d E =-.663605E+00
 BRION: g(F)=  0.246E+00 g(S)=  0.000E+00 retain N=  9 mean eig= 2.38
 eig:   5.930  5.930  3.302  1.520  1.520  0.234  1.054  0.956  0.956
 bond charge predicted
       N       E                     dE             d eps       ncg     rms          rms(c)
DAV:   1    -0.135966068627E+04   -0.24035E+00   -0.36141E+01  1384   0.853E+00    0.102E+00
DAV:   2    -0.135984449975E+04   -0.18381E+00   -0.19537E+00  2304   0.330E+00    0.514E-01
DAV:   3    -0.135985510401E+04   -0.10604E-01   -0.15626E-01  2584   0.658E-01    0.420E-01
DAV:   4    -0.135985243349E+04    0.26705E-02   -0.15939E-02  2592   0.295E-01    0.281E-01
DAV:   5    -0.135985042614E+04    0.20074E-02   -0.83905E-03  2328   0.178E-01    0.107E-01
DAV:   6    -0.135985064796E+04   -0.22183E-03   -0.43853E-03  2464   0.124E-01    0.936E-02
DAV:   7    -0.135985061655E+04    0.31419E-04   -0.19449E-03  2464   0.828E-02    0.614E-02
DAV:   8    -0.135985061432E+04    0.22294E-05   -0.70822E-04  2608   0.513E-02    0.369E-02
DAV:   9    -0.135985060843E+04    0.58839E-05   -0.12937E-04  2520   0.247E-02    0.272E-02
DAV:  10    -0.135985060881E+04   -0.37698E-06   -0.77390E-05  2528   0.156E-02    0.142E-02
DAV:  11    -0.135985060941E+04   -0.59816E-06   -0.28802E-05  2336   0.118E-02    0.774E-03
DAV:  12    -0.135985060922E+04    0.18899E-06   -0.10270E-05  1784   0.808E-03    0.645E-03
DAV:  13    -0.135985060904E+04    0.17851E-06   -0.66378E-06  1472   0.557E-03
  13 F= -.13598506E+04 E0= -.13598506E+04  d E =-.430274E+00
 BRION: g(F)=  0.229E+00 g(S)=  0.000E+00 retain N=  8 mean eig= 2.95
 eig:   7.858  7.858  1.836  1.836  1.107  1.107  0.998  0.998
 bond charge predicted
       N       E                     dE             d eps       ncg     rms          rms(c)
DAV:   1    -0.136002030466E+04   -0.16970E+00   -0.70897E+01  1384   0.119E+01    0.141E+00
DAV:   2    -0.136038274711E+04   -0.36244E+00   -0.38138E+00  2288   0.462E+00    0.696E-01
DAV:   3    -0.136040311181E+04   -0.20365E-01   -0.29537E-01  2576   0.898E-01    0.570E-01
DAV:   4    -0.136039855168E+04    0.45601E-02   -0.28028E-02  2592   0.394E-01    0.410E-01
DAV:   5    -0.136039328490E+04    0.52668E-02   -0.14875E-02  2264   0.253E-01    0.157E-01
DAV:   6    -0.136039367375E+04   -0.38885E-03   -0.11491E-02  2384   0.190E-01    0.125E-01
DAV:   7    -0.136039366591E+04    0.78334E-05   -0.35836E-03  2440   0.112E-01    0.955E-02
DAV:   8    -0.136039362278E+04    0.43130E-04   -0.13719E-03  2584   0.697E-02    0.503E-02
DAV:   9    -0.136039360221E+04    0.20574E-04   -0.33089E-04  2336   0.376E-02    0.330E-02
DAV:  10    -0.136039360727E+04   -0.50641E-05   -0.12376E-04  2368   0.216E-02    0.199E-02
DAV:  11    -0.136039360578E+04    0.14989E-05   -0.37193E-05  2520   0.137E-02    0.937E-03
DAV:  12    -0.136039360727E+04   -0.14925E-05   -0.24537E-05  2280   0.967E-03    0.851E-03
DAV:  13    -0.136039360634E+04    0.92866E-06   -0.37668E-06  1216   0.578E-03
  14 F= -.13603936E+04 E0= -.13603936E+04  d E =-.542997E+00
 BRION: g(F)=  0.203E+00 g(S)=  0.000E+00 retain N=  5 mean eig= 3.90
 eig:   7.535  7.535  1.613  1.613  1.197
 bond charge predicted
       N       E                     dE             d eps       ncg     rms          rms(c)
DAV:   1    -0.136060901879E+04   -0.21541E+00   -0.26107E+01  1384   0.721E+00    0.835E-01
DAV:   2    -0.136074251545E+04   -0.13350E+00   -0.14061E+00  2304   0.278E+00    0.423E-01
DAV:   3    -0.136075034265E+04   -0.78272E-02   -0.11193E-01  2592   0.544E-01    0.344E-01
DAV:   4    -0.136074854509E+04    0.17976E-02   -0.10264E-02  2592   0.241E-01    0.242E-01
DAV:   5    -0.136074677661E+04    0.17685E-02   -0.54660E-03  2280   0.147E-01    0.893E-02
DAV:   6    -0.136074691671E+04   -0.14011E-03   -0.35764E-03  2416   0.106E-01    0.720E-02
DAV:   7    -0.136074691174E+04    0.49745E-05   -0.12394E-03  2424   0.654E-02    0.514E-02
DAV:   8    -0.136074690302E+04    0.87191E-05   -0.44642E-04  2608   0.411E-02    0.296E-02
DAV:   9    -0.136074689825E+04    0.47734E-05   -0.97211E-05  2400   0.209E-02    0.205E-02
DAV:  10    -0.136074689910E+04   -0.85121E-06   -0.44445E-05  2448   0.125E-02    0.106E-02
DAV:  11    -0.136074689937E+04   -0.27496E-06   -0.10389E-05  1784   0.832E-03    0.622E-03
DAV:  12    -0.136074689999E+04   -0.61760E-06   -0.13076E-05  1712   0.681E-03    0.625E-03
DAV:  13    -0.136074689941E+04    0.57496E-06   -0.15896E-06   984   0.470E-03
  15 F= -.13607469E+04 E0= -.13607469E+04  d E =-.353293E+00
 BRION: g(F)=  0.196E+00 g(S)=  0.000E+00 retain N=  4 mean eig= 3.77
 eig:   6.205  6.205  1.340  1.340
 bond charge predicted
       N       E                     dE             d eps       ncg     rms          rms(c)
DAV:   1    -0.136094407321E+04   -0.19717E+00   -0.16720E+01  1384   0.575E+00    0.671E-01
DAV:   2    -0.136102982718E+04   -0.85754E-01   -0.90405E-01  2296   0.223E+00    0.341E-01
DAV:   3    -0.136103471775E+04   -0.48906E-02   -0.71469E-02  2584   0.432E-01    0.276E-01
DAV:   4    -0.136103352165E+04    0.11961E-02   -0.68531E-03  2568   0.195E-01    0.191E-01
DAV:   5    -0.136103242513E+04    0.10965E-02   -0.33869E-03  2336   0.117E-01    0.727E-02
DAV:   6    -0.136103249606E+04   -0.70927E-04   -0.22466E-03  2424   0.850E-02    0.551E-02
DAV:   7    -0.136103249539E+04    0.66763E-06   -0.78974E-04  2456   0.526E-02    0.403E-02
DAV:   8    -0.136103249290E+04    0.24856E-05   -0.30355E-04  2568   0.331E-02    0.239E-02
DAV:   9    -0.136103248992E+04    0.29799E-05   -0.67631E-05  2408   0.174E-02    0.170E-02
DAV:  10    -0.136103249004E+04   -0.11631E-06   -0.29023E-05  2416   0.103E-02    0.980E-03
DAV:  11    -0.136103248985E+04    0.19040E-06   -0.67874E-06  1448   0.712E-03
  16 F= -.13610325E+04 E0= -.13610325E+04  d E =-.285590E+00
 BRION: g(F)=  0.190E+00 g(S)=  0.000E+00 retain N=  4 mean eig= 3.21
 eig:   5.323  5.323  1.089  1.089
 bond charge predicted
       N       E                     dE             d eps       ncg     rms          rms(c)
DAV:   1    -0.136120408396E+04   -0.17159E+00   -0.91846E+00  1384   0.427E+00    0.506E-01
DAV:   2    -0.136125110501E+04   -0.47021E-01   -0.49695E-01  2280   0.166E+00    0.255E-01
DAV:   3    -0.136125381156E+04   -0.27066E-02   -0.39918E-02  2584   0.331E-01    0.207E-01
DAV:   4    -0.136125307675E+04    0.73482E-03   -0.38558E-03  2600   0.147E-01    0.140E-01
DAV:   5    -0.136125245988E+04    0.61687E-03   -0.20870E-03  2248   0.935E-02    0.496E-02
DAV:   6    -0.136125253145E+04   -0.71569E-04   -0.13200E-03  2440   0.653E-02    0.457E-02
DAV:   7    -0.136125252651E+04    0.49403E-05   -0.39744E-04  2448   0.379E-02    0.321E-02
DAV:   8    -0.136125252245E+04    0.40558E-05   -0.15437E-04  2568   0.235E-02    0.164E-02
DAV:   9    -0.136125252095E+04    0.15008E-05   -0.31406E-05  2304   0.123E-02    0.118E-02
DAV:  10    -0.136125252106E+04   -0.10492E-06   -0.11868E-05  1936   0.740E-03    0.626E-03
DAV:  11    -0.136125252077E+04    0.28605E-06   -0.17502E-06   992   0.538E-03
  17 F= -.13612525E+04 E0= -.13612525E+04  d E =-.220031E+00
 BRION: g(F)=  0.186E+00 g(S)=  0.000E+00 retain N=  4 mean eig= 2.55
 eig:   4.014  4.014  1.084  1.084
 bond charge predicted
       N       E                     dE             d eps       ncg     rms          rms(c)
DAV:   1    -0.136145784739E+04   -0.20533E+00   -0.14961E+01  1384   0.546E+00    0.638E-01
DAV:   2    -0.136153490901E+04   -0.77062E-01   -0.81288E-01  2296   0.213E+00    0.322E-01
DAV:   3    -0.136153944597E+04   -0.45370E-02   -0.65157E-02  2576   0.416E-01    0.259E-01
DAV:   4    -0.136153833162E+04    0.11144E-02   -0.61510E-03  2576   0.185E-01    0.179E-01
DAV:   5    -0.136153736980E+04    0.96182E-03   -0.32822E-03  2280   0.114E-01    0.636E-02
DAV:   6    -0.136153747037E+04   -0.10057E-03   -0.19327E-03  2440   0.780E-02    0.540E-02
DAV:   7    -0.136153746415E+04    0.62199E-05   -0.60344E-04  2480   0.465E-02    0.370E-02
DAV:   8    -0.136153745983E+04    0.43222E-05   -0.24006E-04  2568   0.298E-02    0.207E-02
DAV:   9    -0.136153745828E+04    0.15553E-05   -0.46934E-05  2416   0.152E-02    0.150E-02
DAV:  10    -0.136153745829E+04   -0.10477E-07   -0.23188E-05  2312   0.944E-03    0.703E-03
DAV:  11    -0.136153745817E+04    0.11740E-06   -0.27045E-06  1112   0.609E-03
  18 F= -.13615375E+04 E0= -.13615375E+04  d E =-.284937E+00
 BRION: g(F)=  0.180E+00 g(S)=  0.000E+00 retain N=  4 mean eig= 3.38
 eig:   5.616  5.616  1.150  1.150
 bond charge predicted
       N       E                     dE             d eps       ncg     rms          rms(c)
DAV:   1    -0.136177022095E+04   -0.23276E+00   -0.19909E+01  1376   0.628E+00    0.725E-01
DAV:   2    -0.136187359978E+04   -0.10338E+00   -0.10916E+00  2304   0.246E+00    0.366E-01
DAV:   3    -0.136187989313E+04   -0.62933E-02   -0.88675E-02  2584   0.480E-01    0.295E-01
DAV:   4    -0.136187858538E+04    0.13077E-02   -0.80159E-03  2600   0.214E-01    0.209E-01
DAV:   5    -0.136187724004E+04    0.13453E-02   -0.38741E-03  2304   0.126E-01    0.838E-02
DAV:   6    -0.136187727965E+04   -0.39612E-04   -0.28054E-03  2352   0.950E-02    0.595E-02
DAV:   7    -0.136187729518E+04   -0.15531E-04   -0.11028E-03  2456   0.608E-02    0.463E-02
DAV:   8    -0.136187728870E+04    0.64793E-05   -0.36375E-04  2584   0.376E-02    0.279E-02
DAV:   9    -0.136187728332E+04    0.53821E-05   -0.10420E-04  2440   0.204E-02    0.178E-02
DAV:  10    -0.136187728495E+04   -0.16279E-05   -0.41261E-05  2496   0.124E-02    0.113E-02
DAV:  11    -0.136187728461E+04    0.33781E-06   -0.11256E-05  1688   0.822E-03    0.666E-03
DAV:  12    -0.136187728478E+04   -0.17029E-06   -0.11270E-05  1632   0.741E-03    0.574E-03
DAV:  13    -0.136187728432E+04    0.46554E-06   -0.20361E-06   968   0.508E-03
  19 F= -.13618773E+04 E0= -.13618773E+04  d E =-.339826E+00
 BRION: g(F)=  0.176E+00 g(S)=  0.000E+00 retain N=  4 mean eig= 2.94
 eig:   4.664  4.664  1.209  1.209
 bond charge predicted
       N       E                     dE             d eps       ncg     rms          rms(c)
DAV:   1    -0.136209207879E+04   -0.21479E+00   -0.15363E+01  1376   0.554E+00    0.655E-01
DAV:   2    -0.136217243493E+04   -0.80356E-01   -0.84977E-01  2304   0.219E+00    0.329E-01
DAV:   3    -0.136217720355E+04   -0.47686E-02   -0.68497E-02  2584   0.424E-01    0.265E-01
DAV:   4    -0.136217608743E+04    0.11161E-02   -0.64951E-03  2600   0.191E-01    0.185E-01
DAV:   5    -0.136217505044E+04    0.10370E-02   -0.31672E-03  2328   0.116E-01    0.712E-02
DAV:   6    -0.136217511258E+04   -0.62143E-04   -0.21902E-03  2408   0.842E-02    0.541E-02
DAV:   7    -0.136217511650E+04   -0.39208E-05   -0.74351E-04  2456   0.516E-02    0.408E-02
DAV:   8    -0.136217511110E+04    0.54066E-05   -0.28582E-04  2600   0.318E-02    0.229E-02
DAV:   9    -0.136217510770E+04    0.33986E-05   -0.73051E-05  2424   0.177E-02    0.154E-02
DAV:  10    -0.136217510847E+04   -0.77570E-06   -0.30212E-05  2432   0.108E-02    0.978E-03
DAV:  11    -0.136217510782E+04    0.65654E-06   -0.74050E-06  1512   0.723E-03
  20 F= -.13621751E+04 E0= -.13621751E+04  d E =-.297824E+00
 BRION: g(F)=  0.172E+00 g(S)=  0.000E+00 retain N=  4 mean eig= 2.90
 eig:   4.660  4.660  1.134  1.134
