 running on  160 total cores
 distrk:  each k-point on  160 cores,    1 groups
 distr:  one band on   20 cores,    8 groups
 using from now: INCAR     
 vasp.5.4.4.18Apr17-6-g9f103f2a35 (build May 01 2020 14:22:42) gamma-only       
  
 POSCAR found type information on POSCAR  O  La Zr Li Al
 POSCAR found :  5 types and     188 ions
 scaLAPACK will be used
 LDA part: xc-table for Pade appr. of Perdew
 POSCAR, INCAR and KPOINTS ok, starting setup
 FFT: planning ...
 WAVECAR not read
 WARNING: random wavefunctions but no delay for mixing, default for NELMDL
 entering main loop
       N       E                     dE             d eps       ncg     rms          rms(c)
DAV:   1     0.252560491385E+05    0.25256E+05   -0.41948E+05  1592   0.253E+03
DAV:   2     0.941373373859E+04   -0.15842E+05   -0.14582E+05  1424   0.712E+02
DAV:   3     0.268765050602E+04   -0.67261E+04   -0.61350E+04  1504   0.357E+02
DAV:   4    -0.341355032125E+03   -0.30290E+04   -0.28241E+04  2032   0.223E+02
DAV:   5    -0.140231983607E+04   -0.10610E+04   -0.10205E+04  2544   0.140E+02    0.117E+02
DAV:   6    -0.129851530356E+04    0.10380E+03   -0.14831E+03  2424   0.661E+01    0.500E+01
DAV:   7    -0.132181417481E+04   -0.23299E+02   -0.41122E+02  2552   0.340E+01    0.259E+01
DAV:   8    -0.132812567991E+04   -0.63115E+01   -0.25832E+02  2528   0.274E+01    0.247E+01
DAV:   9    -0.132290494481E+04    0.52207E+01   -0.50106E+01  2512   0.147E+01    0.753E+00
DAV:  10    -0.132384780104E+04   -0.94286E+00   -0.14739E+01  2624   0.795E+00    0.717E+00
DAV:  11    -0.132413425451E+04   -0.28645E+00   -0.66438E+00  2624   0.439E+00    0.404E+00
DAV:  12    -0.132398838697E+04    0.14587E+00   -0.23908E+00  2576   0.355E+00    0.253E+00
DAV:  13    -0.132404423678E+04   -0.55850E-01   -0.88706E-01  2560   0.171E+00    0.174E+00
DAV:  14    -0.132403670748E+04    0.75293E-02   -0.26246E-01  2624   0.106E+00    0.107E+00
DAV:  15    -0.132404408561E+04   -0.73781E-02   -0.89778E-02  2560   0.573E-01    0.850E-01
DAV:  16    -0.132404435607E+04   -0.27045E-03   -0.28809E-02  2624   0.321E-01    0.531E-01
DAV:  17    -0.132404270826E+04    0.16478E-02   -0.23068E-02  2408   0.285E-01    0.254E-01
DAV:  18    -0.132404306526E+04   -0.35700E-03   -0.53507E-03  2536   0.152E-01    0.985E-02
DAV:  19    -0.132404313427E+04   -0.69007E-04   -0.17012E-03  2608   0.803E-02    0.913E-02
DAV:  20    -0.132404319112E+04   -0.56845E-04   -0.48010E-04  2624   0.418E-02    0.232E-02
DAV:  21    -0.132404319506E+04   -0.39451E-05   -0.19686E-04  2592   0.265E-02    0.359E-02
DAV:  22    -0.132404321541E+04   -0.20352E-04   -0.77111E-05  2408   0.187E-02    0.108E-02
DAV:  23    -0.132404321387E+04    0.15430E-05   -0.29937E-05  1952   0.918E-03    0.596E-03
DAV:  24    -0.132404321889E+04   -0.50167E-05   -0.10143E-05  1200   0.810E-03    0.356E-03
DAV:  25    -0.132404321704E+04    0.18483E-05   -0.40990E-06  1032   0.444E-03    0.304E-03
DAV:  26    -0.132404321854E+04   -0.15018E-05   -0.19259E-06  1016   0.466E-03    0.106E-03
DAV:  27    -0.132404321904E+04   -0.50149E-06   -0.58729E-07   944   0.288E-03
   1 F= -.13240432E+04 E0= -.13240432E+04  d E =-.132404E+04
 BRION: g(F)=  0.728E+02 g(S)=  0.000E+00
 bond charge predicted
       N       E                     dE             d eps       ncg     rms          rms(c)
DAV:   1    -0.128547633908E+04    0.38567E+02   -0.75222E+03  1680   0.127E+02    0.323E+01
DAV:   2    -0.134478022736E+04   -0.59304E+02   -0.68332E+02  2560   0.600E+01    0.151E+01
DAV:   3    -0.134251549985E+04    0.22647E+01   -0.40734E+01  2600   0.166E+01    0.100E+01
DAV:   4    -0.134066645472E+04    0.18490E+01   -0.16822E+01  2416   0.832E+00    0.481E+00
DAV:   5    -0.134056500049E+04    0.10145E+00   -0.43798E+00  2528   0.450E+00    0.348E+00
DAV:   6    -0.134048856803E+04    0.76432E-01   -0.30224E+00  2552   0.288E+00    0.196E+00
DAV:   7    -0.134045865606E+04    0.29912E-01   -0.40671E-01  2528   0.167E+00    0.123E+00
DAV:   8    -0.134045729497E+04    0.13611E-02   -0.49004E-01  2504   0.114E+00    0.758E-01
DAV:   9    -0.134045646152E+04    0.83346E-03   -0.67360E-02  2528   0.577E-01    0.560E-01
DAV:  10    -0.134045375079E+04    0.27107E-02   -0.33941E-02  2576   0.323E-01    0.227E-01
DAV:  11    -0.134045458559E+04   -0.83480E-03   -0.18018E-02  2616   0.230E-01    0.169E-01
DAV:  12    -0.134045449030E+04    0.95292E-04   -0.26847E-03  2568   0.118E-01    0.115E-01
DAV:  13    -0.134045440110E+04    0.89204E-04   -0.18828E-03  2616   0.729E-02    0.271E-02
DAV:  14    -0.134045442277E+04   -0.21674E-04   -0.26242E-04  2616   0.340E-02    0.163E-02
DAV:  15    -0.134045442955E+04   -0.67790E-05   -0.78260E-05  2616   0.174E-02    0.816E-03
DAV:  16    -0.134045442942E+04    0.13209E-06   -0.17486E-05  1816   0.105E-02    0.496E-03
DAV:  17    -0.134045443074E+04   -0.13230E-05   -0.17980E-05  1984   0.823E-03    0.474E-03
DAV:  18    -0.134045443058E+04    0.16039E-06   -0.20189E-06  1096   0.477E-03
   2 F= -.13404544E+04 E0= -.13404544E+04  d E =-.164112E+02
 BRION: g(F)=  0.131E+03 g(S)=  0.000E+00 retain N=  1 mean eig= 0.40
 eig:   0.399
 bond charge predicted
       N       E                     dE             d eps       ncg     rms          rms(c)
DAV:   1    -0.132114349071E+04    0.19311E+02   -0.28943E+03  1344   0.702E+01    0.229E+01
DAV:   2    -0.135652417027E+04   -0.35381E+02   -0.45366E+02  2528   0.349E+01    0.201E+01
DAV:   3    -0.135292535455E+04    0.35988E+01   -0.43926E+01  2528   0.137E+01    0.152E+01
DAV:   4    -0.134999504564E+04    0.29303E+01   -0.40903E+01  2176   0.707E+00    0.695E+00
DAV:   5    -0.135090298576E+04   -0.90794E+00   -0.91371E+00  2448   0.433E+00    0.868E+00
DAV:   6    -0.134953999643E+04    0.13630E+01   -0.11527E+01  2448   0.367E+00    0.149E+00
DAV:   7    -0.134965724586E+04   -0.11725E+00   -0.16584E+00  2480   0.261E+00    0.151E+00
DAV:   8    -0.134962862733E+04    0.28619E-01   -0.29062E-01  2584   0.101E+00    0.903E-01
DAV:   9    -0.134962177354E+04    0.68538E-02   -0.12460E-01  2520   0.601E-01    0.350E-01
DAV:  10    -0.134962233151E+04   -0.55797E-03   -0.23688E-02  2448   0.302E-01    0.193E-01
DAV:  11    -0.134962230420E+04    0.27305E-04   -0.80723E-03  2608   0.172E-01    0.145E-01
DAV:  12    -0.134962228384E+04    0.20364E-04   -0.44910E-03  2544   0.109E-01    0.688E-02
DAV:  13    -0.134962231165E+04   -0.27813E-04   -0.63028E-04  2608   0.590E-02    0.601E-02
DAV:  14    -0.134962226345E+04    0.48201E-04   -0.45192E-04  2584   0.388E-02    0.258E-02
DAV:  15    -0.134962227535E+04   -0.11896E-04   -0.20896E-04  2560   0.274E-02    0.205E-02
DAV:  16    -0.134962227268E+04    0.26720E-05   -0.49751E-05  2552   0.134E-02    0.102E-02
DAV:  17    -0.134962227223E+04    0.45147E-06   -0.12214E-05  2008   0.802E-03    0.520E-03
DAV:  18    -0.134962227237E+04   -0.14399E-06   -0.45929E-06  1448   0.477E-03
   3 F= -.13496223E+04 E0= -.13496223E+04  d E =-.916784E+01
 BRION: g(F)=  0.381E+02 g(S)=  0.000E+00 retain N=  2 mean eig= 0.95
 eig:   0.217  1.685
 bond charge predicted
       N       E                     dE             d eps       ncg     rms          rms(c)
DAV:   1    -0.134769778816E+04    0.19245E+01   -0.81357E+02  1360   0.303E+01    0.984E+00
DAV:   2    -0.135446356102E+04   -0.67658E+01   -0.84088E+01  2488   0.166E+01    0.652E+00
DAV:   3    -0.135402582766E+04    0.43773E+00   -0.63100E+00  2376   0.565E+00    0.514E+00
DAV:   4    -0.135364284965E+04    0.38298E+00   -0.48906E+00  2152   0.307E+00    0.203E+00
DAV:   5    -0.135370310228E+04   -0.60253E-01   -0.10755E+00  2392   0.192E+00    0.263E+00
DAV:   6    -0.135357891461E+04    0.12419E+00   -0.78551E-01  2416   0.156E+00    0.835E-01
DAV:   7    -0.135359230696E+04   -0.13392E-01   -0.36504E-01  2408   0.964E-01    0.834E-01
DAV:   8    -0.135358986633E+04    0.24406E-02   -0.62574E-02  2576   0.459E-01    0.705E-01
DAV:   9    -0.135358247615E+04    0.73902E-02   -0.28646E-02  2304   0.283E-01    0.300E-01
DAV:  10    -0.135358250580E+04   -0.29646E-04   -0.21039E-02  2520   0.209E-01    0.106E-01
DAV:  11    -0.135358244354E+04    0.62255E-04   -0.20645E-03  2520   0.104E-01    0.591E-02
DAV:  12    -0.135358248010E+04   -0.36560E-04   -0.66423E-04  2368   0.456E-02    0.338E-02
DAV:  13    -0.135358248073E+04   -0.62751E-06   -0.14701E-04  2576   0.244E-02    0.248E-02
DAV:  14    -0.135358247858E+04    0.21507E-05   -0.74526E-05  2568   0.164E-02    0.110E-02
DAV:  15    -0.135358247879E+04   -0.21487E-06   -0.20941E-05  2344   0.934E-03    0.526E-03
DAV:  16    -0.135358247910E+04   -0.30086E-06   -0.85177E-06  1832   0.525E-03
   4 F= -.13535825E+04 E0= -.13535825E+04  d E =-.396021E+01
 BRION: g(F)=  0.731E+01 g(S)=  0.000E+00 retain N=  3 mean eig= 2.83
 eig:   7.748  0.365  0.365
 bond charge predicted
       N       E                     dE             d eps       ncg     rms          rms(c)
DAV:   1    -0.135562809523E+04   -0.20456E+01   -0.27725E+02  1352   0.232E+01    0.476E+00
DAV:   2    -0.135705568221E+04   -0.14276E+01   -0.15385E+01  2288   0.866E+00    0.224E+00
DAV:   3    -0.135706647880E+04   -0.10797E-01   -0.10739E+00  2616   0.199E+00    0.186E+00
DAV:   4    -0.135701938860E+04    0.47090E-01   -0.40515E-01  2456   0.121E+00    0.862E-01
DAV:   5    -0.135701908665E+04    0.30194E-03   -0.99370E-02  2488   0.692E-01    0.654E-01
DAV:   6    -0.135701644579E+04    0.26409E-02   -0.85645E-02  2456   0.482E-01    0.259E-01
DAV:   7    -0.135701643721E+04    0.85761E-05   -0.15115E-02  2360   0.250E-01    0.225E-01
DAV:   8    -0.135701619260E+04    0.24461E-03   -0.64248E-03  2368   0.136E-01    0.108E-01
DAV:   9    -0.135701615693E+04    0.35668E-04   -0.28554E-03  2552   0.928E-02    0.651E-02
DAV:  10    -0.135701618072E+04   -0.23784E-04   -0.74648E-04  2456   0.546E-02    0.584E-02
DAV:  11    -0.135701615129E+04    0.29428E-04   -0.29944E-04  2560   0.335E-02    0.272E-02
DAV:  12    -0.135701615277E+04   -0.14825E-05   -0.17375E-04  2488   0.218E-02    0.162E-02
DAV:  13    -0.135701615374E+04   -0.97118E-06   -0.28711E-05  2368   0.124E-02    0.120E-02
DAV:  14    -0.135701615220E+04    0.15459E-05   -0.14738E-05  1920   0.740E-03    0.464E-03
DAV:  15    -0.135701615224E+04   -0.43452E-07   -0.29189E-06  1096   0.520E-03
   5 F= -.13570162E+04 E0= -.13570162E+04  d E =-.343367E+01
 BRION: g(F)=  0.337E+01 g(S)=  0.000E+00 retain N=  3 mean eig= 0.39
 eig:   0.214  0.214  0.735
 bond charge predicted
       N       E                     dE             d eps       ncg     rms          rms(c)
DAV:   1    -0.135789610398E+04   -0.87995E+00   -0.21224E+02  1384   0.195E+01    0.308E+00
DAV:   2    -0.135893732584E+04   -0.10412E+01   -0.11003E+01  2280   0.727E+00    0.162E+00
DAV:   3    -0.135894980314E+04   -0.12477E-01   -0.68300E-01  2616   0.147E+00    0.134E+00
DAV:   4    -0.135891073298E+04    0.39070E-01   -0.20603E-01  2496   0.886E-01    0.634E-01
DAV:   5    -0.135890834774E+04    0.23852E-02   -0.70482E-02  2496   0.521E-01    0.450E-01
DAV:   6    -0.135890710483E+04    0.12429E-02   -0.39459E-02  2608   0.348E-01    0.173E-01
DAV:   7    -0.135890703942E+04    0.65407E-04   -0.76638E-03  2312   0.184E-01    0.138E-01
DAV:   8    -0.135890710392E+04   -0.64501E-04   -0.36106E-03  2360   0.974E-02    0.830E-02
DAV:   9    -0.135890704121E+04    0.62719E-04   -0.12406E-03  2624   0.681E-02    0.478E-02
DAV:  10    -0.135890705291E+04   -0.11706E-04   -0.57914E-04  2520   0.432E-02    0.405E-02
DAV:  11    -0.135890703943E+04    0.13486E-04   -0.19793E-04  2560   0.278E-02    0.188E-02
DAV:  12    -0.135890704179E+04   -0.23686E-05   -0.78726E-05  2400   0.153E-02    0.931E-03
DAV:  13    -0.135890704211E+04   -0.31716E-06   -0.16826E-05  2120   0.904E-03    0.629E-03
DAV:  14    -0.135890704187E+04    0.24102E-06   -0.30335E-06  1120   0.561E-03
   6 F= -.13589070E+04 E0= -.13589070E+04  d E =-.189089E+01
 BRION: g(F)=  0.202E+01 g(S)=  0.000E+00 retain N=  4 mean eig= 0.60
 eig:   0.443  0.110  0.922  0.922
 bond charge predicted
       N       E                     dE             d eps       ncg     rms          rms(c)
DAV:   1    -0.135854870049E+04    0.35834E+00   -0.46009E+02  1352   0.293E+01    0.434E+00
DAV:   2    -0.136104434024E+04   -0.24956E+01   -0.26221E+01  2304   0.110E+01    0.241E+00
DAV:   3    -0.136107532052E+04   -0.30980E-01   -0.16443E+00  2600   0.236E+00    0.205E+00
DAV:   4    -0.136099847483E+04    0.76846E-01   -0.39338E-01  2520   0.118E+00    0.106E+00
DAV:   5    -0.136097576894E+04    0.22706E-01   -0.16124E-01  2488   0.737E-01    0.580E-01
DAV:   6    -0.136097557524E+04    0.19371E-03   -0.61136E-02  2536   0.475E-01    0.448E-01
DAV:   7    -0.136097359188E+04    0.19834E-02   -0.31933E-02  2512   0.325E-01    0.233E-01
DAV:   8    -0.136097382042E+04   -0.22854E-03   -0.10940E-02  2496   0.182E-01    0.121E-01
DAV:   9    -0.136097371139E+04    0.10903E-03   -0.17074E-03  2568   0.842E-02    0.778E-02
DAV:  10    -0.136097376676E+04   -0.55372E-04   -0.14447E-03  2336   0.646E-02    0.571E-02
DAV:  11    -0.136097372140E+04    0.45363E-04   -0.48816E-04  2544   0.463E-02    0.232E-02
DAV:  12    -0.136097373704E+04   -0.15640E-04   -0.26921E-04  2584   0.279E-02    0.194E-02
DAV:  13    -0.136097373315E+04    0.38913E-05   -0.54844E-05  2456   0.145E-02    0.750E-03
DAV:  14    -0.136097373399E+04   -0.83762E-06   -0.14183E-05  1840   0.784E-03    0.496E-03
DAV:  15    -0.136097373422E+04   -0.22988E-06   -0.25347E-06  1088   0.448E-03
   7 F= -.13609737E+04 E0= -.13609737E+04  d E =-.206669E+01
 BRION: g(F)=  0.181E+01 g(S)=  0.000E+00 retain N=  5 mean eig= 0.55
 eig:   0.798  0.798  0.193  0.193  0.766
 bond charge predicted
       N       E                     dE             d eps       ncg     rms          rms(c)
DAV:   1    -0.136141645335E+04   -0.44272E+00   -0.68400E+01  1376   0.117E+01    0.184E+00
DAV:   2    -0.136176040400E+04   -0.34395E+00   -0.37055E+00  2288   0.445E+00    0.935E-01
DAV:   3    -0.136177168795E+04   -0.11284E-01   -0.28057E-01  2608   0.985E-01    0.734E-01
DAV:   4    -0.136176265046E+04    0.90375E-02   -0.50764E-02  2520   0.475E-01    0.386E-01
DAV:   5    -0.136176099908E+04    0.16514E-02   -0.17965E-02  2448   0.267E-01    0.195E-01
DAV:   6    -0.136176123075E+04   -0.23166E-03   -0.82685E-03  2584   0.171E-01    0.114E-01
DAV:   7    -0.136176118580E+04    0.44947E-04   -0.25997E-03  2256   0.101E-01    0.832E-02
DAV:   8    -0.136176120215E+04   -0.16353E-04   -0.11339E-03  2344   0.578E-02    0.501E-02
DAV:   9    -0.136176118004E+04    0.22114E-04   -0.25356E-04  2600   0.356E-02    0.335E-02
DAV:  10    -0.136176118722E+04   -0.71826E-05   -0.33366E-04  2488   0.301E-02    0.288E-02
DAV:  11    -0.136176117669E+04    0.10529E-04   -0.10587E-04  2416   0.206E-02    0.100E-02
DAV:  12    -0.136176117859E+04   -0.19037E-05   -0.29980E-05  2176   0.111E-02    0.627E-03
DAV:  13    -0.136176117835E+04    0.24699E-06   -0.21381E-06  1024   0.548E-03
   8 F= -.13617612E+04 E0= -.13617612E+04  d E =-.787444E+00
 BRION: g(F)=  0.615E+00 g(S)=  0.000E+00 retain N=  6 mean eig= 1.28
 eig:   2.448  2.448  1.541  0.159  0.532  0.532
 bond charge predicted
       N       E                     dE             d eps       ncg     rms          rms(c)
DAV:   1    -0.136205434433E+04   -0.29317E+00   -0.80707E+01  1368   0.128E+01    0.172E+00
DAV:   2    -0.136246226481E+04   -0.40792E+00   -0.43332E+00  2296   0.477E+00    0.855E-01
DAV:   3    -0.136248187669E+04   -0.19612E-01   -0.33676E-01  2616   0.100E+00    0.688E-01
DAV:   4    -0.136247317574E+04    0.87009E-02   -0.50148E-02  2552   0.493E-01    0.386E-01
DAV:   5    -0.136247043732E+04    0.27384E-02   -0.18654E-02  2440   0.290E-01    0.178E-01
DAV:   6    -0.136247092089E+04   -0.48357E-03   -0.94258E-03  2520   0.184E-01    0.128E-01
DAV:   7    -0.136247081802E+04    0.10288E-03   -0.31650E-03  2264   0.113E-01    0.919E-02
DAV:   8    -0.136247085437E+04   -0.36351E-04   -0.18085E-03  2336   0.695E-02    0.547E-02
DAV:   9    -0.136247083776E+04    0.16611E-04   -0.29706E-04  2576   0.377E-02    0.432E-02
DAV:  10    -0.136247082303E+04    0.14727E-04   -0.29309E-04  2520   0.309E-02    0.265E-02
DAV:  11    -0.136247082272E+04    0.30891E-06   -0.11196E-04  2448   0.206E-02    0.103E-02
DAV:  12    -0.136247082324E+04   -0.51568E-06   -0.22001E-05  2112   0.117E-02    0.846E-03
DAV:  13    -0.136247082353E+04   -0.29376E-06   -0.18674E-05  1888   0.771E-03    0.594E-03
DAV:  14    -0.136247082319E+04    0.33966E-06   -0.20341E-06  1024   0.521E-03
   9 F= -.13624708E+04 E0= -.13624708E+04  d E =-.709645E+00
 BRION: g(F)=  0.457E+00 g(S)=  0.000E+00 retain N=  7 mean eig= 1.51
 eig:   3.453  3.453  1.229  0.778  0.778  0.267  0.616
 bond charge predicted
       N       E                     dE             d eps       ncg     rms          rms(c)
DAV:   1    -0.136268505496E+04   -0.21423E+00   -0.74034E+01  1384   0.123E+01    0.154E+00
DAV:   2    -0.136306310764E+04   -0.37805E+00   -0.40305E+00  2272   0.463E+00    0.770E-01
DAV:   3    -0.136308439974E+04   -0.21292E-01   -0.32983E-01  2616   0.993E-01    0.623E-01
DAV:   4    -0.136307787930E+04    0.65204E-02   -0.37868E-02  2584   0.451E-01    0.389E-01
DAV:   5    -0.136307447464E+04    0.34047E-02   -0.16118E-02  2424   0.253E-01    0.152E-01
DAV:   6    -0.136307491028E+04   -0.43564E-03   -0.80031E-03  2480   0.166E-01    0.113E-01
DAV:   7    -0.136307490922E+04    0.10636E-05   -0.30097E-03  2448   0.107E-01    0.803E-02
DAV:   8    -0.136307491668E+04   -0.74636E-05   -0.11647E-03  2592   0.623E-02    0.464E-02
DAV:   9    -0.136307490653E+04    0.10149E-04   -0.23025E-04  2568   0.335E-02    0.351E-02
DAV:  10    -0.136307490792E+04   -0.13858E-05   -0.16553E-04  2544   0.231E-02    0.231E-02
DAV:  11    -0.136307490545E+04    0.24667E-05   -0.81665E-05  2440   0.177E-02    0.946E-03
DAV:  12    -0.136307490587E+04   -0.41748E-06   -0.17780E-05  1952   0.105E-02    0.818E-03
DAV:  13    -0.136307490566E+04    0.21438E-06   -0.12863E-05  1672   0.655E-03    0.433E-03
DAV:  14    -0.136307490548E+04    0.17676E-06   -0.18120E-06  1000   0.512E-03
  10 F= -.13630749E+04 E0= -.13630749E+04  d E =-.604082E+00
 BRION: g(F)=  0.316E+00 g(S)=  0.000E+00 retain N=  8 mean eig= 1.75
 eig:   5.060  2.035  2.035  1.664  1.664  0.276  0.646  0.646
 bond charge predicted
       N       E                     dE             d eps       ncg     rms          rms(c)
DAV:   1    -0.136325735216E+04   -0.18245E+00   -0.51481E+01  1376   0.103E+01    0.128E+00
DAV:   2    -0.136353060798E+04   -0.27326E+00   -0.29200E+00  2304   0.399E+00    0.650E-01
DAV:   3    -0.136354643825E+04   -0.15830E-01   -0.23929E-01  2600   0.828E-01    0.520E-01
DAV:   4    -0.136354196224E+04    0.44760E-02   -0.26983E-02  2600   0.385E-01    0.331E-01
DAV:   5    -0.136353972217E+04    0.22401E-02   -0.10884E-02  2488   0.205E-01    0.129E-01
DAV:   6    -0.136353994300E+04   -0.22084E-03   -0.51831E-03  2504   0.131E-01    0.789E-02
DAV:   7    -0.136354000565E+04   -0.62651E-04   -0.19619E-03  2480   0.884E-02    0.596E-02
DAV:   8    -0.136354001409E+04   -0.84355E-05   -0.63441E-04  2624   0.486E-02    0.347E-02
DAV:   9    -0.136354001282E+04    0.12733E-05   -0.14861E-04  2584   0.270E-02    0.259E-02
DAV:  10    -0.136354001540E+04   -0.25789E-05   -0.89192E-05  2560   0.176E-02    0.168E-02
DAV:  11    -0.136354001409E+04    0.13089E-05   -0.42078E-05  2416   0.128E-02    0.662E-03
DAV:  12    -0.136354001435E+04   -0.26752E-06   -0.93328E-06  1784   0.771E-03
  11 F= -.13635400E+04 E0= -.13635400E+04  d E =-.465109E+00
 BRION: g(F)=  0.224E+00 g(S)=  0.000E+00 retain N=  8 mean eig= 1.65
 eig:   3.343  3.343  0.714  0.714  0.823  0.375  2.208  1.642
 bond charge predicted
       N       E                     dE             d eps       ncg     rms          rms(c)
DAV:   1    -0.136366317204E+04   -0.12316E+00   -0.55748E+01  1376   0.107E+01    0.128E+00
DAV:   2    -0.136396007343E+04   -0.29690E+00   -0.31738E+00  2288   0.417E+00    0.635E-01
DAV:   3    -0.136397824285E+04   -0.18169E-01   -0.26114E-01  2600   0.861E-01    0.518E-01
DAV:   4    -0.136397445056E+04    0.37923E-02   -0.26072E-02  2600   0.389E-01    0.362E-01
DAV:   5    -0.136397099332E+04    0.34572E-02   -0.11317E-02  2392   0.218E-01    0.145E-01
DAV:   6    -0.136397111689E+04   -0.12357E-03   -0.79093E-03  2360   0.166E-01    0.926E-02
DAV:   7    -0.136397123878E+04   -0.12189E-03   -0.35818E-03  2440   0.110E-01    0.777E-02
DAV:   8    -0.136397122742E+04    0.11356E-04   -0.91181E-04  2624   0.604E-02    0.436E-02
DAV:   9    -0.136397121945E+04    0.79741E-05   -0.30237E-04  2568   0.349E-02    0.300E-02
DAV:  10    -0.136397122749E+04   -0.80432E-05   -0.11318E-04  2552   0.207E-02    0.231E-02
DAV:  11    -0.136397122441E+04    0.30810E-05   -0.72536E-05  2416   0.167E-02    0.118E-02
DAV:  12    -0.136397122420E+04    0.20979E-06   -0.27599E-05  2256   0.119E-02    0.971E-03
DAV:  13    -0.136397122379E+04    0.41293E-06   -0.16628E-05  1928   0.745E-03    0.491E-03
DAV:  14    -0.136397122358E+04    0.20601E-06   -0.30667E-06  1088   0.538E-03
  12 F= -.13639712E+04 E0= -.13639712E+04  d E =-.431209E+00
 BRION: g(F)=  0.173E+00 g(S)=  0.000E+00 retain N=  8 mean eig= 2.55
 eig:   7.819  7.819  1.344  1.344  0.322  0.322  0.933  0.465
 bond charge predicted
       N       E                     dE             d eps       ncg     rms          rms(c)
DAV:   1    -0.136385675851E+04    0.11447E+00   -0.11201E+02  1392   0.153E+01    0.179E+00
DAV:   2    -0.136446946419E+04   -0.61271E+00   -0.65278E+00  2280   0.617E+00    0.900E-01
DAV:   3    -0.136450786063E+04   -0.38396E-01   -0.53207E-01  2600   0.123E+00    0.744E-01
DAV:   4    -0.136450172906E+04    0.61316E-02   -0.48557E-02  2600   0.541E-01    0.556E-01
DAV:   5    -0.136449368759E+04    0.80415E-02   -0.22372E-02  2400   0.296E-01    0.238E-01
DAV:   6    -0.136449357615E+04    0.11144E-03   -0.18144E-02  2304   0.241E-01    0.135E-01
DAV:   7    -0.136449388039E+04   -0.30423E-03   -0.89848E-03  2464   0.166E-01    0.120E-01
DAV:   8    -0.136449381591E+04    0.64481E-04   -0.20158E-03  2600   0.962E-02    0.734E-02
DAV:   9    -0.136449378761E+04    0.28300E-04   -0.73994E-04  2584   0.518E-02    0.436E-02
DAV:  10    -0.136449380446E+04   -0.16852E-04   -0.19889E-04  2568   0.291E-02    0.289E-02
DAV:  11    -0.136449380795E+04   -0.34900E-05   -0.88719E-05  2440   0.194E-02    0.195E-02
DAV:  12    -0.136449380515E+04    0.27959E-05   -0.72982E-05  2296   0.172E-02    0.147E-02
DAV:  13    -0.136449380429E+04    0.86086E-06   -0.31877E-05  2296   0.111E-02    0.949E-03
DAV:  14    -0.136449380387E+04    0.42263E-06   -0.11803E-05  1792   0.666E-03    0.382E-03
DAV:  15    -0.136449380381E+04    0.62180E-07   -0.23829E-06  1008   0.474E-03
  13 F= -.13644938E+04 E0= -.13644938E+04  d E =-.522580E+00
 BRION: g(F)=  0.124E+00 g(S)=  0.000E+00 retain N=  3 mean eig= 4.88
 eig:   6.660  6.660  1.314
 bond charge predicted
       N       E                     dE             d eps       ncg     rms          rms(c)
DAV:   1    -0.136450654095E+04   -0.12737E-01   -0.53666E+01  1400   0.106E+01    0.123E+00
DAV:   2    -0.136479594065E+04   -0.28940E+00   -0.30854E+00  2288   0.424E+00    0.619E-01
DAV:   3    -0.136481408695E+04   -0.18146E-01   -0.25357E-01  2600   0.847E-01    0.513E-01
DAV:   4    -0.136481077474E+04    0.33122E-02   -0.22870E-02  2600   0.370E-01    0.375E-01
DAV:   5    -0.136480699813E+04    0.37766E-02   -0.12233E-02  2328   0.211E-01    0.147E-01
DAV:   6    -0.136480721490E+04   -0.21677E-03   -0.82214E-03  2360   0.163E-01    0.107E-01
DAV:   7    -0.136480726732E+04   -0.52416E-04   -0.41226E-03  2424   0.112E-01    0.794E-02
DAV:   8    -0.136480724852E+04    0.18795E-04   -0.10234E-03  2616   0.677E-02    0.462E-02
DAV:   9    -0.136480724135E+04    0.71700E-05   -0.27600E-04  2520   0.334E-02    0.321E-02
DAV:  10    -0.136480724672E+04   -0.53681E-05   -0.86217E-05  2536   0.181E-02    0.199E-02
DAV:  11    -0.136480724798E+04   -0.12643E-05   -0.57086E-05  2336   0.150E-02    0.124E-02
DAV:  12    -0.136480724714E+04    0.84004E-06   -0.27944E-05  2256   0.117E-02    0.104E-02
DAV:  13    -0.136480724652E+04    0.62042E-06   -0.14591E-05  1928   0.732E-03    0.643E-03
DAV:  14    -0.136480724601E+04    0.51230E-06   -0.36962E-06  1168   0.539E-03
  14 F= -.13648072E+04 E0= -.13648072E+04  d E =-.313442E+00
 BRION: g(F)=  0.107E+00 g(S)=  0.000E+00 retain N=  3 mean eig= 4.50
 eig:   1.825  5.835  5.835
 bond charge predicted
       N       E                     dE             d eps       ncg     rms          rms(c)
DAV:   1    -0.136483748378E+04   -0.30237E-01   -0.34879E+01  1392   0.853E+00    0.990E-01
DAV:   2    -0.136502548344E+04   -0.18800E+00   -0.19975E+00  2296   0.341E+00    0.501E-01
DAV:   3    -0.136503704855E+04   -0.11565E-01   -0.16172E-01  2592   0.672E-01    0.412E-01
DAV:   4    -0.136503496915E+04    0.20794E-02   -0.14622E-02  2600   0.294E-01    0.303E-01
DAV:   5    -0.136503246933E+04    0.24998E-02   -0.73200E-03  2328   0.171E-01    0.123E-01
DAV:   6    -0.136503255540E+04   -0.86073E-04   -0.57104E-03  2352   0.138E-01    0.838E-02
DAV:   7    -0.136503259461E+04   -0.39208E-04   -0.26836E-03  2384   0.920E-02    0.658E-02
DAV:   8    -0.136503258263E+04    0.11986E-04   -0.69195E-04  2608   0.539E-02    0.389E-02
DAV:   9    -0.136503257380E+04    0.88252E-05   -0.19696E-04  2536   0.283E-02    0.258E-02
DAV:  10    -0.136503257720E+04   -0.33979E-05   -0.66351E-05  2544   0.159E-02    0.160E-02
DAV:  11    -0.136503257857E+04   -0.13694E-05   -0.34913E-05  2272   0.120E-02    0.109E-02
DAV:  12    -0.136503257770E+04    0.86917E-06   -0.19357E-05  2184   0.100E-02    0.876E-03
DAV:  13    -0.136503257723E+04    0.46499E-06   -0.10677E-05  1800   0.637E-03    0.517E-03
DAV:  14    -0.136503257698E+04    0.25173E-06   -0.38421E-06  1200   0.500E-03
  15 F= -.13650326E+04 E0= -.13650326E+04  d E =-.225331E+00
 BRION: g(F)=  0.945E-01 g(S)=  0.000E+00 retain N=  3 mean eig= 5.41
 eig:   7.150  7.150  1.921
 bond charge predicted
       N       E                     dE             d eps       ncg     rms          rms(c)
DAV:   1    -0.136509744870E+04   -0.64871E-01   -0.83666E+00  1384   0.411E+00    0.458E-01
DAV:   2    -0.136514003716E+04   -0.42588E-01   -0.44579E-01  2296   0.161E+00    0.240E-01
DAV:   3    -0.136514254359E+04   -0.25064E-02   -0.34904E-02  2592   0.304E-01    0.192E-01
DAV:   4    -0.136514202765E+04    0.51594E-03   -0.29647E-03  2592   0.130E-01    0.139E-01
DAV:   5    -0.136514148697E+04    0.54068E-03   -0.16537E-03  2296   0.807E-02    0.517E-02
DAV:   6    -0.136514153332E+04   -0.46350E-04   -0.11446E-03  2376   0.607E-02    0.380E-02
DAV:   7    -0.136514153711E+04   -0.37913E-05   -0.40690E-04  2424   0.364E-02    0.280E-02
DAV:   8    -0.136514153393E+04    0.31827E-05   -0.11461E-04  2552   0.219E-02    0.154E-02
DAV:   9    -0.136514153229E+04    0.16342E-05   -0.30054E-05  2272   0.114E-02    0.105E-02
DAV:  10    -0.136514153253E+04   -0.23699E-06   -0.83369E-06  1632   0.651E-03
  16 F= -.13651415E+04 E0= -.13651415E+04  d E =-.108956E+00
 BRION: g(F)=  0.877E-01 g(S)=  0.000E+00 retain N=  3 mean eig= 3.35
 eig:   4.518  4.518  1.019
 bond charge predicted
       N       E                     dE             d eps       ncg     rms          rms(c)
DAV:   1    -0.136520660461E+04   -0.65072E-01   -0.18000E+01  1392   0.603E+00    0.676E-01
DAV:   2    -0.136529869279E+04   -0.92088E-01   -0.96807E-01  2288   0.236E+00    0.347E-01
DAV:   3    -0.136530426422E+04   -0.55714E-02   -0.76997E-02  2576   0.456E-01    0.279E-01
DAV:   4    -0.136530316257E+04    0.11017E-02   -0.67248E-03  2576   0.194E-01    0.199E-01
DAV:   5    -0.136530207446E+04    0.10881E-02   -0.36725E-03  2312   0.118E-01    0.732E-02
DAV:   6    -0.136530218236E+04   -0.10789E-03   -0.22833E-03  2416   0.849E-02    0.556E-02
DAV:   7    -0.136530218519E+04   -0.28353E-05   -0.86756E-04  2448   0.534E-02    0.385E-02
DAV:   8    -0.136530218193E+04    0.32651E-05   -0.24745E-04  2560   0.321E-02    0.227E-02
DAV:   9    -0.136530217980E+04    0.21268E-05   -0.55072E-05  2416   0.161E-02    0.165E-02
DAV:  10    -0.136530218020E+04   -0.39715E-06   -0.25006E-05  2336   0.942E-03    0.809E-03
DAV:  11    -0.136530218028E+04   -0.86933E-07   -0.55116E-06  1376   0.664E-03
  17 F= -.13653022E+04 E0= -.13653022E+04  d E =-.160648E+00
 BRION: g(F)=  0.823E-01 g(S)=  0.000E+00 retain N=  3 mean eig= 3.58
 eig:   4.751  4.751  1.224
 bond charge predicted
       N       E                     dE             d eps       ncg     rms          rms(c)
DAV:   1    -0.136534431230E+04   -0.42132E-01   -0.32720E+01  1376   0.806E+00    0.886E-01
DAV:   2    -0.136550921111E+04   -0.16490E+00   -0.17237E+00  2296   0.313E+00    0.458E-01
DAV:   3    -0.136551914780E+04   -0.99367E-02   -0.13583E-01  2584   0.595E-01    0.366E-01
DAV:   4    -0.136551738807E+04    0.17597E-02   -0.11204E-02  2592   0.250E-01    0.270E-01
DAV:   5    -0.136551526426E+04    0.21238E-02   -0.57220E-03  2328   0.154E-01    0.110E-01
DAV:   6    -0.136551531392E+04   -0.49665E-04   -0.45240E-03  2304   0.122E-01    0.694E-02
DAV:   7    -0.136551536466E+04   -0.50739E-04   -0.18999E-03  2464   0.784E-02    0.566E-02
DAV:   8    -0.136551534982E+04    0.14842E-04   -0.44011E-04  2568   0.443E-02    0.324E-02
DAV:   9    -0.136551534087E+04    0.89473E-05   -0.15999E-04  2408   0.246E-02    0.196E-02
DAV:  10    -0.136551534438E+04   -0.35062E-05   -0.51432E-05  2456   0.143E-02    0.129E-02
DAV:  11    -0.136551534396E+04    0.41311E-06   -0.22229E-05  2080   0.997E-03    0.661E-03
DAV:  12    -0.136551534397E+04   -0.26630E-08   -0.95274E-06  1728   0.753E-03
  18 F= -.13655153E+04 E0= -.13655153E+04  d E =-.213164E+00
 BRION: g(F)=  0.759E-01 g(S)=  0.000E+00 retain N=  3 mean eig= 3.49
 eig:   4.668  4.668  1.137
 bond charge predicted
       N       E                     dE             d eps       ncg     rms          rms(c)
DAV:   1    -0.136558403836E+04   -0.68694E-01   -0.12918E+01  1384   0.508E+00    0.554E-01
DAV:   2    -0.136564879476E+04   -0.64756E-01   -0.67736E-01  2296   0.195E+00    0.287E-01
DAV:   3    -0.136565277547E+04   -0.39807E-02   -0.54004E-02  2576   0.376E-01    0.227E-01
DAV:   4    -0.136565206119E+04    0.71428E-03   -0.44773E-03  2568   0.159E-01    0.165E-01
DAV:   5    -0.136565129029E+04    0.77090E-03   -0.24292E-03  2296   0.962E-02    0.637E-02
DAV:   6    -0.136565133983E+04   -0.49533E-04   -0.15923E-03  2336   0.712E-02    0.461E-02
DAV:   7    -0.136565134781E+04   -0.79816E-05   -0.65163E-04  2440   0.465E-02    0.335E-02
DAV:   8    -0.136565134321E+04    0.45978E-05   -0.18033E-04  2528   0.277E-02    0.201E-02
DAV:   9    -0.136565134074E+04    0.24742E-05   -0.47169E-05  2312   0.143E-02    0.136E-02
DAV:  10    -0.136565134104E+04   -0.30024E-06   -0.20823E-05  2136   0.870E-03    0.660E-03
DAV:  11    -0.136565134098E+04    0.54919E-07   -0.26461E-06  1072   0.611E-03
  19 F= -.13656513E+04 E0= -.13656513E+04  d E =-.135997E+00
 BRION: g(F)=  0.721E-01 g(S)=  0.000E+00 retain N=  3 mean eig= 3.36
 eig:   4.362  4.362  1.365
 bond charge predicted
       N       E                     dE             d eps       ncg     rms          rms(c)
DAV:   1    -0.136572374057E+04   -0.72400E-01   -0.86002E+00  1368   0.412E+00    0.452E-01
DAV:   2    -0.136576665727E+04   -0.42917E-01   -0.44824E-01  2296   0.158E+00    0.232E-01
DAV:   3    -0.136576922756E+04   -0.25703E-02   -0.35104E-02  2584   0.310E-01    0.183E-01
DAV:   4    -0.136576872259E+04    0.50497E-03   -0.29995E-03  2568   0.129E-01    0.129E-01
DAV:   5    -0.136576826723E+04    0.45536E-03   -0.15920E-03  2320   0.786E-02    0.480E-02
DAV:   6    -0.136576831045E+04   -0.43223E-04   -0.95426E-04  2408   0.554E-02    0.359E-02
DAV:   7    -0.136576831420E+04   -0.37539E-05   -0.35329E-04  2456   0.350E-02    0.256E-02
DAV:   8    -0.136576831168E+04    0.25251E-05   -0.10347E-04  2560   0.210E-02    0.150E-02
DAV:   9    -0.136576831045E+04    0.12289E-05   -0.26258E-05  2288   0.108E-02    0.103E-02
DAV:  10    -0.136576831057E+04   -0.12331E-06   -0.12176E-05  1680   0.717E-03    0.493E-03
DAV:  11    -0.136576831042E+04    0.15856E-06   -0.16234E-06   992   0.557E-03
  20 F= -.13657683E+04 E0= -.13657683E+04  d E =-.116969E+00
 BRION: g(F)=  0.703E-01 g(S)=  0.000E+00 retain N=  3 mean eig= 3.75
 eig:   4.945  4.945  1.370
