 running on  160 total cores
 distrk:  each k-point on  160 cores,    1 groups
 distr:  one band on   20 cores,    8 groups
 using from now: INCAR     
 vasp.5.4.4.18Apr17-6-g9f103f2a35 (build May 01 2020 14:22:42) gamma-only       
  
 POSCAR found type information on POSCAR  O  La Zr Li Al
 POSCAR found :  5 types and     188 ions
 scaLAPACK will be used
 LDA part: xc-table for Pade appr. of Perdew
 POSCAR, INCAR and KPOINTS ok, starting setup
 FFT: planning ...
 WAVECAR not read
 WARNING: random wavefunctions but no delay for mixing, default for NELMDL
 entering main loop
       N       E                     dE             d eps       ncg     rms          rms(c)
DAV:   1     0.253126660352E+05    0.25313E+05   -0.41921E+05  1600   0.253E+03
DAV:   2     0.942302128251E+04   -0.15890E+05   -0.14546E+05  1400   0.711E+02
DAV:   3     0.266011324986E+04   -0.67629E+04   -0.61780E+04  1520   0.358E+02
DAV:   4    -0.329912834306E+03   -0.29900E+04   -0.27928E+04  2024   0.224E+02
DAV:   5    -0.138919193157E+04   -0.10593E+04   -0.10081E+04  2536   0.138E+02    0.116E+02
DAV:   6    -0.129730210843E+04    0.91890E+02   -0.15498E+03  2472   0.670E+01    0.503E+01
DAV:   7    -0.132079822562E+04   -0.23496E+02   -0.43711E+02  2552   0.346E+01    0.272E+01
DAV:   8    -0.132517956163E+04   -0.43813E+01   -0.27231E+02  2528   0.285E+01    0.247E+01
DAV:   9    -0.132092042925E+04    0.42591E+01   -0.45646E+01  2536   0.144E+01    0.790E+00
DAV:  10    -0.132170223176E+04   -0.78180E+00   -0.14176E+01  2616   0.761E+00    0.728E+00
DAV:  11    -0.132192733220E+04   -0.22510E+00   -0.64162E+00  2624   0.438E+00    0.397E+00
DAV:  12    -0.132184605153E+04    0.81281E-01   -0.20720E+00  2544   0.335E+00    0.251E+00
DAV:  13    -0.132188981001E+04   -0.43758E-01   -0.88809E-01  2544   0.172E+00    0.174E+00
DAV:  14    -0.132188037180E+04    0.94382E-02   -0.26877E-01  2600   0.104E+00    0.995E-01
DAV:  15    -0.132188771784E+04   -0.73460E-02   -0.83874E-02  2560   0.558E-01    0.732E-01
DAV:  16    -0.132188840611E+04   -0.68827E-03   -0.30311E-02  2600   0.311E-01    0.480E-01
DAV:  17    -0.132188772804E+04    0.67807E-03   -0.21468E-02  2480   0.286E-01    0.220E-01
DAV:  18    -0.132188806532E+04   -0.33728E-03   -0.48592E-03  2408   0.146E-01    0.136E-01
DAV:  19    -0.132188802874E+04    0.36575E-04   -0.23067E-03  2544   0.962E-02    0.744E-02
DAV:  20    -0.132188807758E+04   -0.48843E-04   -0.55992E-04  2560   0.425E-02    0.298E-02
DAV:  21    -0.132188810461E+04   -0.27023E-04   -0.18544E-04  2624   0.254E-02    0.369E-02
DAV:  22    -0.132188811746E+04   -0.12855E-04   -0.63471E-05  2392   0.142E-02    0.165E-02
DAV:  23    -0.132188811113E+04    0.63359E-05   -0.51339E-05  2328   0.128E-02    0.112E-02
DAV:  24    -0.132188811680E+04   -0.56697E-05   -0.12156E-05  1528   0.853E-03    0.369E-03
DAV:  25    -0.132188811649E+04    0.30358E-06   -0.44001E-06  1016   0.548E-03
   1 F= -.13218881E+04 E0= -.13218881E+04  d E =-.132189E+04
 BRION: g(F)=  0.628E+02 g(S)=  0.000E+00
 bond charge predicted
       N       E                     dE             d eps       ncg     rms          rms(c)
DAV:   1    -0.128577167970E+04    0.36116E+02   -0.79624E+03  1744   0.137E+02    0.277E+01
DAV:   2    -0.134828309480E+04   -0.62511E+02   -0.71604E+02  2552   0.615E+01    0.147E+01
DAV:   3    -0.134664497594E+04    0.16381E+01   -0.41768E+01  2608   0.164E+01    0.102E+01
DAV:   4    -0.134439153792E+04    0.22534E+01   -0.15302E+01  2416   0.797E+00    0.489E+00
DAV:   5    -0.134415796787E+04    0.23357E+00   -0.41439E+00  2568   0.455E+00    0.345E+00
DAV:   6    -0.134403616596E+04    0.12180E+00   -0.31871E+00  2592   0.321E+00    0.170E+00
DAV:   7    -0.134403276985E+04    0.33961E-02   -0.58262E-01  2536   0.181E+00    0.130E+00
DAV:   8    -0.134402594082E+04    0.68290E-02   -0.40920E-01  2608   0.105E+00    0.642E-01
DAV:   9    -0.134402584340E+04    0.97421E-04   -0.50833E-02  2552   0.556E-01    0.448E-01
DAV:  10    -0.134402426263E+04    0.15808E-02   -0.30339E-02  2616   0.332E-01    0.184E-01
DAV:  11    -0.134402521138E+04   -0.94875E-03   -0.12229E-02  2600   0.213E-01    0.155E-01
DAV:  12    -0.134402517445E+04    0.36931E-04   -0.25045E-03  2584   0.994E-02    0.904E-02
DAV:  13    -0.134402510733E+04    0.67114E-04   -0.16460E-03  2496   0.752E-02    0.229E-02
DAV:  14    -0.134402513590E+04   -0.28563E-04   -0.31403E-04  2408   0.387E-02    0.170E-02
DAV:  15    -0.134402514446E+04   -0.85593E-05   -0.66315E-05  2624   0.166E-02    0.120E-02
DAV:  16    -0.134402514362E+04    0.83551E-06   -0.23370E-05  2344   0.103E-02    0.627E-03
DAV:  17    -0.134402514483E+04   -0.12094E-05   -0.16175E-05  2128   0.801E-03    0.330E-03
DAV:  18    -0.134402514489E+04   -0.55428E-07   -0.12133E-06  1048   0.380E-03
   2 F= -.13440251E+04 E0= -.13440251E+04  d E =-.221370E+02
 BRION: g(F)=  0.350E+02 g(S)=  0.000E+00 retain N=  1 mean eig= 0.60
 eig:   0.601
 bond charge predicted
       N       E                     dE             d eps       ncg     rms          rms(c)
DAV:   1    -0.133396818966E+04    0.10057E+02   -0.25204E+03  1432   0.704E+01    0.146E+01
DAV:   2    -0.135184527343E+04   -0.17877E+02   -0.21232E+02  2464   0.311E+01    0.125E+01
DAV:   3    -0.135221171206E+04   -0.36644E+00   -0.15969E+01  2592   0.956E+00    0.997E+00
DAV:   4    -0.135148083812E+04    0.73087E+00   -0.53737E+00  2336   0.428E+00    0.555E+00
DAV:   5    -0.135143876157E+04    0.42077E-01   -0.24757E+00  2240   0.313E+00    0.415E+00
DAV:   6    -0.135118151827E+04    0.25724E+00   -0.21510E+00  2456   0.282E+00    0.166E+00
DAV:   7    -0.135120447954E+04   -0.22961E-01   -0.81728E-01  2496   0.160E+00    0.922E-01
DAV:   8    -0.135119942780E+04    0.50517E-02   -0.11681E-01  2624   0.739E-01    0.424E-01
DAV:   9    -0.135120100361E+04   -0.15758E-02   -0.34695E-02  2616   0.347E-01    0.334E-01
DAV:  10    -0.135120025203E+04    0.75158E-03   -0.79468E-03  2544   0.211E-01    0.175E-01
DAV:  11    -0.135120044400E+04   -0.19197E-03   -0.81628E-03  2536   0.148E-01    0.908E-02
DAV:  12    -0.135120039728E+04    0.46718E-04   -0.10415E-03  2600   0.740E-02    0.447E-02
DAV:  13    -0.135120043248E+04   -0.35203E-04   -0.70998E-04  2552   0.454E-02    0.309E-02
DAV:  14    -0.135120042671E+04    0.57712E-05   -0.16985E-04  2592   0.288E-02    0.126E-02
DAV:  15    -0.135120043216E+04   -0.54492E-05   -0.73530E-05  2560   0.169E-02    0.755E-03
DAV:  16    -0.135120043353E+04   -0.13696E-05   -0.13382E-05  1976   0.796E-03    0.709E-03
DAV:  17    -0.135120043270E+04    0.82760E-06   -0.30978E-06  1152   0.587E-03
   3 F= -.13512004E+04 E0= -.13512004E+04  d E =-.717529E+01
 BRION: g(F)=  0.696E+01 g(S)=  0.000E+00 retain N=  2 mean eig= 1.11
 eig:   0.438  1.785
 bond charge predicted
       N       E                     dE             d eps       ncg     rms          rms(c)
DAV:   1    -0.135273524924E+04   -0.15348E+01   -0.36645E+02  1376   0.277E+01    0.516E+00
DAV:   2    -0.135461417336E+04   -0.18789E+01   -0.20839E+01  2296   0.105E+01    0.248E+00
DAV:   3    -0.135466393041E+04   -0.49757E-01   -0.16345E+00  2616   0.241E+00    0.207E+00
DAV:   4    -0.135460339401E+04    0.60536E-01   -0.39954E-01  2584   0.134E+00    0.103E+00
DAV:   5    -0.135459641262E+04    0.69814E-02   -0.15092E-01  2400   0.802E-01    0.684E-01
DAV:   6    -0.135459402495E+04    0.23877E-02   -0.85727E-02  2568   0.568E-01    0.392E-01
DAV:   7    -0.135459378448E+04    0.24047E-03   -0.29262E-02  2512   0.324E-01    0.263E-01
DAV:   8    -0.135459350874E+04    0.27573E-03   -0.69569E-03  2616   0.163E-01    0.137E-01
DAV:   9    -0.135459343216E+04    0.76583E-04   -0.22494E-03  2608   0.947E-02    0.859E-02
DAV:  10    -0.135459352391E+04   -0.91750E-04   -0.12479E-03  2312   0.657E-02    0.841E-02
DAV:  11    -0.135459344237E+04    0.81546E-04   -0.63179E-04  2512   0.474E-02    0.338E-02
DAV:  12    -0.135459344826E+04   -0.58992E-05   -0.31200E-04  2512   0.327E-02    0.227E-02
DAV:  13    -0.135459344725E+04    0.10118E-05   -0.64586E-05  2488   0.175E-02    0.144E-02
DAV:  14    -0.135459344706E+04    0.19303E-06   -0.32037E-05  2232   0.955E-03    0.557E-03
DAV:  15    -0.135459344708E+04   -0.22177E-07   -0.36468E-06  1152   0.589E-03
   4 F= -.13545934E+04 E0= -.13545934E+04  d E =-.339301E+01
 BRION: g(F)=  0.230E+01 g(S)=  0.000E+00 retain N=  3 mean eig= 1.18
 eig:   2.973  0.522  0.050
 bond charge predicted
       N       E                     dE             d eps       ncg     rms          rms(c)
DAV:   1    -0.135544687208E+04   -0.85343E+00   -0.23476E+02  1376   0.220E+01    0.326E+00
DAV:   2    -0.135659698943E+04   -0.11501E+01   -0.12372E+01  2304   0.848E+00    0.156E+00
DAV:   3    -0.135664330070E+04   -0.46311E-01   -0.93869E-01  2576   0.171E+00    0.129E+00
DAV:   4    -0.135661651852E+04    0.26782E-01   -0.14076E-01  2544   0.841E-01    0.762E-01
DAV:   5    -0.135660720943E+04    0.93091E-02   -0.77155E-02  2320   0.532E-01    0.369E-01
DAV:   6    -0.135660823746E+04   -0.10280E-02   -0.33289E-02  2584   0.361E-01    0.292E-01
DAV:   7    -0.135660776961E+04    0.46785E-03   -0.17414E-02  2472   0.238E-01    0.173E-01
DAV:   8    -0.135660777354E+04   -0.39278E-05   -0.44677E-03  2544   0.134E-01    0.976E-02
DAV:   9    -0.135660772563E+04    0.47908E-04   -0.97039E-04  2608   0.662E-02    0.675E-02
DAV:  10    -0.135660778512E+04   -0.59486E-04   -0.94432E-04  2328   0.498E-02    0.579E-02
DAV:  11    -0.135660773292E+04    0.52196E-04   -0.31923E-04  2512   0.388E-02    0.219E-02
DAV:  12    -0.135660774637E+04   -0.13446E-04   -0.24457E-04  2464   0.265E-02    0.219E-02
DAV:  13    -0.135660774002E+04    0.63477E-05   -0.47285E-05  2280   0.149E-02    0.906E-03
DAV:  14    -0.135660774083E+04   -0.81000E-06   -0.19625E-05  2056   0.821E-03    0.331E-03
DAV:  15    -0.135660774103E+04   -0.20176E-06   -0.12821E-06  1016   0.451E-03
   5 F= -.13566077E+04 E0= -.13566077E+04  d E =-.201429E+01
 BRION: g(F)=  0.126E+01 g(S)=  0.000E+00 retain N=  4 mean eig= 1.56
 eig:   2.361  2.361  0.760  0.760
 bond charge predicted
       N       E                     dE             d eps       ncg     rms          rms(c)
DAV:   1    -0.135711061053E+04   -0.50287E+00   -0.25680E+02  1368   0.231E+01    0.297E+00
DAV:   2    -0.135836607534E+04   -0.12555E+01   -0.13180E+01  2288   0.866E+00    0.151E+00
DAV:   3    -0.135843160666E+04   -0.65531E-01   -0.10075E+00  2592   0.172E+00    0.119E+00
DAV:   4    -0.135841018436E+04    0.21422E-01   -0.11748E-01  2568   0.796E-01    0.745E-01
DAV:   5    -0.135840061604E+04    0.95683E-02   -0.64114E-02  2320   0.526E-01    0.306E-01
DAV:   6    -0.135840261963E+04   -0.20036E-02   -0.30747E-02  2568   0.344E-01    0.266E-01
DAV:   7    -0.135840232222E+04    0.29741E-03   -0.10514E-02  2568   0.200E-01    0.169E-01
DAV:   8    -0.135840218913E+04    0.13309E-03   -0.42056E-03  2608   0.125E-01    0.820E-02
DAV:   9    -0.135840216837E+04    0.20764E-04   -0.66576E-04  2544   0.608E-02    0.596E-02
DAV:  10    -0.135840218613E+04   -0.17755E-04   -0.59835E-04  2344   0.449E-02    0.378E-02
DAV:  11    -0.135840217438E+04    0.11744E-04   -0.14567E-04  2528   0.303E-02    0.185E-02
DAV:  12    -0.135840218289E+04   -0.85063E-05   -0.13521E-04  2480   0.187E-02    0.195E-02
DAV:  13    -0.135840217754E+04    0.53447E-05   -0.29723E-05  2216   0.116E-02    0.883E-03
DAV:  14    -0.135840217780E+04   -0.25758E-06   -0.15203E-05  2024   0.743E-03    0.278E-03
DAV:  15    -0.135840217800E+04   -0.20153E-06   -0.12224E-06  1008   0.440E-03
   6 F= -.13584022E+04 E0= -.13584022E+04  d E =-.179444E+01
 BRION: g(F)=  0.824E+00 g(S)=  0.000E+00 retain N=  5 mean eig= 1.66
 eig:   2.539  2.539  1.256  1.256  0.692
 bond charge predicted
       N       E                     dE             d eps       ncg     rms          rms(c)
DAV:   1    -0.135886517128E+04   -0.46299E+00   -0.81164E+01  1384   0.130E+01    0.167E+00
DAV:   2    -0.135927828887E+04   -0.41312E+00   -0.43922E+00  2296   0.502E+00    0.854E-01
DAV:   3    -0.135930154680E+04   -0.23258E-01   -0.35625E-01  2616   0.100E+00    0.692E-01
DAV:   4    -0.135929490384E+04    0.66430E-02   -0.39958E-02  2608   0.477E-01    0.437E-01
DAV:   5    -0.135929182022E+04    0.30836E-02   -0.21410E-02  2336   0.284E-01    0.178E-01
DAV:   6    -0.135929234417E+04   -0.52395E-03   -0.91606E-03  2544   0.187E-01    0.144E-01
DAV:   7    -0.135929230067E+04    0.43495E-04   -0.41816E-03  2552   0.122E-01    0.916E-02
DAV:   8    -0.135929228992E+04    0.10754E-04   -0.13631E-03  2616   0.732E-02    0.525E-02
DAV:   9    -0.135929227615E+04    0.13768E-04   -0.25437E-04  2568   0.358E-02    0.385E-02
DAV:  10    -0.135929228722E+04   -0.11069E-04   -0.27572E-04  2384   0.279E-02    0.263E-02
DAV:  11    -0.135929227941E+04    0.78100E-05   -0.80819E-05  2472   0.206E-02    0.987E-03
DAV:  12    -0.135929228230E+04   -0.28927E-05   -0.39212E-05  2320   0.119E-02    0.976E-03
DAV:  13    -0.135929228107E+04    0.12350E-05   -0.64738E-06  1456   0.653E-03    0.463E-03
DAV:  14    -0.135929228147E+04   -0.40175E-06   -0.86939E-06  1600   0.646E-03
   7 F= -.13592923E+04 E0= -.13592923E+04  d E =-.890103E+00
 BRION: g(F)=  0.561E+00 g(S)=  0.000E+00 retain N=  6 mean eig= 2.14
 eig:   4.074  4.074  1.593  1.593  0.760  0.760
 bond charge predicted
       N       E                     dE             d eps       ncg     rms          rms(c)
DAV:   1    -0.135957934911E+04   -0.28707E+00   -0.12923E+02  1400   0.163E+01    0.203E+00
DAV:   2    -0.136025742197E+04   -0.67807E+00   -0.71472E+00  2296   0.648E+00    0.103E+00
DAV:   3    -0.136029667841E+04   -0.39256E-01   -0.56643E-01  2624   0.125E+00    0.821E-01
DAV:   4    -0.136028687951E+04    0.97989E-02   -0.59221E-02  2616   0.593E-01    0.541E-01
DAV:   5    -0.136028076069E+04    0.61188E-02   -0.28295E-02  2384   0.361E-01    0.212E-01
DAV:   6    -0.136028171718E+04   -0.95649E-03   -0.17587E-02  2480   0.255E-01    0.176E-01
DAV:   7    -0.136028168690E+04    0.30289E-04   -0.66799E-03  2456   0.157E-01    0.131E-01
DAV:   8    -0.136028164339E+04    0.43508E-04   -0.27170E-03  2616   0.966E-02    0.688E-02
DAV:   9    -0.136028160447E+04    0.38914E-04   -0.57210E-04  2544   0.512E-02    0.472E-02
DAV:  10    -0.136028161164E+04   -0.71688E-05   -0.32608E-04  2576   0.344E-02    0.295E-02
DAV:  11    -0.136028160837E+04    0.32689E-05   -0.11692E-04  2488   0.238E-02    0.143E-02
DAV:  12    -0.136028161107E+04   -0.26968E-05   -0.49157E-05  2368   0.152E-02    0.147E-02
DAV:  13    -0.136028160897E+04    0.21044E-05   -0.29833E-05  2168   0.101E-02    0.695E-03
DAV:  14    -0.136028160915E+04   -0.18787E-06   -0.10545E-05  1752   0.632E-03    0.370E-03
DAV:  15    -0.136028160921E+04   -0.56825E-07   -0.92957E-07   992   0.385E-03
   8 F= -.13602816E+04 E0= -.13602816E+04  d E =-.989328E+00
 BRION: g(F)=  0.397E+00 g(S)=  0.000E+00 retain N=  7 mean eig= 2.59
 eig:   5.153  5.153  2.543  2.543  1.002  1.002  0.757
 bond charge predicted
       N       E                     dE             d eps       ncg     rms          rms(c)
DAV:   1    -0.136052048554E+04   -0.23888E+00   -0.84615E+01  1392   0.131E+01    0.159E+00
DAV:   2    -0.136096120330E+04   -0.44072E+00   -0.46734E+00  2288   0.519E+00    0.812E-01
DAV:   3    -0.136098723393E+04   -0.26031E-01   -0.37359E-01  2600   0.101E+00    0.659E-01
DAV:   4    -0.136098127666E+04    0.59573E-02   -0.38078E-02  2592   0.470E-01    0.445E-01
DAV:   5    -0.136097683314E+04    0.44435E-02   -0.18448E-02  2352   0.288E-01    0.178E-01
DAV:   6    -0.136097735602E+04   -0.52288E-03   -0.12132E-02  2456   0.212E-01    0.145E-01
DAV:   7    -0.136097735768E+04   -0.16559E-05   -0.48785E-03  2472   0.132E-01    0.109E-01
DAV:   8    -0.136097732958E+04    0.28099E-04   -0.19998E-03  2592   0.824E-02    0.573E-02
DAV:   9    -0.136097730165E+04    0.27930E-04   -0.41865E-04  2432   0.434E-02    0.398E-02
DAV:  10    -0.136097730532E+04   -0.36654E-05   -0.22174E-04  2472   0.280E-02    0.246E-02
DAV:  11    -0.136097730424E+04    0.10748E-05   -0.76321E-05  2440   0.195E-02    0.133E-02
DAV:  12    -0.136097730588E+04   -0.16332E-05   -0.40192E-05  2344   0.134E-02    0.137E-02
DAV:  13    -0.136097730390E+04    0.19735E-05   -0.23346E-05  2056   0.904E-03    0.652E-03
DAV:  14    -0.136097730397E+04   -0.66313E-07   -0.93884E-06  1760   0.615E-03
   9 F= -.13609773E+04 E0= -.13609773E+04  d E =-.695695E+00
 BRION: g(F)=  0.278E+00 g(S)=  0.000E+00 retain N=  8 mean eig= 3.28
 eig:   7.857  7.857  2.893  2.893  1.533  1.533  0.827  0.827
 bond charge predicted
       N       E                     dE             d eps       ncg     rms          rms(c)
DAV:   1    -0.136107871199E+04   -0.10141E+00   -0.10368E+02  1400   0.146E+01    0.171E+00
DAV:   2    -0.136162142572E+04   -0.54271E+00   -0.57713E+00  2296   0.581E+00    0.885E-01
DAV:   3    -0.136165385205E+04   -0.32426E-01   -0.46454E-01  2616   0.111E+00    0.724E-01
DAV:   4    -0.136164716090E+04    0.66911E-02   -0.45648E-02  2616   0.521E-01    0.502E-01
DAV:   5    -0.136164136838E+04    0.57925E-02   -0.20564E-02  2392   0.295E-01    0.216E-01
DAV:   6    -0.136164150671E+04   -0.13833E-03   -0.14162E-02  2368   0.227E-01    0.144E-01
DAV:   7    -0.136164163221E+04   -0.12549E-03   -0.65139E-03  2488   0.151E-01    0.118E-01
DAV:   8    -0.136164160098E+04    0.31231E-04   -0.23214E-03  2600   0.933E-02    0.721E-02
DAV:   9    -0.136164155809E+04    0.42889E-04   -0.62957E-04  2544   0.497E-02    0.449E-02
DAV:  10    -0.136164156836E+04   -0.10269E-04   -0.26247E-04  2576   0.303E-02    0.293E-02
DAV:  11    -0.136164157026E+04   -0.19030E-05   -0.10349E-04  2448   0.212E-02    0.203E-02
DAV:  12    -0.136164156642E+04    0.38358E-05   -0.55955E-05  2328   0.165E-02    0.156E-02
DAV:  13    -0.136164156521E+04    0.12190E-05   -0.40342E-05  2288   0.113E-02    0.776E-03
DAV:  14    -0.136164156515E+04    0.50917E-07   -0.10476E-05  1744   0.626E-03    0.308E-03
DAV:  15    -0.136164156520E+04   -0.46639E-07   -0.12409E-06   976   0.398E-03
  10 F= -.13616416E+04 E0= -.13616416E+04  d E =-.664261E+00
 BRION: g(F)=  0.197E+00 g(S)=  0.000E+00 retain N=  6 mean eig= 3.74
 eig:   7.451  7.451  2.496  2.496  1.261  1.261
 bond charge predicted
       N       E                     dE             d eps       ncg     rms          rms(c)
DAV:   1    -0.136168505664E+04   -0.43491E-01   -0.82004E+01  1392   0.130E+01    0.153E+00
DAV:   2    -0.136211309099E+04   -0.42803E+00   -0.45369E+00  2296   0.515E+00    0.791E-01
DAV:   3    -0.136213696225E+04   -0.23871E-01   -0.35584E-01  2608   0.992E-01    0.637E-01
DAV:   4    -0.136213094379E+04    0.60185E-02   -0.36187E-02  2600   0.458E-01    0.436E-01
DAV:   5    -0.136212621574E+04    0.47280E-02   -0.15840E-02  2384   0.260E-01    0.185E-01
DAV:   6    -0.136212629954E+04   -0.83798E-04   -0.10792E-02  2376   0.195E-01    0.116E-01
DAV:   7    -0.136212641529E+04   -0.11575E-03   -0.46928E-03  2424   0.128E-01    0.969E-02
DAV:   8    -0.136212640334E+04    0.11957E-04   -0.16219E-03  2616   0.771E-02    0.610E-02
DAV:   9    -0.136212637313E+04    0.30209E-04   -0.46263E-04  2528   0.431E-02    0.377E-02
DAV:  10    -0.136212638046E+04   -0.73365E-05   -0.19248E-04  2568   0.264E-02    0.250E-02
DAV:  11    -0.136212638108E+04   -0.61281E-06   -0.75430E-05  2440   0.180E-02    0.156E-02
DAV:  12    -0.136212637905E+04    0.20241E-05   -0.40782E-05  2312   0.142E-02    0.117E-02
DAV:  13    -0.136212637871E+04    0.34255E-06   -0.26683E-05  2256   0.939E-03    0.669E-03
DAV:  14    -0.136212637860E+04    0.10643E-06   -0.77175E-06  1632   0.564E-03
  11 F= -.13621264E+04 E0= -.13621264E+04  d E =-.484813E+00
 BRION: g(F)=  0.146E+00 g(S)=  0.000E+00 retain N=  4 mean eig= 4.71
 eig:   7.542  7.542  1.868  1.868
 bond charge predicted
       N       E                     dE             d eps       ncg     rms          rms(c)
DAV:   1    -0.136216584360E+04   -0.39465E-01   -0.57206E+01  1384   0.108E+01    0.127E+00
DAV:   2    -0.136246238630E+04   -0.29654E+00   -0.31398E+00  2304   0.429E+00    0.662E-01
DAV:   3    -0.136247842717E+04   -0.16041E-01   -0.24418E-01  2616   0.813E-01    0.525E-01
DAV:   4    -0.136247372074E+04    0.47064E-02   -0.25610E-02  2584   0.380E-01    0.348E-01
DAV:   5    -0.136247066852E+04    0.30522E-02   -0.10637E-02  2376   0.217E-01    0.141E-01
DAV:   6    -0.136247079081E+04   -0.12228E-03   -0.70204E-03  2392   0.159E-01    0.894E-02
DAV:   7    -0.136247087179E+04   -0.80984E-04   -0.29740E-03  2376   0.103E-01    0.740E-02
DAV:   8    -0.136247086724E+04    0.45544E-05   -0.89109E-04  2624   0.565E-02    0.430E-02
DAV:   9    -0.136247085757E+04    0.96705E-05   -0.27659E-04  2584   0.338E-02    0.280E-02
DAV:  10    -0.136247086241E+04   -0.48437E-05   -0.11497E-04  2568   0.215E-02    0.204E-02
DAV:  11    -0.136247086042E+04    0.19953E-05   -0.52245E-05  2432   0.147E-02    0.931E-03
DAV:  12    -0.136247086077E+04   -0.35675E-06   -0.21793E-05  2128   0.103E-02    0.818E-03
DAV:  13    -0.136247086033E+04    0.43835E-06   -0.97226E-06  1688   0.644E-03
  12 F= -.13624709E+04 E0= -.13624709E+04  d E =-.344482E+00
 BRION: g(F)=  0.116E+00 g(S)=  0.000E+00 retain N=  3 mean eig= 5.10
 eig:   6.723  6.723  1.854
 bond charge predicted
       N       E                     dE             d eps       ncg     rms          rms(c)
DAV:   1    -0.136251848523E+04   -0.47624E-01   -0.33624E+01  1384   0.836E+00    0.973E-01
DAV:   2    -0.136269308961E+04   -0.17460E+00   -0.18597E+00  2304   0.330E+00    0.504E-01
DAV:   3    -0.136270315305E+04   -0.10063E-01   -0.14818E-01  2584   0.640E-01    0.408E-01
DAV:   4    -0.136270089611E+04    0.22569E-02   -0.15273E-02  2592   0.293E-01    0.282E-01
DAV:   5    -0.136269899851E+04    0.18976E-02   -0.71880E-03  2352   0.166E-01    0.118E-01
DAV:   6    -0.136269906465E+04   -0.66133E-04   -0.42765E-03  2368   0.125E-01    0.831E-02
DAV:   7    -0.136269909719E+04   -0.32547E-04   -0.22377E-03  2424   0.852E-02    0.635E-02
DAV:   8    -0.136269909071E+04    0.64819E-05   -0.73949E-04  2576   0.537E-02    0.408E-02
DAV:   9    -0.136269908160E+04    0.91085E-05   -0.19322E-04  2504   0.287E-02    0.281E-02
DAV:  10    -0.136269908294E+04   -0.13390E-05   -0.78198E-05  2568   0.166E-02    0.174E-02
DAV:  11    -0.136269908366E+04   -0.71723E-06   -0.33221E-05  2360   0.121E-02    0.113E-02
DAV:  12    -0.136269908257E+04    0.10904E-05   -0.19880E-05  2152   0.975E-03    0.831E-03
DAV:  13    -0.136269908229E+04    0.28205E-06   -0.10401E-05  1776   0.638E-03    0.472E-03
DAV:  14    -0.136269908205E+04    0.23389E-06   -0.23635E-06  1048   0.455E-03
  13 F= -.13626991E+04 E0= -.13626991E+04  d E =-.228222E+00
 BRION: g(F)=  0.972E-01 g(S)=  0.000E+00 retain N=  3 mean eig= 4.76
 eig:   6.318  6.318  1.651
 bond charge predicted
       N       E                     dE             d eps       ncg     rms          rms(c)
DAV:   1    -0.136276405473E+04   -0.64972E-01   -0.12092E+01  1368   0.499E+00    0.569E-01
DAV:   2    -0.136282474500E+04   -0.60690E-01   -0.63881E-01  2304   0.193E+00    0.290E-01
DAV:   3    -0.136282824400E+04   -0.34990E-02   -0.49967E-02  2592   0.367E-01    0.234E-01
DAV:   4    -0.136282750493E+04    0.73907E-03   -0.45937E-03  2608   0.162E-01    0.169E-01
DAV:   5    -0.136282669308E+04    0.81185E-03   -0.26168E-03  2240   0.103E-01    0.655E-02
DAV:   6    -0.136282675721E+04   -0.64130E-04   -0.18499E-03  2376   0.805E-02    0.546E-02
DAV:   7    -0.136282675717E+04    0.30792E-07   -0.77747E-04  2376   0.496E-02    0.395E-02
DAV:   8    -0.136282674979E+04    0.73813E-05   -0.24905E-04  2536   0.311E-02    0.220E-02
DAV:   9    -0.136282674656E+04    0.32370E-05   -0.59477E-05  2328   0.161E-02    0.148E-02
DAV:  10    -0.136282674726E+04   -0.70051E-06   -0.27939E-05  2320   0.990E-03    0.871E-03
DAV:  11    -0.136282674681E+04    0.44980E-06   -0.48444E-06  1240   0.708E-03
  14 F= -.13628267E+04 E0= -.13628267E+04  d E =-.127665E+00
 BRION: g(F)=  0.867E-01 g(S)=  0.000E+00 retain N=  3 mean eig= 3.69
 eig:   4.858  4.858  1.357
 bond charge predicted
       N       E                     dE             d eps       ncg     rms          rms(c)
DAV:   1    -0.136287940855E+04   -0.52661E-01   -0.23817E+01  1368   0.696E+00    0.769E-01
DAV:   2    -0.136299828727E+04   -0.11888E+00   -0.12449E+00  2304   0.268E+00    0.394E-01
DAV:   3    -0.136300515622E+04   -0.68690E-02   -0.95482E-02  2600   0.503E-01    0.318E-01
DAV:   4    -0.136300402175E+04    0.11345E-02   -0.83510E-03  2616   0.217E-01    0.239E-01
DAV:   5    -0.136300233245E+04    0.16893E-02   -0.41278E-03  2272   0.135E-01    0.102E-01
DAV:   6    -0.136300232598E+04    0.64711E-05   -0.37503E-03  2288   0.113E-01    0.624E-02
DAV:   7    -0.136300237715E+04   -0.51172E-04   -0.16198E-03  2416   0.710E-02    0.545E-02
DAV:   8    -0.136300236268E+04    0.14472E-04   -0.37297E-04  2544   0.413E-02    0.327E-02
DAV:   9    -0.136300235181E+04    0.10876E-04   -0.16386E-04  2456   0.242E-02    0.175E-02
DAV:  10    -0.136300235650E+04   -0.46926E-05   -0.54145E-05  2464   0.146E-02    0.132E-02
DAV:  11    -0.136300235533E+04    0.11659E-05   -0.17421E-05  1952   0.945E-03    0.714E-03
DAV:  12    -0.136300235538E+04   -0.41997E-07   -0.11665E-05  1744   0.764E-03    0.613E-03
DAV:  13    -0.136300235492E+04    0.45575E-06   -0.29886E-06  1120   0.528E-03
  15 F= -.13630024E+04 E0= -.13630024E+04  d E =-.175608E+00
 BRION: g(F)=  0.802E-01 g(S)=  0.000E+00 retain N=  3 mean eig= 3.74
 eig:   4.893  4.893  1.425
 bond charge predicted
       N       E                     dE             d eps       ncg     rms          rms(c)
DAV:   1    -0.136302360500E+04   -0.21250E-01   -0.35407E+01  1376   0.849E+00    0.936E-01
DAV:   2    -0.136320019490E+04   -0.17659E+00   -0.18513E+00  2312   0.327E+00    0.477E-01
DAV:   3    -0.136321061731E+04   -0.10422E-01   -0.14367E-01  2592   0.616E-01    0.386E-01
DAV:   4    -0.136320897753E+04    0.16398E-02   -0.12532E-02  2616   0.266E-01    0.290E-01
DAV:   5    -0.136320656252E+04    0.24150E-02   -0.63732E-03  2256   0.163E-01    0.123E-01
DAV:   6    -0.136320659244E+04   -0.29915E-04   -0.53251E-03  2312   0.131E-01    0.806E-02
DAV:   7    -0.136320663682E+04   -0.44384E-04   -0.22398E-03  2432   0.847E-02    0.657E-02
DAV:   8    -0.136320661388E+04    0.22940E-04   -0.60173E-04  2544   0.517E-02    0.399E-02
DAV:   9    -0.136320660002E+04    0.13865E-04   -0.20972E-04  2344   0.279E-02    0.229E-02
DAV:  10    -0.136320660499E+04   -0.49716E-05   -0.78120E-05  2432   0.167E-02    0.143E-02
DAV:  11    -0.136320660491E+04    0.80661E-07   -0.20673E-05  2168   0.106E-02    0.879E-03
DAV:  12    -0.136320660477E+04    0.13434E-06   -0.15910E-05  1880   0.810E-03    0.761E-03
DAV:  13    -0.136320660423E+04    0.54062E-06   -0.57434E-06  1488   0.579E-03
  16 F= -.13632066E+04 E0= -.13632066E+04  d E =-.204249E+00
 BRION: g(F)=  0.731E-01 g(S)=  0.000E+00 retain N=  3 mean eig= 4.06
 eig:   1.432  5.367  5.367
 bond charge predicted
       N       E                     dE             d eps       ncg     rms          rms(c)
DAV:   1    -0.136325677266E+04   -0.50168E-01   -0.18710E+01  1368   0.616E+00    0.680E-01
DAV:   2    -0.136334968417E+04   -0.92912E-01   -0.97295E-01  2304   0.237E+00    0.344E-01
DAV:   3    -0.136335526034E+04   -0.55762E-02   -0.75913E-02  2584   0.451E-01    0.278E-01
DAV:   4    -0.136335444277E+04    0.81757E-03   -0.64692E-03  2600   0.192E-01    0.212E-01
DAV:   5    -0.136335308885E+04    0.13539E-02   -0.34565E-03  2208   0.124E-01    0.885E-02
DAV:   6    -0.136335312283E+04   -0.33981E-04   -0.30841E-03  2312   0.101E-01    0.615E-02
DAV:   7    -0.136335314550E+04   -0.22665E-04   -0.11791E-03  2448   0.617E-02    0.500E-02
DAV:   8    -0.136335313264E+04    0.12852E-04   -0.31700E-04  2520   0.372E-02    0.278E-02
DAV:   9    -0.136335312347E+04    0.91730E-05   -0.11914E-04  2240   0.211E-02    0.155E-02
DAV:  10    -0.136335312699E+04   -0.35215E-05   -0.41121E-05  2312   0.123E-02    0.112E-02
DAV:  11    -0.136335312558E+04    0.14072E-05   -0.99922E-06  1608   0.809E-03    0.519E-03
DAV:  12    -0.136335312607E+04   -0.48810E-06   -0.95669E-06  1640   0.692E-03
  17 F= -.13633531E+04 E0= -.13633531E+04  d E =-.146522E+00
 BRION: g(F)=  0.677E-01 g(S)=  0.000E+00 retain N=  3 mean eig= 5.04
 eig:   6.682  6.682  1.756
 bond charge predicted
       N       E                     dE             d eps       ncg     rms          rms(c)
DAV:   1    -0.136340942279E+04   -0.56297E-01   -0.16462E+01  1360   0.575E+00    0.632E-01
DAV:   2    -0.136349091209E+04   -0.81489E-01   -0.85341E-01  2272   0.220E+00    0.319E-01
DAV:   3    -0.136349591755E+04   -0.50055E-02   -0.67477E-02  2600   0.434E-01    0.260E-01
DAV:   4    -0.136349525565E+04    0.66190E-03   -0.55658E-03  2616   0.178E-01    0.200E-01
DAV:   5    -0.136349401210E+04    0.12435E-02   -0.29891E-03  2232   0.116E-01    0.844E-02
DAV:   6    -0.136349403258E+04   -0.20480E-04   -0.28290E-03  2280   0.967E-02    0.558E-02
DAV:   7    -0.136349405540E+04   -0.22813E-04   -0.10029E-03  2416   0.569E-02    0.456E-02
DAV:   8    -0.136349404931E+04    0.60872E-05   -0.26291E-04  2512   0.334E-02    0.268E-02
DAV:   9    -0.136349403876E+04    0.10550E-04   -0.11404E-04  2288   0.205E-02    0.140E-02
DAV:  10    -0.136349404252E+04   -0.37596E-05   -0.38242E-05  2320   0.119E-02    0.112E-02
DAV:  11    -0.136349404096E+04    0.15605E-05   -0.11084E-05  1672   0.785E-03    0.483E-03
DAV:  12    -0.136349404130E+04   -0.34388E-06   -0.69634E-06  1520   0.635E-03
  18 F= -.13634940E+04 E0= -.13634940E+04  d E =-.140915E+00
 BRION: g(F)=  0.648E-01 g(S)=  0.000E+00 retain N=  3 mean eig= 4.74
 eig:   6.221  6.221  1.782
 bond charge predicted
       N       E                     dE             d eps       ncg     rms          rms(c)
DAV:   1    -0.136353009408E+04   -0.36053E-01   -0.27321E+01  1368   0.743E+00    0.825E-01
DAV:   2    -0.136366618159E+04   -0.13609E+00   -0.14303E+00  2288   0.287E+00    0.415E-01
DAV:   3    -0.136367469405E+04   -0.85125E-02   -0.11460E-01  2592   0.564E-01    0.340E-01
DAV:   4    -0.136367351141E+04    0.11826E-02   -0.95266E-03  2600   0.235E-01    0.259E-01
DAV:   5    -0.136367153491E+04    0.19765E-02   -0.56454E-03  2240   0.152E-01    0.104E-01
DAV:   6    -0.136367165079E+04   -0.11589E-03   -0.44953E-03  2312   0.121E-01    0.831E-02
DAV:   7    -0.136367164622E+04    0.45766E-05   -0.16461E-03  2464   0.738E-02    0.610E-02
DAV:   8    -0.136367162537E+04    0.20847E-04   -0.52319E-04  2488   0.465E-02    0.320E-02
DAV:   9    -0.136367161703E+04    0.83447E-05   -0.14832E-04  2224   0.242E-02    0.197E-02
DAV:  10    -0.136367162043E+04   -0.33989E-05   -0.45133E-05  2368   0.130E-02    0.124E-02
DAV:  11    -0.136367161953E+04    0.89666E-06   -0.13238E-05  1896   0.858E-03    0.595E-03
DAV:  12    -0.136367161994E+04   -0.40814E-06   -0.94639E-06  1720   0.674E-03
  19 F= -.13636716E+04 E0= -.13636716E+04  d E =-.177579E+00
 BRION: g(F)=  0.606E-01 g(S)=  0.000E+00 retain N=  3 mean eig= 4.76
 eig:   6.294  6.294  1.694
 bond charge predicted
       N       E                     dE             d eps       ncg     rms          rms(c)
DAV:   1    -0.136370138350E+04   -0.29764E-01   -0.27725E+01  1360   0.747E+00    0.825E-01
DAV:   2    -0.136383939456E+04   -0.13801E+00   -0.14478E+00  2280   0.287E+00    0.417E-01
DAV:   3    -0.136384781525E+04   -0.84207E-02   -0.11448E-01  2592   0.569E-01    0.340E-01
DAV:   4    -0.136384662700E+04    0.11882E-02   -0.96487E-03  2608   0.234E-01    0.260E-01
DAV:   5    -0.136384454928E+04    0.20777E-02   -0.51946E-03  2256   0.152E-01    0.109E-01
DAV:   6    -0.136384459143E+04   -0.42145E-04   -0.47749E-03  2320   0.127E-01    0.752E-02
DAV:   7    -0.136384462327E+04   -0.31848E-04   -0.17541E-03  2408   0.755E-02    0.607E-02
DAV:   8    -0.136384460896E+04    0.14311E-04   -0.46877E-04  2528   0.447E-02    0.347E-02
DAV:   9    -0.136384459359E+04    0.15374E-04   -0.19024E-04  2328   0.264E-02    0.187E-02
DAV:  10    -0.136384459961E+04   -0.60217E-05   -0.62842E-05  2344   0.154E-02    0.141E-02
DAV:  11    -0.136384459778E+04    0.18260E-05   -0.20530E-05  2072   0.100E-02    0.690E-03
DAV:  12    -0.136384459821E+04   -0.42986E-06   -0.11301E-05  1800   0.734E-03    0.642E-03
DAV:  13    -0.136384459762E+04    0.59469E-06   -0.24954E-06  1048   0.503E-03
  20 F= -.13638446E+04 E0= -.13638446E+04  d E =-.172978E+00
 BRION: g(F)=  0.555E-01 g(S)=  0.000E+00 retain N=  3 mean eig= 5.13
 eig:   6.809  6.809  1.776
