 running on  160 total cores
 distrk:  each k-point on  160 cores,    1 groups
 distr:  one band on   20 cores,    8 groups
 using from now: INCAR     
 vasp.5.4.4.18Apr17-6-g9f103f2a35 (build May 01 2020 14:22:42) gamma-only       
  
 POSCAR found type information on POSCAR  O  La Zr Li Al
 POSCAR found :  5 types and     188 ions
 scaLAPACK will be used
 LDA part: xc-table for Pade appr. of Perdew
 POSCAR, INCAR and KPOINTS ok, starting setup
 FFT: planning ...
 WAVECAR not read
 WARNING: random wavefunctions but no delay for mixing, default for NELMDL
 entering main loop
       N       E                     dE             d eps       ncg     rms          rms(c)
DAV:   1     0.252746396074E+05    0.25275E+05   -0.42040E+05  1592   0.253E+03
DAV:   2     0.941124928417E+04   -0.15863E+05   -0.14701E+05  1440   0.707E+02
DAV:   3     0.268486747097E+04   -0.67264E+04   -0.61269E+04  1504   0.355E+02
DAV:   4    -0.381442103052E+03   -0.30663E+04   -0.28633E+04  2056   0.222E+02
DAV:   5    -0.141342998062E+04   -0.10320E+04   -0.99545E+03  2528   0.140E+02    0.117E+02
DAV:   6    -0.129468214644E+04    0.11875E+03   -0.14115E+03  2424   0.659E+01    0.502E+01
DAV:   7    -0.131824997790E+04   -0.23568E+02   -0.39723E+02  2576   0.344E+01    0.261E+01
DAV:   8    -0.132368827872E+04   -0.54383E+01   -0.20450E+02  2552   0.254E+01    0.222E+01
DAV:   9    -0.132170410210E+04    0.19842E+01   -0.30733E+01  2536   0.133E+01    0.115E+01
DAV:  10    -0.132059225310E+04    0.11118E+01   -0.22041E+01  2472   0.772E+00    0.668E+00
DAV:  11    -0.132104579442E+04   -0.45354E+00   -0.53591E+00  2584   0.426E+00    0.641E+00
DAV:  12    -0.132106583795E+04   -0.20044E-01   -0.14174E+00  2624   0.225E+00    0.582E+00
DAV:  13    -0.132095395164E+04    0.11189E+00   -0.11499E+00  2464   0.197E+00    0.427E+00
DAV:  14    -0.132102271932E+04   -0.68768E-01   -0.10453E+00  2376   0.171E+00    0.340E+00
DAV:  15    -0.132097344712E+04    0.49272E-01   -0.34989E-01  2400   0.122E+00    0.192E+00
DAV:  16    -0.132094787181E+04    0.25575E-01   -0.14984E-01  2488   0.686E-01    0.157E+00
DAV:  17    -0.132093566483E+04    0.12207E-01   -0.32961E-02  2488   0.322E-01    0.122E+00
DAV:  18    -0.132092319058E+04    0.12474E-01   -0.16831E-02  2544   0.251E-01    0.998E-01
DAV:  19    -0.132091475863E+04    0.84320E-02   -0.12708E-02  2480   0.199E-01    0.548E-01
DAV:  20    -0.132091378392E+04    0.97471E-03   -0.49065E-03  2472   0.120E-01    0.372E-01
DAV:  21    -0.132091314783E+04    0.63610E-03   -0.20369E-03  2496   0.784E-02    0.265E-01
DAV:  22    -0.132091262786E+04    0.51996E-03   -0.11047E-03  2496   0.567E-02    0.111E-01
DAV:  23    -0.132091261749E+04    0.10375E-04   -0.50651E-04  2520   0.359E-02    0.348E-02
DAV:  24    -0.132091263199E+04   -0.14500E-04   -0.12328E-04  2512   0.209E-02    0.209E-02
DAV:  25    -0.132091264003E+04   -0.80453E-05   -0.39588E-05  2360   0.115E-02    0.183E-02
DAV:  26    -0.132091263833E+04    0.17090E-05   -0.25182E-05  1536   0.959E-03    0.176E-02
DAV:  27    -0.132091263554E+04    0.27848E-05   -0.64132E-06  1256   0.637E-03    0.131E-02
DAV:  28    -0.132091263641E+04   -0.86671E-06   -0.62218E-06  1184   0.550E-03
   1 F= -.13209126E+04 E0= -.13208603E+04  d E =-.132091E+04
 BRION: g(F)=  0.689E+02 g(S)=  0.000E+00
 bond charge predicted
       N       E                     dE             d eps       ncg     rms          rms(c)
DAV:   1    -0.127689690154E+04    0.44016E+02   -0.85807E+03  1752   0.145E+02    0.290E+01
DAV:   2    -0.134480372346E+04   -0.67907E+02   -0.78879E+02  2568   0.666E+01    0.158E+01
DAV:   3    -0.134297038041E+04    0.18333E+01   -0.47119E+01  2616   0.176E+01    0.107E+01
DAV:   4    -0.134031147946E+04    0.26589E+01   -0.14841E+01  2504   0.816E+00    0.521E+00
DAV:   5    -0.133990986450E+04    0.40161E+00   -0.44595E+00  2576   0.495E+00    0.332E+00
DAV:   6    -0.133980589438E+04    0.10397E+00   -0.30978E+00  2600   0.325E+00    0.170E+00
DAV:   7    -0.133979917096E+04    0.67234E-02   -0.63687E-01  2536   0.185E+00    0.122E+00
DAV:   8    -0.133979681999E+04    0.23510E-02   -0.39535E-01  2600   0.107E+00    0.739E-01
DAV:   9    -0.133979427143E+04    0.25486E-02   -0.53271E-02  2576   0.591E-01    0.544E-01
DAV:  10    -0.133979186498E+04    0.24065E-02   -0.55216E-02  2592   0.415E-01    0.215E-01
DAV:  11    -0.133979288907E+04   -0.10241E-02   -0.12904E-02  2544   0.242E-01    0.184E-01
DAV:  12    -0.133979271603E+04    0.17304E-03   -0.32466E-03  2608   0.110E-01    0.946E-02
DAV:  13    -0.133979269421E+04    0.21817E-04   -0.17899E-03  2616   0.786E-02    0.267E-02
DAV:  14    -0.133979272062E+04   -0.26415E-04   -0.28393E-04  2608   0.378E-02    0.143E-02
DAV:  15    -0.133979272814E+04   -0.75154E-05   -0.62491E-05  2624   0.175E-02    0.983E-03
DAV:  16    -0.133979272913E+04   -0.99330E-06   -0.24845E-05  2488   0.103E-02    0.553E-03
DAV:  17    -0.133979273044E+04   -0.13080E-05   -0.66221E-06  1488   0.716E-03    0.286E-03
DAV:  18    -0.133979273055E+04   -0.10707E-06   -0.17998E-06  1016   0.488E-03
   2 F= -.13397927E+04 E0= -.13397927E+04  d E =-.188801E+02
 BRION: g(F)=  0.102E+03 g(S)=  0.000E+00 retain N=  1 mean eig= 0.43
 eig:   0.433
 bond charge predicted
       N       E                     dE             d eps       ncg     rms          rms(c)
DAV:   1    -0.132494198696E+04    0.14851E+02   -0.25648E+03  1392   0.624E+01    0.203E+01
DAV:   2    -0.135200149571E+04   -0.27060E+02   -0.34511E+02  2504   0.313E+01    0.170E+01
DAV:   3    -0.134937172912E+04    0.26298E+01   -0.26841E+01  2536   0.119E+01    0.120E+01
DAV:   4    -0.134783681388E+04    0.15349E+01   -0.25520E+01  2128   0.662E+00    0.534E+00
DAV:   5    -0.134814958153E+04   -0.31277E+00   -0.49462E+00  2352   0.401E+00    0.602E+00
DAV:   6    -0.134753733747E+04    0.61224E+00   -0.34374E+00  2520   0.292E+00    0.170E+00
DAV:   7    -0.134757715750E+04   -0.39820E-01   -0.12580E+00  2504   0.191E+00    0.120E+00
DAV:   8    -0.134756437963E+04    0.12778E-01   -0.17941E-01  2544   0.942E-01    0.744E-01
DAV:   9    -0.134756219832E+04    0.21813E-02   -0.79624E-02  2560   0.468E-01    0.313E-01
DAV:  10    -0.134756295293E+04   -0.75461E-03   -0.16112E-02  2568   0.243E-01    0.120E-01
DAV:  11    -0.134756309817E+04   -0.14524E-03   -0.31079E-03  2624   0.130E-01    0.900E-02
DAV:  12    -0.134756312654E+04   -0.28371E-04   -0.17225E-03  2552   0.824E-02    0.623E-02
DAV:  13    -0.134756313251E+04   -0.59726E-05   -0.64151E-04  2624   0.486E-02    0.393E-02
DAV:  14    -0.134756313117E+04    0.13413E-05   -0.28399E-04  2512   0.302E-02    0.188E-02
DAV:  15    -0.134756313092E+04    0.25722E-06   -0.56375E-05  2432   0.171E-02    0.116E-02
DAV:  16    -0.134756313189E+04   -0.97085E-06   -0.27025E-05  2464   0.980E-03    0.622E-03
DAV:  17    -0.134756313166E+04    0.22791E-06   -0.41084E-06  1352   0.567E-03
   3 F= -.13475631E+04 E0= -.13475631E+04  d E =-.777040E+01
 BRION: g(F)=  0.152E+02 g(S)=  0.000E+00 retain N=  2 mean eig= 1.31
 eig:   0.257  2.371
 bond charge predicted
       N       E                     dE             d eps       ncg     rms          rms(c)
DAV:   1    -0.134820060393E+04   -0.63747E+00   -0.65907E+02  1384   0.346E+01    0.790E+00
DAV:   2    -0.135189790573E+04   -0.36973E+01   -0.42516E+01  2264   0.139E+01    0.416E+00
DAV:   3    -0.135191459693E+04   -0.16691E-01   -0.33634E+00  2576   0.394E+00    0.337E+00
DAV:   4    -0.135177339271E+04    0.14120E+00   -0.10018E+00  2472   0.198E+00    0.165E+00
DAV:   5    -0.135176002717E+04    0.13366E-01   -0.33917E-01  2440   0.126E+00    0.112E+00
DAV:   6    -0.135174913740E+04    0.10890E-01   -0.27083E-01  2480   0.943E-01    0.583E-01
DAV:   7    -0.135175076961E+04   -0.16322E-02   -0.72495E-02  2512   0.507E-01    0.484E-01
DAV:   8    -0.135174898721E+04    0.17824E-02   -0.14930E-02  2616   0.241E-01    0.286E-01
DAV:   9    -0.135174849698E+04    0.49022E-03   -0.12725E-02  2400   0.188E-01    0.133E-01
DAV:  10    -0.135174860548E+04   -0.10849E-03   -0.32090E-03  2216   0.119E-01    0.117E-01
DAV:  11    -0.135174847573E+04    0.12974E-03   -0.12789E-03  2384   0.642E-02    0.558E-02
DAV:  12    -0.135174847609E+04   -0.36000E-06   -0.44447E-04  2560   0.365E-02    0.282E-02
DAV:  13    -0.135174848002E+04   -0.39249E-05   -0.14165E-04  2576   0.234E-02    0.162E-02
DAV:  14    -0.135174848105E+04   -0.10288E-05   -0.41331E-05  2496   0.128E-02    0.124E-02
DAV:  15    -0.135174848014E+04    0.90800E-06   -0.24515E-05  2176   0.898E-03    0.522E-03
DAV:  16    -0.135174848016E+04   -0.22745E-07   -0.35970E-06  1184   0.509E-03
   4 F= -.13517485E+04 E0= -.13517485E+04  d E =-.418535E+01
 BRION: g(F)=  0.474E+01 g(S)=  0.000E+00 retain N=  3 mean eig= 2.46
 eig:   6.506  0.432  0.432
 bond charge predicted
       N       E                     dE             d eps       ncg     rms          rms(c)
DAV:   1    -0.135263842846E+04   -0.88995E+00   -0.26166E+02  1376   0.220E+01    0.351E+00
DAV:   2    -0.135390150177E+04   -0.12631E+01   -0.13547E+01  2288   0.819E+00    0.180E+00
DAV:   3    -0.135391548689E+04   -0.13985E-01   -0.90342E-01  2616   0.179E+00    0.146E+00
DAV:   4    -0.135386452478E+04    0.50962E-01   -0.25083E-01  2512   0.103E+00    0.696E-01
DAV:   5    -0.135385951893E+04    0.50058E-02   -0.87041E-02  2480   0.599E-01    0.482E-01
DAV:   6    -0.135385859700E+04    0.92193E-03   -0.62867E-02  2544   0.446E-01    0.231E-01
DAV:   7    -0.135385857956E+04    0.17441E-04   -0.12538E-02  2344   0.226E-01    0.198E-01
DAV:   8    -0.135385841645E+04    0.16311E-03   -0.45389E-03  2392   0.109E-01    0.918E-02
DAV:   9    -0.135385842523E+04   -0.87794E-05   -0.18505E-03  2528   0.785E-02    0.614E-02
DAV:  10    -0.135385840371E+04    0.21519E-04   -0.56668E-04  2464   0.516E-02    0.392E-02
DAV:  11    -0.135385841416E+04   -0.10449E-04   -0.32255E-04  2504   0.324E-02    0.188E-02
DAV:  12    -0.135385841579E+04   -0.16354E-05   -0.70900E-05  2480   0.157E-02    0.101E-02
DAV:  13    -0.135385841747E+04   -0.16743E-05   -0.19899E-05  2344   0.951E-03    0.736E-03
DAV:  14    -0.135385841726E+04    0.20044E-06   -0.55882E-06  1416   0.589E-03
   5 F= -.13538584E+04 E0= -.13538584E+04  d E =-.210994E+01
 BRION: g(F)=  0.262E+01 g(S)=  0.000E+00 retain N=  4 mean eig= 1.96
 eig:   6.323  0.460  0.525  0.525
 bond charge predicted
       N       E                     dE             d eps       ncg     rms          rms(c)
DAV:   1    -0.135445219145E+04   -0.59377E+00   -0.15905E+02  1352   0.171E+01    0.242E+00
DAV:   2    -0.135519974599E+04   -0.74755E+00   -0.79273E+00  2296   0.620E+00    0.128E+00
DAV:   3    -0.135521510252E+04   -0.15357E-01   -0.53018E-01  2616   0.129E+00    0.101E+00
DAV:   4    -0.135519043450E+04    0.24668E-01   -0.10189E-01  2568   0.671E-01    0.518E-01
DAV:   5    -0.135518528301E+04    0.51515E-02   -0.38332E-02  2448   0.396E-01    0.257E-01
DAV:   6    -0.135518557943E+04   -0.29642E-03   -0.20716E-02  2568   0.269E-01    0.144E-01
DAV:   7    -0.135518563053E+04   -0.51099E-04   -0.46780E-03  2320   0.136E-01    0.116E-01
DAV:   8    -0.135518561321E+04    0.17316E-04   -0.17187E-03  2368   0.684E-02    0.564E-02
DAV:   9    -0.135518560347E+04    0.97467E-05   -0.44524E-04  2616   0.436E-02    0.384E-02
DAV:  10    -0.135518561027E+04   -0.68036E-05   -0.30615E-04  2576   0.339E-02    0.332E-02
DAV:  11    -0.135518560137E+04    0.89022E-05   -0.12931E-04  2512   0.225E-02    0.140E-02
DAV:  12    -0.135518560422E+04   -0.28525E-05   -0.59824E-05  2328   0.135E-02    0.977E-03
DAV:  13    -0.135518560345E+04    0.77361E-06   -0.55632E-06  1320   0.723E-03
   6 F= -.13551856E+04 E0= -.13551856E+04  d E =-.132719E+01
 BRION: g(F)=  0.153E+01 g(S)=  0.000E+00 retain N=  5 mean eig= 1.80
 eig:   5.435  1.783  0.650  0.650  0.474
 bond charge predicted
       N       E                     dE             d eps       ncg     rms          rms(c)
DAV:   1    -0.135539724090E+04   -0.21164E+00   -0.19303E+02  1360   0.190E+01    0.264E+00
DAV:   2    -0.135633058832E+04   -0.93335E+00   -0.97834E+00  2288   0.695E+00    0.142E+00
DAV:   3    -0.135635709248E+04   -0.26504E-01   -0.66156E-01  2616   0.141E+00    0.110E+00
DAV:   4    -0.135633056917E+04    0.26523E-01   -0.12873E-01  2504   0.749E-01    0.546E-01
DAV:   5    -0.135632739148E+04    0.31777E-02   -0.43115E-02  2496   0.412E-01    0.296E-01
DAV:   6    -0.135632778484E+04   -0.39336E-03   -0.19643E-02  2592   0.243E-01    0.143E-01
DAV:   7    -0.135632773337E+04    0.51467E-04   -0.39776E-03  2432   0.138E-01    0.101E-01
DAV:   8    -0.135632777620E+04   -0.42827E-04   -0.16777E-03  2496   0.687E-02    0.479E-02
DAV:   9    -0.135632777529E+04    0.90642E-06   -0.30178E-04  2616   0.403E-02    0.308E-02
DAV:  10    -0.135632778032E+04   -0.50279E-05   -0.17066E-04  2600   0.246E-02    0.175E-02
DAV:  11    -0.135632778145E+04   -0.11364E-05   -0.68212E-05  2552   0.168E-02    0.108E-02
DAV:  12    -0.135632778169E+04   -0.23576E-06   -0.18354E-05  2000   0.901E-03    0.772E-03
DAV:  13    -0.135632778152E+04    0.16855E-06   -0.94545E-06  1600   0.618E-03
   7 F= -.13563278E+04 E0= -.13563278E+04  d E =-.114218E+01
 BRION: g(F)=  0.528E+00 g(S)=  0.000E+00 retain N=  5 mean eig= 1.19
 eig:   2.479  2.479  0.181  0.181  0.632
 bond charge predicted
       N       E                     dE             d eps       ncg     rms          rms(c)
DAV:   1    -0.135658093357E+04   -0.25315E+00   -0.60097E+01  1376   0.111E+01    0.160E+00
DAV:   2    -0.135687681153E+04   -0.29588E+00   -0.31415E+00  2288   0.421E+00    0.766E-01
DAV:   3    -0.135689265526E+04   -0.15844E-01   -0.25213E-01  2600   0.871E-01    0.617E-01
DAV:   4    -0.135688695812E+04    0.56971E-02   -0.34719E-02  2528   0.427E-01    0.353E-01
DAV:   5    -0.135688537671E+04    0.15814E-02   -0.16544E-02  2416   0.264E-01    0.164E-01
DAV:   6    -0.135688578362E+04   -0.40691E-03   -0.75196E-03  2552   0.168E-01    0.131E-01
DAV:   7    -0.135688568742E+04    0.96199E-04   -0.25769E-03  2576   0.995E-02    0.849E-02
DAV:   8    -0.135688566410E+04    0.23327E-04   -0.10055E-03  2624   0.591E-02    0.445E-02
DAV:   9    -0.135688565476E+04    0.93342E-05   -0.16617E-04  2552   0.304E-02    0.298E-02
DAV:  10    -0.135688566248E+04   -0.77171E-05   -0.17316E-04  2288   0.227E-02    0.217E-02
DAV:  11    -0.135688565855E+04    0.39342E-05   -0.41166E-05  2440   0.151E-02    0.103E-02
DAV:  12    -0.135688565990E+04   -0.13533E-05   -0.31222E-05  2192   0.933E-03    0.901E-03
DAV:  13    -0.135688565863E+04    0.12714E-05   -0.41046E-06  1216   0.636E-03    0.492E-03
DAV:  14    -0.135688565945E+04   -0.82364E-06   -0.14929E-05  1608   0.737E-03    0.425E-03
DAV:  15    -0.135688565914E+04    0.31550E-06   -0.12621E-06   984   0.474E-03
   8 F= -.13568857E+04 E0= -.13568857E+04  d E =-.557878E+00
 BRION: g(F)=  0.416E+00 g(S)=  0.000E+00 retain N=  6 mean eig= 1.48
 eig:   3.339  3.339  0.277  0.277  0.833  0.833
 bond charge predicted
       N       E                     dE             d eps       ncg     rms          rms(c)
DAV:   1    -0.135710293173E+04   -0.21727E+00   -0.72473E+01  1376   0.123E+01    0.150E+00
DAV:   2    -0.135747037199E+04   -0.36744E+00   -0.38989E+00  2304   0.468E+00    0.750E-01
DAV:   3    -0.135749399599E+04   -0.23624E-01   -0.32093E-01  2600   0.955E-01    0.610E-01
DAV:   4    -0.135748999308E+04    0.40029E-02   -0.33082E-02  2624   0.443E-01    0.421E-01
DAV:   5    -0.135748671354E+04    0.32795E-02   -0.16606E-02  2376   0.262E-01    0.167E-01
DAV:   6    -0.135748720262E+04   -0.48907E-03   -0.92580E-03  2472   0.188E-01    0.142E-01
DAV:   7    -0.135748714968E+04    0.52933E-04   -0.40790E-03  2480   0.123E-01    0.951E-02
DAV:   8    -0.135748713345E+04    0.16230E-04   -0.16516E-03  2600   0.771E-02    0.523E-02
DAV:   9    -0.135748711964E+04    0.13815E-04   -0.27728E-04  2488   0.372E-02    0.385E-02
DAV:  10    -0.135748712102E+04   -0.13862E-05   -0.18180E-04  2560   0.241E-02    0.200E-02
DAV:  11    -0.135748712205E+04   -0.10238E-05   -0.52698E-05  2456   0.163E-02    0.103E-02
DAV:  12    -0.135748712266E+04   -0.61475E-06   -0.19795E-05  2208   0.102E-02    0.923E-03
DAV:  13    -0.135748712206E+04    0.60460E-06   -0.12896E-05  1744   0.691E-03    0.477E-03
DAV:  14    -0.135748712189E+04    0.17066E-06   -0.18509E-06  1000   0.491E-03
   9 F= -.13574871E+04 E0= -.13574871E+04  d E =-.601463E+00
 BRION: g(F)=  0.315E+00 g(S)=  0.000E+00 retain N=  7 mean eig= 1.81
 eig:   3.673  3.673  1.810  1.810  0.420  0.420  0.859
 bond charge predicted
       N       E                     dE             d eps       ncg     rms          rms(c)
DAV:   1    -0.135769884584E+04   -0.21172E+00   -0.62042E+01  1392   0.114E+01    0.136E+00
DAV:   2    -0.135802403274E+04   -0.32519E+00   -0.34457E+00  2304   0.445E+00    0.692E-01
DAV:   3    -0.135804470336E+04   -0.20671E-01   -0.28220E-01  2576   0.887E-01    0.552E-01
DAV:   4    -0.135804107650E+04    0.36269E-02   -0.28884E-02  2576   0.414E-01    0.380E-01
DAV:   5    -0.135803834106E+04    0.27354E-02   -0.13415E-02  2416   0.234E-01    0.154E-01
DAV:   6    -0.135803866708E+04   -0.32602E-03   -0.77079E-03  2480   0.169E-01    0.111E-01
DAV:   7    -0.135803871613E+04   -0.49048E-04   -0.33971E-03  2464   0.111E-01    0.818E-02
DAV:   8    -0.135803871429E+04    0.18359E-05   -0.12213E-03  2624   0.668E-02    0.480E-02
DAV:   9    -0.135803869960E+04    0.14695E-04   -0.25128E-04  2560   0.346E-02    0.337E-02
DAV:  10    -0.135803870251E+04   -0.29132E-05   -0.15840E-04  2584   0.228E-02    0.195E-02
DAV:  11    -0.135803870280E+04   -0.28782E-06   -0.54146E-05  2416   0.159E-02    0.103E-02
DAV:  12    -0.135803870292E+04   -0.12813E-06   -0.18227E-05  2144   0.102E-02    0.850E-03
DAV:  13    -0.135803870259E+04    0.33897E-06   -0.13283E-05  1784   0.672E-03    0.450E-03
DAV:  14    -0.135803870238E+04    0.21044E-06   -0.17102E-06   984   0.478E-03
  10 F= -.13580387E+04 E0= -.13580387E+04  d E =-.551580E+00
 BRION: g(F)=  0.227E+00 g(S)=  0.000E+00 retain N=  8 mean eig= 2.20
 eig:   4.233  4.233  3.322  3.322  0.508  0.508  0.738  0.738
 bond charge predicted
       N       E                     dE             d eps       ncg     rms          rms(c)
DAV:   1    -0.135824660155E+04   -0.20790E+00   -0.51731E+01  1392   0.103E+01    0.123E+00
DAV:   2    -0.135852011422E+04   -0.27351E+00   -0.29000E+00  2296   0.407E+00    0.627E-01
DAV:   3    -0.135853756826E+04   -0.17454E-01   -0.23693E-01  2592   0.804E-01    0.500E-01
DAV:   4    -0.135853449816E+04    0.30701E-02   -0.23150E-02  2592   0.371E-01    0.346E-01
DAV:   5    -0.135853215247E+04    0.23457E-02   -0.10919E-02  2400   0.206E-01    0.134E-01
DAV:   6    -0.135853247314E+04   -0.32067E-03   -0.60459E-03  2472   0.143E-01    0.971E-02
DAV:   7    -0.135853249428E+04   -0.21142E-04   -0.23893E-03  2504   0.932E-02    0.679E-02
DAV:   8    -0.135853249307E+04    0.12107E-05   -0.87381E-04  2616   0.565E-02    0.405E-02
DAV:   9    -0.135853248504E+04    0.80279E-05   -0.17977E-04  2504   0.292E-02    0.293E-02
DAV:  10    -0.135853248653E+04   -0.14875E-05   -0.97328E-05  2576   0.184E-02    0.156E-02
DAV:  11    -0.135853248758E+04   -0.10544E-05   -0.34104E-05  2424   0.125E-02    0.823E-03
DAV:  12    -0.135853248742E+04    0.16758E-06   -0.10652E-05  1864   0.837E-03    0.613E-03
DAV:  13    -0.135853248749E+04   -0.73647E-07   -0.91181E-06  1680   0.566E-03
  11 F= -.13585325E+04 E0= -.13585325E+04  d E =-.493785E+00
 BRION: g(F)=  0.203E+00 g(S)=  0.000E+00 retain N=  9 mean eig= 2.71
 eig:   5.790  5.790  4.506  4.506  1.190  1.190  0.323  0.323  0.729
 bond charge predicted
       N       E                     dE             d eps       ncg     rms          rms(c)
DAV:   1    -0.135873714760E+04   -0.20466E+00   -0.21037E+01  1384   0.654E+00    0.774E-01
DAV:   2    -0.135885004407E+04   -0.11290E+00   -0.11967E+00  2304   0.262E+00    0.400E-01
DAV:   3    -0.135885708968E+04   -0.70456E-02   -0.97425E-02  2584   0.509E-01    0.325E-01
DAV:   4    -0.135885581054E+04    0.12791E-02   -0.95805E-03  2600   0.236E-01    0.229E-01
DAV:   5    -0.135885459004E+04    0.12205E-02   -0.44902E-03  2360   0.132E-01    0.919E-02
DAV:   6    -0.135885467994E+04   -0.89900E-04   -0.28985E-03  2416   0.972E-02    0.645E-02
DAV:   7    -0.135885468696E+04   -0.70217E-05   -0.11576E-03  2464   0.641E-02    0.472E-02
DAV:   8    -0.135885468380E+04    0.31558E-05   -0.42552E-04  2592   0.394E-02    0.283E-02
DAV:   9    -0.135885467972E+04    0.40806E-05   -0.97230E-05  2512   0.206E-02    0.197E-02
DAV:  10    -0.135885468063E+04   -0.91062E-06   -0.36748E-05  2528   0.115E-02    0.116E-02
DAV:  11    -0.135885468115E+04   -0.51406E-06   -0.14192E-05  1992   0.824E-03    0.711E-03
DAV:  12    -0.135885468083E+04    0.31423E-06   -0.74124E-06  1656   0.657E-03
  12 F= -.13588547E+04 E0= -.13588547E+04  d E =-.322193E+00
 BRION: g(F)=  0.184E+00 g(S)=  0.000E+00 retain N=  9 mean eig= 2.77
 eig:   7.239  7.239  1.760  1.760  2.121  2.121  0.927  0.927  0.830
 bond charge predicted
       N       E                     dE             d eps       ncg     rms          rms(c)
DAV:   1    -0.135907029135E+04   -0.21561E+00   -0.38459E+01  1392   0.881E+00    0.104E+00
DAV:   2    -0.135927380467E+04   -0.20351E+00   -0.21496E+00  2296   0.351E+00    0.529E-01
DAV:   3    -0.135928620671E+04   -0.12402E-01   -0.17403E-01  2584   0.684E-01    0.426E-01
DAV:   4    -0.135928366245E+04    0.25443E-02   -0.16754E-02  2584   0.311E-01    0.301E-01
DAV:   5    -0.135928134676E+04    0.23157E-02   -0.84823E-03  2352   0.181E-01    0.116E-01
DAV:   6    -0.135928155921E+04   -0.21245E-03   -0.52460E-03  2408   0.130E-01    0.869E-02
DAV:   7    -0.135928156486E+04   -0.56454E-05   -0.20226E-03  2472   0.834E-02    0.624E-02
DAV:   8    -0.135928155610E+04    0.87558E-05   -0.70560E-04  2576   0.510E-02    0.363E-02
DAV:   9    -0.135928154961E+04    0.64913E-05   -0.15515E-04  2448   0.263E-02    0.254E-02
DAV:  10    -0.135928155110E+04   -0.14929E-05   -0.68428E-05  2512   0.155E-02    0.142E-02
DAV:  11    -0.135928155180E+04   -0.69679E-06   -0.23789E-05  2352   0.109E-02    0.774E-03
DAV:  12    -0.135928155187E+04   -0.66939E-07   -0.10870E-05  1840   0.761E-03    0.639E-03
DAV:  13    -0.135928155154E+04    0.32870E-06   -0.52749E-06  1376   0.540E-03
  13 F= -.13592816E+04 E0= -.13592816E+04  d E =-.426871E+00
 BRION: g(F)=  0.174E+00 g(S)=  0.000E+00 retain N=  8 mean eig= 3.10
 eig:   7.007  7.007  3.054  3.054  1.128  1.128  1.207  1.207
 bond charge predicted
       N       E                     dE             d eps       ncg     rms          rms(c)
DAV:   1    -0.135949270396E+04   -0.21115E+00   -0.25011E+01  1368   0.707E+00    0.834E-01
DAV:   2    -0.135962407526E+04   -0.13137E+00   -0.13862E+00  2304   0.279E+00    0.429E-01
DAV:   3    -0.135963211974E+04   -0.80445E-02   -0.11340E-01  2568   0.543E-01    0.343E-01
DAV:   4    -0.135963044156E+04    0.16782E-02   -0.10846E-02  2600   0.249E-01    0.241E-01
DAV:   5    -0.135962889865E+04    0.15429E-02   -0.53873E-03  2328   0.147E-01    0.927E-02
DAV:   6    -0.135962903083E+04   -0.13218E-03   -0.34348E-03  2400   0.105E-01    0.701E-02
DAV:   7    -0.135962902982E+04    0.10095E-05   -0.12429E-03  2440   0.658E-02    0.499E-02
DAV:   8    -0.135962902506E+04    0.47564E-05   -0.45856E-04  2576   0.406E-02    0.288E-02
DAV:   9    -0.135962902077E+04    0.42951E-05   -0.10377E-04  2472   0.213E-02    0.201E-02
DAV:  10    -0.135962902164E+04   -0.87020E-06   -0.41392E-05  2504   0.125E-02    0.114E-02
DAV:  11    -0.135962902185E+04   -0.21073E-06   -0.14773E-05  2080   0.853E-03    0.595E-03
DAV:  12    -0.135962902200E+04   -0.14938E-06   -0.77233E-06  1712   0.621E-03
  14 F= -.13596290E+04 E0= -.13596290E+04  d E =-.347470E+00
 BRION: g(F)=  0.168E+00 g(S)=  0.000E+00 retain N=  7 mean eig= 3.83
 eig:   7.780  7.780  3.291  3.291  1.743  1.743  1.198
 bond charge predicted
       N       E                     dE             d eps       ncg     rms          rms(c)
DAV:   1    -0.135982772409E+04   -0.19870E+00   -0.18986E+01  1368   0.616E+00    0.711E-01
DAV:   2    -0.135992483369E+04   -0.97110E-01   -0.10217E+00  2304   0.236E+00    0.366E-01
DAV:   3    -0.135993094395E+04   -0.61103E-02   -0.84926E-02  2576   0.471E-01    0.292E-01
DAV:   4    -0.135992975264E+04    0.11913E-02   -0.76198E-03  2600   0.209E-01    0.208E-01
DAV:   5    -0.135992852931E+04    0.12233E-02   -0.40237E-03  2312   0.129E-01    0.800E-02
DAV:   6    -0.135992863267E+04   -0.10336E-03   -0.27060E-03  2384   0.944E-02    0.643E-02
DAV:   7    -0.135992862608E+04    0.65899E-05   -0.91122E-04  2432   0.566E-02    0.460E-02
DAV:   8    -0.135992861849E+04    0.75918E-05   -0.35847E-04  2552   0.355E-02    0.251E-02
DAV:   9    -0.135992861367E+04    0.48162E-05   -0.80850E-05  2328   0.187E-02    0.170E-02
DAV:  10    -0.135992861435E+04   -0.67466E-06   -0.31454E-05  2432   0.108E-02    0.969E-03
DAV:  11    -0.135992861404E+04    0.30815E-06   -0.72065E-06  1472   0.724E-03
  15 F= -.13599286E+04 E0= -.13599286E+04  d E =-.299592E+00
 BRION: g(F)=  0.164E+00 g(S)=  0.000E+00 retain N=  5 mean eig= 4.35
 eig:   7.935  7.935  2.194  2.194  1.479
 bond charge predicted
       N       E                     dE             d eps       ncg     rms          rms(c)
DAV:   1    -0.136008848084E+04   -0.15987E+00   -0.10885E+01  1352   0.463E+00    0.530E-01
DAV:   2    -0.136014300941E+04   -0.54529E-01   -0.57132E-01  2280   0.173E+00    0.271E-01
DAV:   3    -0.136014635229E+04   -0.33429E-02   -0.46679E-02  2576   0.363E-01    0.214E-01
DAV:   4    -0.136014565996E+04    0.69233E-03   -0.42143E-03  2584   0.153E-01    0.151E-01
DAV:   5    -0.136014498853E+04    0.67143E-03   -0.22713E-03  2304   0.100E-01    0.557E-02
DAV:   6    -0.136014506468E+04   -0.76154E-04   -0.15526E-03  2464   0.717E-02    0.484E-02
DAV:   7    -0.136014506126E+04    0.34158E-05   -0.42681E-04  2488   0.397E-02    0.355E-02
DAV:   8    -0.136014505496E+04    0.63053E-05   -0.17989E-04  2552   0.245E-02    0.176E-02
DAV:   9    -0.136014505231E+04    0.26446E-05   -0.38691E-05  2248   0.131E-02    0.116E-02
DAV:  10    -0.136014505250E+04   -0.18287E-06   -0.12215E-05  1992   0.757E-03    0.654E-03
DAV:  11    -0.136014505211E+04    0.38742E-06   -0.19910E-06  1016   0.521E-03
  16 F= -.13601451E+04 E0= -.13601451E+04  d E =-.216438E+00
 BRION: g(F)=  0.164E+00 g(S)=  0.000E+00 retain N=  5 mean eig= 3.19
 eig:   5.917  5.917  1.795  1.166  1.166
 bond charge predicted
       N       E                     dE             d eps       ncg     rms          rms(c)
DAV:   1    -0.136024817406E+04   -0.10312E+00   -0.23845E+00  1384   0.217E+00    0.252E-01
DAV:   2    -0.136026041376E+04   -0.12240E-01   -0.12912E-01  2296   0.820E-01    0.129E-01
DAV:   3    -0.136026121596E+04   -0.80221E-03   -0.10975E-02  2568   0.176E-01    0.102E-01
DAV:   4    -0.136026106973E+04    0.14623E-03   -0.10128E-03  2592   0.753E-02    0.714E-02
DAV:   5    -0.136026093917E+04    0.13057E-03   -0.52024E-04  2360   0.460E-02    0.272E-02
DAV:   6    -0.136026095324E+04   -0.14074E-04   -0.29893E-04  2456   0.315E-02    0.227E-02
DAV:   7    -0.136026095189E+04    0.13465E-05   -0.10535E-04  2440   0.197E-02    0.154E-02
DAV:   8    -0.136026095132E+04    0.57583E-06   -0.43204E-05  2528   0.124E-02    0.850E-03
DAV:   9    -0.136026095080E+04    0.51975E-06   -0.63496E-06  1552   0.632E-03
  17 F= -.13602610E+04 E0= -.13602610E+04  d E =-.115899E+00
 BRION: g(F)=  0.163E+00 g(S)=  0.000E+00 retain N=  6 mean eig= 3.16
 eig:   7.134  7.134  2.212  1.157  0.676  0.676
 bond charge predicted
       N       E                     dE             d eps       ncg     rms          rms(c)
DAV:   1    -0.136029509829E+04   -0.34147E-01   -0.27509E-01  1392   0.735E-01    0.829E-02
DAV:   2    -0.136029647501E+04   -0.13767E-02   -0.14428E-02  2272   0.272E-01    0.418E-02
DAV:   3    -0.136029657099E+04   -0.95983E-04   -0.12566E-03  2568   0.584E-02    0.329E-02
DAV:   4    -0.136029655688E+04    0.14114E-04   -0.10415E-04  2544   0.247E-02    0.241E-02
DAV:   5    -0.136029654051E+04    0.16372E-04   -0.54209E-05  2320   0.159E-02    0.978E-03
DAV:   6    -0.136029654166E+04   -0.11499E-05   -0.41805E-05  2336   0.120E-02    0.798E-03
DAV:   7    -0.136029654168E+04   -0.21435E-07   -0.14149E-05  2080   0.750E-03    0.597E-03
DAV:   8    -0.136029654118E+04    0.49699E-06   -0.22455E-06  1048   0.469E-03
  18 F= -.13602965E+04 E0= -.13602965E+04  d E =-.355904E-01
 BRION: g(F)=  0.164E+00 g(S)=  0.000E+00 retain N=  6 mean eig= 2.94
 eig:   5.417  5.417  2.617  1.532  1.532  1.113
 bond charge predicted
       N       E                     dE             d eps       ncg     rms          rms(c)
DAV:   1    -0.135980473364E+04    0.49181E+00   -0.25910E+01  1360   0.712E+00    0.807E-01
DAV:   2    -0.135993656239E+04   -0.13183E+00   -0.13839E+00  2296   0.267E+00    0.404E-01
DAV:   3    -0.135994539469E+04   -0.88323E-02   -0.11623E-01  2576   0.566E-01    0.321E-01
DAV:   4    -0.135994410444E+04    0.12903E-02   -0.98456E-03  2608   0.236E-01    0.234E-01
DAV:   5    -0.135994258098E+04    0.15235E-02   -0.53066E-03  2320   0.148E-01    0.898E-02
DAV:   6    -0.135994273069E+04   -0.14971E-03   -0.35300E-03  2432   0.107E-01    0.774E-02
DAV:   7    -0.135994271241E+04    0.18276E-04   -0.12227E-03  2496   0.662E-02    0.533E-02
DAV:   8    -0.135994269944E+04    0.12970E-04   -0.46039E-04  2512   0.411E-02    0.278E-02
DAV:   9    -0.135994269479E+04    0.46481E-05   -0.97817E-05  2352   0.205E-02    0.190E-02
DAV:  10    -0.135994269577E+04   -0.97282E-06   -0.33328E-05  2368   0.114E-02    0.102E-02
DAV:  11    -0.135994269552E+04    0.25006E-06   -0.96651E-06  1688   0.776E-03
  19 F= -.13599427E+04 E0= -.13599427E+04  d E =0.353846E+00
 BRION: g(F)=  0.161E+00 g(S)=  0.000E+00 retain N=  6 mean eig= 3.09
 eig:   5.802  5.802  2.496  2.496  0.971  0.971
 bond charge predicted
       N       E                     dE             d eps       ncg     rms          rms(c)
DAV:   1    -0.135957287725E+04    0.36982E+00   -0.21807E+01  1352   0.651E+00    0.737E-01
DAV:   2    -0.135968202260E+04   -0.10915E+00   -0.11399E+00  2304   0.245E+00    0.371E-01
DAV:   3    -0.135968883530E+04   -0.68127E-02   -0.91082E-02  2576   0.497E-01    0.294E-01
DAV:   4    -0.135968768334E+04    0.11520E-02   -0.78170E-03  2584   0.209E-01    0.213E-01
DAV:   5    -0.135968635510E+04    0.13282E-02   -0.45190E-03  2280   0.141E-01    0.767E-02
DAV:   6    -0.135968654651E+04   -0.19141E-03   -0.32944E-03  2456   0.103E-01    0.741E-02
DAV:   7    -0.135968653303E+04    0.13484E-04   -0.90922E-04  2504   0.571E-02    0.543E-02
DAV:   8    -0.135968651061E+04    0.22416E-04   -0.34344E-04  2552   0.350E-02    0.262E-02
DAV:   9    -0.135968650351E+04    0.70993E-05   -0.81786E-05  2224   0.186E-02    0.162E-02
DAV:  10    -0.135968650534E+04   -0.18242E-05   -0.25173E-05  2208   0.101E-02    0.100E-02
DAV:  11    -0.135968650458E+04    0.75613E-06   -0.84094E-06  1608   0.643E-03
  20 F= -.13596865E+04 E0= -.13596865E+04  d E =0.256191E+00
 BRION: g(F)=  0.155E+00 g(S)=  0.000E+00 retain N=  4 mean eig= 3.92
 eig:   7.623  7.623  0.210  0.210
