 running on  160 total cores
 distrk:  each k-point on  160 cores,    1 groups
 distr:  one band on   20 cores,    8 groups
 using from now: INCAR     
 vasp.5.4.4.18Apr17-6-g9f103f2a35 (build May 01 2020 14:22:42) gamma-only       
  
 POSCAR found type information on POSCAR  O  La Zr Li Al
 POSCAR found :  5 types and     188 ions
 scaLAPACK will be used
 LDA part: xc-table for Pade appr. of Perdew
 POSCAR, INCAR and KPOINTS ok, starting setup
 FFT: planning ...
 WAVECAR not read
 WARNING: random wavefunctions but no delay for mixing, default for NELMDL
 entering main loop
       N       E                     dE             d eps       ncg     rms          rms(c)
DAV:   1     0.252913640792E+05    0.25291E+05   -0.42116E+05  1608   0.253E+03
DAV:   2     0.939074207292E+04   -0.15901E+05   -0.14653E+05  1408   0.705E+02
DAV:   3     0.269225117518E+04   -0.66985E+04   -0.61022E+04  1504   0.356E+02
DAV:   4    -0.355783465124E+03   -0.30480E+04   -0.28395E+04  2032   0.220E+02
DAV:   5    -0.139941273699E+04   -0.10436E+04   -0.10032E+04  2536   0.142E+02    0.116E+02
DAV:   6    -0.129706021899E+04    0.10235E+03   -0.15032E+03  2456   0.657E+01    0.504E+01
DAV:   7    -0.131946017921E+04   -0.22400E+02   -0.40652E+02  2560   0.342E+01    0.260E+01
DAV:   8    -0.132878684031E+04   -0.93267E+01   -0.29867E+02  2520   0.289E+01    0.279E+01
DAV:   9    -0.132012266922E+04    0.86642E+01   -0.59511E+01  2464   0.156E+01    0.818E+00
DAV:  10    -0.132099247981E+04   -0.86981E+00   -0.16537E+01  2624   0.813E+00    0.728E+00
DAV:  11    -0.132133586026E+04   -0.34338E+00   -0.64350E+00  2624   0.441E+00    0.421E+00
DAV:  12    -0.132121127189E+04    0.12459E+00   -0.22601E+00  2568   0.351E+00    0.292E+00
DAV:  13    -0.132124643855E+04   -0.35167E-01   -0.95657E-01  2552   0.179E+00    0.196E+00
DAV:  14    -0.132123814459E+04    0.82940E-02   -0.20460E-01  2624   0.984E-01    0.124E+00
DAV:  15    -0.132123908503E+04   -0.94044E-03   -0.10105E-01  2568   0.588E-01    0.830E-01
DAV:  16    -0.132123882506E+04    0.25997E-03   -0.32545E-02  2592   0.365E-01    0.468E-01
DAV:  17    -0.132123843111E+04    0.39395E-03   -0.21074E-02  2432   0.268E-01    0.288E-01
DAV:  18    -0.132123860025E+04   -0.16914E-03   -0.42071E-03  2488   0.136E-01    0.110E-01
DAV:  19    -0.132123861249E+04   -0.12242E-04   -0.18586E-03  2592   0.853E-02    0.911E-02
DAV:  20    -0.132123863466E+04   -0.22169E-04   -0.55706E-04  2536   0.443E-02    0.341E-02
DAV:  21    -0.132123864733E+04   -0.12668E-04   -0.20948E-04  2624   0.253E-02    0.265E-02
DAV:  22    -0.132123866252E+04   -0.15191E-04   -0.71052E-05  2536   0.159E-02    0.122E-02
DAV:  23    -0.132123866232E+04    0.19901E-06   -0.21017E-05  1592   0.936E-03    0.777E-03
DAV:  24    -0.132123866522E+04   -0.28993E-05   -0.10262E-05  1384   0.705E-03    0.304E-03
DAV:  25    -0.132123866519E+04    0.33790E-07   -0.36137E-06   992   0.492E-03
   1 F= -.13212387E+04 E0= -.13212341E+04  d E =-.132124E+04
 BRION: g(F)=  0.751E+02 g(S)=  0.000E+00
 bond charge predicted
       N       E                     dE             d eps       ncg     rms          rms(c)
DAV:   1    -0.128555282320E+04    0.35686E+02   -0.78934E+03  1856   0.136E+02    0.294E+01
DAV:   2    -0.134828083217E+04   -0.62728E+02   -0.72676E+02  2576   0.620E+01    0.160E+01
DAV:   3    -0.134553647468E+04    0.27444E+01   -0.43305E+01  2616   0.162E+01    0.107E+01
DAV:   4    -0.134289741683E+04    0.26391E+01   -0.17115E+01  2432   0.862E+00    0.500E+00
DAV:   5    -0.134276558674E+04    0.13183E+00   -0.53434E+00  2552   0.484E+00    0.355E+00
DAV:   6    -0.134267151049E+04    0.94076E-01   -0.33989E+00  2600   0.321E+00    0.209E+00
DAV:   7    -0.134261914596E+04    0.52365E-01   -0.48606E-01  2536   0.184E+00    0.130E+00
DAV:   8    -0.134262177554E+04   -0.26296E-02   -0.67689E-01  2472   0.134E+00    0.952E-01
DAV:   9    -0.134261618160E+04    0.55939E-02   -0.10589E-01  2536   0.710E-01    0.623E-01
DAV:  10    -0.134261371063E+04    0.24710E-02   -0.53286E-02  2600   0.383E-01    0.247E-01
DAV:  11    -0.134261464683E+04   -0.93620E-03   -0.18279E-02  2624   0.244E-01    0.173E-01
DAV:  12    -0.134261460470E+04    0.42129E-04   -0.30147E-03  2584   0.123E-01    0.114E-01
DAV:  13    -0.134261452259E+04    0.82113E-04   -0.22465E-03  2568   0.799E-02    0.297E-02
DAV:  14    -0.134261455266E+04   -0.30070E-04   -0.35064E-04  2624   0.389E-02    0.176E-02
DAV:  15    -0.134261456061E+04   -0.79513E-05   -0.88665E-05  2624   0.198E-02    0.946E-03
DAV:  16    -0.134261456221E+04   -0.15940E-05   -0.33128E-05  2600   0.114E-02    0.632E-03
DAV:  17    -0.134261456301E+04   -0.80050E-06   -0.93092E-06  1648   0.768E-03
   2 F= -.13426146E+04 E0= -.13426146E+04  d E =-.213759E+02
 BRION: g(F)=  0.685E+02 g(S)=  0.000E+00 retain N=  1 mean eig= 0.52
 eig:   0.515
 bond charge predicted
       N       E                     dE             d eps       ncg     rms          rms(c)
DAV:   1    -0.132527958388E+04    0.17335E+02   -0.31352E+03  1448   0.756E+01    0.182E+01
DAV:   2    -0.135555596913E+04   -0.30276E+02   -0.37153E+02  2488   0.351E+01    0.163E+01
DAV:   3    -0.135378872181E+04    0.17672E+01   -0.26541E+01  2576   0.127E+01    0.126E+01
DAV:   4    -0.135180047657E+04    0.19882E+01   -0.19137E+01  2208   0.593E+00    0.620E+00
DAV:   5    -0.135213955890E+04   -0.33908E+00   -0.65038E+00  2424   0.432E+00    0.691E+00
DAV:   6    -0.135128163833E+04    0.85792E+00   -0.50376E+00  2488   0.395E+00    0.188E+00
DAV:   7    -0.135136294614E+04   -0.81308E-01   -0.17021E+00  2480   0.237E+00    0.129E+00
DAV:   8    -0.135135539923E+04    0.75469E-02   -0.25318E-01  2608   0.968E-01    0.809E-01
DAV:   9    -0.135134838997E+04    0.70093E-02   -0.85782E-02  2560   0.529E-01    0.355E-01
DAV:  10    -0.135135010205E+04   -0.17121E-02   -0.32585E-02  2488   0.312E-01    0.245E-01
DAV:  11    -0.135134929135E+04    0.81070E-03   -0.52731E-03  2616   0.183E-01    0.154E-01
DAV:  12    -0.135134934582E+04   -0.54471E-04   -0.71760E-03  2344   0.127E-01    0.854E-02
DAV:  13    -0.135134930629E+04    0.39537E-04   -0.92061E-04  2552   0.727E-02    0.534E-02
DAV:  14    -0.135134929550E+04    0.10785E-04   -0.43767E-04  2616   0.360E-02    0.189E-02
DAV:  15    -0.135134930217E+04   -0.66681E-05   -0.86528E-05  2616   0.198E-02    0.106E-02
DAV:  16    -0.135134930300E+04   -0.83329E-06   -0.21679E-05  2272   0.883E-03    0.583E-03
DAV:  17    -0.135134930355E+04   -0.55124E-06   -0.36990E-06  1224   0.545E-03
   3 F= -.13513493E+04 E0= -.13513493E+04  d E =-.873474E+01
 BRION: g(F)=  0.143E+02 g(S)=  0.000E+00 retain N=  2 mean eig= 1.11
 eig:   0.344  1.881
 bond charge predicted
       N       E                     dE             d eps       ncg     rms          rms(c)
DAV:   1    -0.135185477486E+04   -0.50547E+00   -0.52797E+02  1384   0.288E+01    0.641E+00
DAV:   2    -0.135495255647E+04   -0.30978E+01   -0.35067E+01  2312   0.120E+01    0.327E+00
DAV:   3    -0.135496019953E+04   -0.76431E-02   -0.24609E+00  2576   0.337E+00    0.274E+00
DAV:   4    -0.135484848010E+04    0.11172E+00   -0.71284E-01  2440   0.157E+00    0.139E+00
DAV:   5    -0.135483816662E+04    0.10313E-01   -0.33287E-01  2432   0.105E+00    0.110E+00
DAV:   6    -0.135482291041E+04    0.15256E-01   -0.15359E-01  2504   0.777E-01    0.679E-01
DAV:   7    -0.135482230028E+04    0.61013E-03   -0.93783E-02  2512   0.492E-01    0.418E-01
DAV:   8    -0.135482098778E+04    0.13125E-02   -0.12577E-02  2608   0.237E-01    0.259E-01
DAV:   9    -0.135482048910E+04    0.49867E-03   -0.73643E-03  2480   0.142E-01    0.963E-02
DAV:  10    -0.135482058834E+04   -0.99234E-04   -0.17292E-03  2384   0.852E-02    0.642E-02
DAV:  11    -0.135482055989E+04    0.28448E-04   -0.43539E-04  2600   0.421E-02    0.364E-02
DAV:  12    -0.135482056247E+04   -0.25776E-05   -0.27483E-04  2512   0.275E-02    0.164E-02
DAV:  13    -0.135482056384E+04   -0.13778E-05   -0.44920E-05  2504   0.152E-02    0.933E-03
DAV:  14    -0.135482056499E+04   -0.11480E-05   -0.25409E-05  2352   0.924E-03    0.812E-03
DAV:  15    -0.135482056397E+04    0.10218E-05   -0.47595E-06  1296   0.617E-03    0.481E-03
DAV:  16    -0.135482056403E+04   -0.57189E-07   -0.73457E-06  1584   0.542E-03
   4 F= -.13548206E+04 E0= -.13548206E+04  d E =-.347126E+01
 BRION: g(F)=  0.442E+01 g(S)=  0.000E+00 retain N=  3 mean eig= 1.85
 eig:   4.812  0.369  0.369
 bond charge predicted
       N       E                     dE             d eps       ncg     rms          rms(c)
DAV:   1    -0.135596145798E+04   -0.11409E+01   -0.19119E+02  1352   0.186E+01    0.315E+00
DAV:   2    -0.135686436223E+04   -0.90290E+00   -0.99382E+00  2296   0.679E+00    0.163E+00
DAV:   3    -0.135686604420E+04   -0.16820E-02   -0.67297E-01  2600   0.152E+00    0.136E+00
DAV:   4    -0.135682741762E+04    0.38627E-01   -0.20468E-01  2520   0.878E-01    0.654E-01
DAV:   5    -0.135682093690E+04    0.64807E-02   -0.66242E-02  2464   0.528E-01    0.450E-01
DAV:   6    -0.135681957531E+04    0.13616E-02   -0.46851E-02  2552   0.402E-01    0.212E-01
DAV:   7    -0.135681990067E+04   -0.32536E-03   -0.15458E-02  2288   0.216E-01    0.183E-01
DAV:   8    -0.135681979061E+04    0.11006E-03   -0.43120E-03  2296   0.112E-01    0.102E-01
DAV:   9    -0.135681970342E+04    0.87197E-04   -0.20101E-03  2576   0.763E-02    0.630E-02
DAV:  10    -0.135681973543E+04   -0.32012E-04   -0.87176E-04  2528   0.548E-02    0.660E-02
DAV:  11    -0.135681968307E+04    0.52361E-04   -0.33970E-04  2536   0.354E-02    0.264E-02
DAV:  12    -0.135681968958E+04   -0.65168E-05   -0.17737E-04  2424   0.217E-02    0.142E-02
DAV:  13    -0.135681968905E+04    0.53053E-06   -0.20009E-05  2264   0.107E-02    0.872E-03
DAV:  14    -0.135681968901E+04    0.41648E-07   -0.12456E-05  1696   0.611E-03    0.409E-03
DAV:  15    -0.135681968903E+04   -0.19209E-07   -0.14900E-06  1032   0.442E-03
   5 F= -.13568197E+04 E0= -.13568197E+04  d E =-.199913E+01
 BRION: g(F)=  0.176E+01 g(S)=  0.000E+00 retain N=  4 mean eig= 1.75
 eig:   5.158  0.543  0.543  0.744
 bond charge predicted
       N       E                     dE             d eps       ncg     rms          rms(c)
DAV:   1    -0.135729914676E+04   -0.47946E+00   -0.14837E+02  1384   0.168E+01    0.248E+00
DAV:   2    -0.135801981627E+04   -0.72067E+00   -0.76891E+00  2280   0.600E+00    0.127E+00
DAV:   3    -0.135804311402E+04   -0.23298E-01   -0.54240E-01  2608   0.130E+00    0.104E+00
DAV:   4    -0.135802429766E+04    0.18816E-01   -0.97472E-02  2560   0.663E-01    0.563E-01
DAV:   5    -0.135801936830E+04    0.49294E-02   -0.38233E-02  2464   0.386E-01    0.283E-01
DAV:   6    -0.135801964947E+04   -0.28117E-03   -0.17671E-02  2584   0.251E-01    0.174E-01
DAV:   7    -0.135801959484E+04    0.54627E-04   -0.61366E-03  2456   0.149E-01    0.114E-01
DAV:   8    -0.135801964745E+04   -0.52604E-04   -0.20971E-03  2528   0.815E-02    0.655E-02
DAV:   9    -0.135801960560E+04    0.41842E-04   -0.45296E-04  2584   0.460E-02    0.433E-02
DAV:  10    -0.135801962912E+04   -0.23516E-04   -0.47782E-04  2368   0.360E-02    0.404E-02
DAV:  11    -0.135801960822E+04    0.20903E-04   -0.17813E-04  2488   0.272E-02    0.132E-02
DAV:  12    -0.135801961192E+04   -0.37027E-05   -0.60745E-05  2376   0.151E-02    0.982E-03
DAV:  13    -0.135801961160E+04    0.32273E-06   -0.14158E-05  1856   0.800E-03    0.509E-03
DAV:  14    -0.135801961146E+04    0.14114E-06   -0.24731E-06  1048   0.537E-03
   6 F= -.13580196E+04 E0= -.13580196E+04  d E =-.119992E+01
 BRION: g(F)=  0.112E+01 g(S)=  0.000E+00 retain N=  5 mean eig= 1.74
 eig:   3.921  2.840  0.722  0.722  0.501
 bond charge predicted
       N       E                     dE             d eps       ncg     rms          rms(c)
DAV:   1    -0.135831760583E+04   -0.29799E+00   -0.16083E+02  1376   0.177E+01    0.256E+00
DAV:   2    -0.135909489468E+04   -0.77729E+00   -0.81831E+00  2280   0.659E+00    0.127E+00
DAV:   3    -0.135912316495E+04   -0.28270E-01   -0.58300E-01  2608   0.132E+00    0.101E+00
DAV:   4    -0.135910350466E+04    0.19660E-01   -0.10610E-01  2520   0.687E-01    0.499E-01
DAV:   5    -0.135910111200E+04    0.23927E-02   -0.34627E-02  2512   0.387E-01    0.268E-01
DAV:   6    -0.135910150178E+04   -0.38979E-03   -0.17858E-02  2592   0.239E-01    0.136E-01
DAV:   7    -0.135910148035E+04    0.21429E-04   -0.41938E-03  2248   0.135E-01    0.103E-01
DAV:   8    -0.135910150146E+04   -0.21105E-04   -0.14807E-03  2360   0.658E-02    0.501E-02
DAV:   9    -0.135910149550E+04    0.59581E-05   -0.40134E-04  2624   0.424E-02    0.305E-02
DAV:  10    -0.135910150616E+04   -0.10663E-04   -0.22585E-04  2528   0.278E-02    0.255E-02
DAV:  11    -0.135910150260E+04    0.35621E-05   -0.90604E-05  2464   0.193E-02    0.126E-02
DAV:  12    -0.135910150328E+04   -0.67877E-06   -0.32944E-05  2312   0.107E-02    0.843E-03
DAV:  13    -0.135910150266E+04    0.61875E-06   -0.79738E-06  1568   0.709E-03
   7 F= -.13591015E+04 E0= -.13591015E+04  d E =-.108189E+01
 BRION: g(F)=  0.653E+00 g(S)=  0.000E+00 retain N=  6 mean eig= 1.69
 eig:   3.927  2.584  1.224  1.224  0.598  0.598
 bond charge predicted
       N       E                     dE             d eps       ncg     rms          rms(c)
DAV:   1    -0.135937319204E+04   -0.27169E+00   -0.69687E+01  1376   0.118E+01    0.165E+00
DAV:   2    -0.135971281014E+04   -0.33962E+00   -0.36033E+00  2280   0.439E+00    0.773E-01
DAV:   3    -0.135972932211E+04   -0.16512E-01   -0.27642E-01  2600   0.905E-01    0.632E-01
DAV:   4    -0.135972271192E+04    0.66102E-02   -0.35658E-02  2568   0.429E-01    0.370E-01
DAV:   5    -0.135972029813E+04    0.24138E-02   -0.18335E-02  2384   0.270E-01    0.162E-01
DAV:   6    -0.135972074160E+04   -0.44347E-03   -0.78748E-03  2552   0.172E-01    0.139E-01
DAV:   7    -0.135972063600E+04    0.10560E-03   -0.30116E-03  2560   0.104E-01    0.869E-02
DAV:   8    -0.135972060857E+04    0.27437E-04   -0.96469E-04  2608   0.610E-02    0.460E-02
DAV:   9    -0.135972059930E+04    0.92652E-05   -0.18730E-04  2584   0.303E-02    0.308E-02
DAV:  10    -0.135972060837E+04   -0.90648E-05   -0.18248E-04  2272   0.230E-02    0.225E-02
DAV:  11    -0.135972060212E+04    0.62404E-05   -0.44222E-05  2416   0.158E-02    0.101E-02
DAV:  12    -0.135972060439E+04   -0.22608E-05   -0.41306E-05  2232   0.105E-02    0.980E-03
DAV:  13    -0.135972060290E+04    0.14856E-05   -0.60191E-06  1416   0.673E-03    0.490E-03
DAV:  14    -0.135972060342E+04   -0.51709E-06   -0.10688E-05  1608   0.634E-03    0.260E-03
DAV:  15    -0.135972060329E+04    0.12813E-06   -0.90042E-07   992   0.415E-03
   8 F= -.13597206E+04 E0= -.13597206E+04  d E =-.619101E+00
 BRION: g(F)=  0.401E+00 g(S)=  0.000E+00 retain N=  7 mean eig= 1.97
 eig:   4.179  2.586  2.501  2.501  0.742  0.742  0.543
 bond charge predicted
       N       E                     dE             d eps       ncg     rms          rms(c)
DAV:   1    -0.135988868446E+04   -0.16808E+00   -0.96382E+01  1400   0.141E+01    0.165E+00
DAV:   2    -0.136037894217E+04   -0.49026E+00   -0.51948E+00  2288   0.546E+00    0.828E-01
DAV:   3    -0.136040914109E+04   -0.30199E-01   -0.41735E-01  2592   0.108E+00    0.679E-01
DAV:   4    -0.136040383601E+04    0.53051E-02   -0.40822E-02  2600   0.487E-01    0.477E-01
DAV:   5    -0.136039905863E+04    0.47774E-02   -0.20500E-02  2376   0.274E-01    0.202E-01
DAV:   6    -0.136039932609E+04   -0.26746E-03   -0.11854E-02  2400   0.211E-01    0.151E-01
DAV:   7    -0.136039936350E+04   -0.37410E-04   -0.67074E-03  2440   0.151E-01    0.112E-01
DAV:   8    -0.136039934521E+04    0.18290E-04   -0.22963E-03  2592   0.937E-02    0.726E-02
DAV:   9    -0.136039930600E+04    0.39206E-04   -0.50122E-04  2560   0.475E-02    0.487E-02
DAV:  10    -0.136039930646E+04   -0.46116E-06   -0.26037E-04  2584   0.282E-02    0.254E-02
DAV:  11    -0.136039931207E+04   -0.56044E-05   -0.84709E-05  2464   0.200E-02    0.181E-02
DAV:  12    -0.136039930868E+04    0.33830E-05   -0.40041E-05  2328   0.146E-02    0.137E-02
DAV:  13    -0.136039930783E+04    0.85220E-06   -0.34117E-05  2240   0.101E-02    0.705E-03
DAV:  14    -0.136039930745E+04    0.38106E-06   -0.53834E-06  1376   0.565E-03
   9 F= -.13603993E+04 E0= -.13603993E+04  d E =-.678704E+00
 BRION: g(F)=  0.298E+00 g(S)=  0.000E+00 retain N=  8 mean eig= 2.34
 eig:   4.169  4.169  4.285  2.696  1.029  1.029  0.648  0.731
 bond charge predicted
       N       E                     dE             d eps       ncg     rms          rms(c)
DAV:   1    -0.136059760735E+04   -0.19830E+00   -0.48748E+01  1400   0.999E+00    0.117E+00
DAV:   2    -0.136084844101E+04   -0.25083E+00   -0.26483E+00  2304   0.394E+00    0.595E-01
DAV:   3    -0.136086270878E+04   -0.14268E-01   -0.20407E-01  2608   0.740E-01    0.477E-01
DAV:   4    -0.136085944187E+04    0.32669E-02   -0.20020E-02  2616   0.341E-01    0.326E-01
DAV:   5    -0.136085694771E+04    0.24942E-02   -0.91040E-03  2392   0.198E-01    0.131E-01
DAV:   6    -0.136085713150E+04   -0.18379E-03   -0.60331E-03  2440   0.147E-01    0.907E-02
DAV:   7    -0.136085717594E+04   -0.44434E-04   -0.25355E-03  2448   0.951E-02    0.719E-02
DAV:   8    -0.136085716663E+04    0.93097E-05   -0.82927E-04  2616   0.556E-02    0.416E-02
DAV:   9    -0.136085715288E+04    0.13749E-04   -0.21286E-04  2504   0.302E-02    0.277E-02
DAV:  10    -0.136085715686E+04   -0.39755E-05   -0.11919E-04  2504   0.203E-02    0.178E-02
DAV:  11    -0.136085715572E+04    0.11312E-05   -0.41067E-05  2304   0.140E-02    0.909E-03
DAV:  12    -0.136085715631E+04   -0.58449E-06   -0.19615E-05  2216   0.990E-03    0.855E-03
DAV:  13    -0.136085715552E+04    0.78928E-06   -0.98043E-06  1680   0.646E-03
  10 F= -.13608572E+04 E0= -.13608572E+04  d E =-.457848E+00
 BRION: g(F)=  0.254E+00 g(S)=  0.000E+00 retain N=  9 mean eig= 2.63
 eig:   5.571  5.571  4.214  2.627  1.793  1.793  0.737  0.737  0.628
 bond charge predicted
       N       E                     dE             d eps       ncg     rms          rms(c)
DAV:   1    -0.136101722168E+04   -0.16007E+00   -0.61721E+01  1400   0.112E+01    0.131E+00
DAV:   2    -0.136133698145E+04   -0.31976E+00   -0.33827E+00  2304   0.449E+00    0.658E-01
DAV:   3    -0.136135598979E+04   -0.19008E-01   -0.26369E-01  2616   0.835E-01    0.533E-01
DAV:   4    -0.136135236850E+04    0.36213E-02   -0.23875E-02  2616   0.375E-01    0.379E-01
DAV:   5    -0.136134883714E+04    0.35314E-02   -0.11344E-02  2360   0.220E-01    0.154E-01
DAV:   6    -0.136134904250E+04   -0.20536E-03   -0.84224E-03  2400   0.171E-01    0.105E-01
DAV:   7    -0.136134910047E+04   -0.57967E-04   -0.35233E-03  2464   0.110E-01    0.836E-02
DAV:   8    -0.136134908219E+04    0.18275E-04   -0.11027E-03  2608   0.650E-02    0.482E-02
DAV:   9    -0.136134906410E+04    0.18092E-04   -0.28630E-04  2496   0.344E-02    0.313E-02
DAV:  10    -0.136134906882E+04   -0.47189E-05   -0.12592E-04  2488   0.212E-02    0.186E-02
DAV:  11    -0.136134906951E+04   -0.68753E-06   -0.43191E-05  2408   0.144E-02    0.115E-02
DAV:  12    -0.136134906934E+04    0.16783E-06   -0.23766E-05  2272   0.108E-02    0.102E-02
DAV:  13    -0.136134906843E+04    0.90789E-06   -0.14935E-05  1824   0.739E-03    0.513E-03
DAV:  14    -0.136134906824E+04    0.19230E-06   -0.39385E-06  1240   0.545E-03
  11 F= -.13613491E+04 E0= -.13613491E+04  d E =-.491913E+00
 BRION: g(F)=  0.210E+00 g(S)=  0.000E+00 retain N=  8 mean eig= 2.66
 eig:   6.329  6.329  2.409  2.409  1.087  1.087  0.798  0.798
 bond charge predicted
       N       E                     dE             d eps       ncg     rms          rms(c)
DAV:   1    -0.136149554889E+04   -0.14648E+00   -0.62146E+01  1400   0.113E+01    0.131E+00
DAV:   2    -0.136182396822E+04   -0.32842E+00   -0.34855E+00  2304   0.460E+00    0.658E-01
DAV:   3    -0.136184365798E+04   -0.19690E-01   -0.27408E-01  2616   0.849E-01    0.539E-01
DAV:   4    -0.136184003075E+04    0.36272E-02   -0.24134E-02  2616   0.382E-01    0.394E-01
DAV:   5    -0.136183592927E+04    0.41015E-02   -0.11736E-02  2368   0.223E-01    0.166E-01
DAV:   6    -0.136183600361E+04   -0.74338E-04   -0.97127E-03  2328   0.183E-01    0.111E-01
DAV:   7    -0.136183609627E+04   -0.92662E-04   -0.44708E-03  2464   0.122E-01    0.918E-02
DAV:   8    -0.136183606583E+04    0.30447E-04   -0.12371E-03  2576   0.708E-02    0.521E-02
DAV:   9    -0.136183604301E+04    0.22821E-04   -0.38742E-04  2528   0.384E-02    0.317E-02
DAV:  10    -0.136183605093E+04   -0.79248E-05   -0.12454E-04  2520   0.222E-02    0.210E-02
DAV:  11    -0.136183605157E+04   -0.63662E-06   -0.53564E-05  2408   0.151E-02    0.138E-02
DAV:  12    -0.136183605028E+04    0.12914E-05   -0.29102E-05  2312   0.122E-02    0.110E-02
DAV:  13    -0.136183604965E+04    0.62666E-06   -0.20583E-05  2136   0.816E-03    0.593E-03
DAV:  14    -0.136183604931E+04    0.34249E-06   -0.33144E-06  1184   0.504E-03
  12 F= -.13618360E+04 E0= -.13618360E+04  d E =-.486981E+00
 BRION: g(F)=  0.188E+00 g(S)=  0.000E+00 retain N=  9 mean eig= 3.17
 eig:   7.869  7.869  2.994  2.994  2.094  2.094  0.848  0.877  0.877
 bond charge predicted
       N       E                     dE             d eps       ncg     rms          rms(c)
DAV:   1    -0.136200160392E+04   -0.16555E+00   -0.39566E+01  1400   0.906E+00    0.104E+00
DAV:   2    -0.136221247319E+04   -0.21087E+00   -0.22429E+00  2312   0.372E+00    0.535E-01
DAV:   3    -0.136222501072E+04   -0.12538E-01   -0.17595E-01  2592   0.688E-01    0.439E-01
DAV:   4    -0.136222272423E+04    0.22865E-02   -0.16101E-02  2600   0.308E-01    0.324E-01
DAV:   5    -0.136221996175E+04    0.27625E-02   -0.78894E-03  2352   0.185E-01    0.138E-01
DAV:   6    -0.136222000841E+04   -0.46652E-04   -0.67235E-03  2344   0.153E-01    0.914E-02
DAV:   7    -0.136222006653E+04   -0.58125E-04   -0.29745E-03  2448   0.992E-02    0.770E-02
DAV:   8    -0.136222004473E+04    0.21805E-04   -0.86032E-04  2600   0.592E-02    0.446E-02
DAV:   9    -0.136222002805E+04    0.16671E-04   -0.26103E-04  2512   0.316E-02    0.264E-02
DAV:  10    -0.136222003360E+04   -0.55459E-05   -0.89235E-05  2536   0.185E-02    0.171E-02
DAV:  11    -0.136222003459E+04   -0.99107E-06   -0.34549E-05  2368   0.124E-02    0.119E-02
DAV:  12    -0.136222003344E+04    0.11473E-05   -0.20957E-05  2224   0.104E-02    0.955E-03
DAV:  13    -0.136222003274E+04    0.70014E-06   -0.13540E-05  1816   0.706E-03    0.485E-03
DAV:  14    -0.136222003249E+04    0.25691E-06   -0.22400E-06   992   0.498E-03
  13 F= -.13622200E+04 E0= -.13622200E+04  d E =-.383983E+00
 BRION: g(F)=  0.171E+00 g(S)=  0.000E+00 retain N=  4 mean eig= 4.20
 eig:   6.919  6.919  1.487  1.487
 bond charge predicted
       N       E                     dE             d eps       ncg     rms          rms(c)
DAV:   1    -0.136240135845E+04   -0.18133E+00   -0.27547E+01  1384   0.756E+00    0.879E-01
DAV:   2    -0.136255140202E+04   -0.15004E+00   -0.15978E+00  2336   0.312E+00    0.455E-01
DAV:   3    -0.136255963289E+04   -0.82309E-02   -0.12010E-01  2592   0.591E-01    0.370E-01
DAV:   4    -0.136255787869E+04    0.17542E-02   -0.12050E-02  2616   0.262E-01    0.265E-01
DAV:   5    -0.136255613584E+04    0.17428E-02   -0.57408E-03  2360   0.158E-01    0.111E-01
DAV:   6    -0.136255622425E+04   -0.88409E-04   -0.44066E-03  2408   0.125E-01    0.805E-02
DAV:   7    -0.136255624286E+04   -0.18617E-04   -0.20468E-03  2416   0.835E-02    0.654E-02
DAV:   8    -0.136255623096E+04    0.11901E-04   -0.67527E-04  2600   0.506E-02    0.380E-02
DAV:   9    -0.136255622039E+04    0.10576E-04   -0.17838E-04  2568   0.264E-02    0.236E-02
DAV:  10    -0.136255622344E+04   -0.30473E-05   -0.67424E-05  2552   0.159E-02    0.147E-02
DAV:  11    -0.136255622436E+04   -0.92010E-06   -0.24835E-05  2232   0.107E-02    0.987E-03
DAV:  12    -0.136255622350E+04    0.86053E-06   -0.14763E-05  2064   0.886E-03    0.770E-03
DAV:  13    -0.136255622318E+04    0.31431E-06   -0.10145E-05  1768   0.609E-03    0.420E-03
DAV:  14    -0.136255622298E+04    0.20556E-06   -0.16337E-06   952   0.437E-03
  14 F= -.13625562E+04 E0= -.13625562E+04  d E =-.336190E+00
 BRION: g(F)=  0.165E+00 g(S)=  0.000E+00 retain N=  4 mean eig= 3.81
 eig:   5.890  5.890  1.735  1.735
 bond charge predicted
       N       E                     dE             d eps       ncg     rms          rms(c)
DAV:   1    -0.136271603900E+04   -0.15982E+00   -0.11305E+01  1392   0.486E+00    0.565E-01
DAV:   2    -0.136277771695E+04   -0.61678E-01   -0.65702E-01  2320   0.200E+00    0.297E-01
DAV:   3    -0.136278111317E+04   -0.33962E-02   -0.50299E-02  2592   0.387E-01    0.237E-01
DAV:   4    -0.136278029240E+04    0.82077E-03   -0.50827E-03  2576   0.173E-01    0.163E-01
DAV:   5    -0.136277966301E+04    0.62938E-03   -0.24044E-03  2400   0.101E-01    0.662E-02
DAV:   6    -0.136277970796E+04   -0.44953E-04   -0.15661E-03  2424   0.745E-02    0.466E-02
DAV:   7    -0.136277971980E+04   -0.11834E-04   -0.66025E-04  2432   0.489E-02    0.366E-02
DAV:   8    -0.136277971790E+04    0.19017E-05   -0.23402E-04  2568   0.293E-02    0.210E-02
DAV:   9    -0.136277971527E+04    0.26232E-05   -0.58113E-05  2520   0.158E-02    0.140E-02
DAV:  10    -0.136277971596E+04   -0.69034E-06   -0.24283E-05  2416   0.100E-02    0.907E-03
DAV:  11    -0.136277971543E+04    0.53144E-06   -0.71650E-06  1376   0.708E-03
  15 F= -.13627797E+04 E0= -.13627797E+04  d E =-.223492E+00
 BRION: g(F)=  0.162E+00 g(S)=  0.000E+00 retain N=  4 mean eig= 3.57
 eig:   5.726  5.726  1.410  1.410
 bond charge predicted
       N       E                     dE             d eps       ncg     rms          rms(c)
DAV:   1    -0.136291251352E+04   -0.13280E+00   -0.71470E+00  1384   0.385E+00    0.452E-01
DAV:   2    -0.136295023317E+04   -0.37720E-01   -0.40062E-01  2312   0.154E+00    0.236E-01
DAV:   3    -0.136295245931E+04   -0.22261E-02   -0.31718E-02  2584   0.302E-01    0.191E-01
DAV:   4    -0.136295197906E+04    0.48025E-03   -0.31316E-03  2576   0.135E-01    0.131E-01
DAV:   5    -0.136295161532E+04    0.36374E-03   -0.17115E-03  2352   0.823E-02    0.507E-02
DAV:   6    -0.136295166549E+04   -0.50164E-04   -0.90208E-04  2496   0.568E-02    0.421E-02
DAV:   7    -0.136295166182E+04    0.36646E-05   -0.37473E-04  2512   0.369E-02    0.278E-02
DAV:   8    -0.136295166051E+04    0.13105E-05   -0.14315E-04  2552   0.235E-02    0.162E-02
DAV:   9    -0.136295165930E+04    0.12093E-05   -0.25224E-05  2392   0.113E-02    0.116E-02
DAV:  10    -0.136295165930E+04    0.58935E-08   -0.14584E-05  1712   0.763E-03    0.564E-03
DAV:  11    -0.136295165913E+04    0.16669E-06   -0.19826E-06  1040   0.619E-03
  16 F= -.13629517E+04 E0= -.13629517E+04  d E =-.171944E+00
 BRION: g(F)=  0.160E+00 g(S)=  0.000E+00 retain N=  5 mean eig= 3.39
 eig:   6.485  6.485  1.595  1.196  1.196
 bond charge predicted
       N       E                     dE             d eps       ncg     rms          rms(c)
DAV:   1    -0.136307469551E+04   -0.12304E+00   -0.11345E+01  1368   0.479E+00    0.532E-01
DAV:   2    -0.136313207943E+04   -0.57384E-01   -0.60175E-01  2296   0.186E+00    0.274E-01
DAV:   3    -0.136313548227E+04   -0.34028E-02   -0.46252E-02  2568   0.361E-01    0.219E-01
DAV:   4    -0.136313493525E+04    0.54702E-03   -0.41793E-03  2576   0.154E-01    0.160E-01
DAV:   5    -0.136313433039E+04    0.60486E-03   -0.21130E-03  2368   0.946E-02    0.679E-02
DAV:   6    -0.136313436148E+04   -0.31089E-04   -0.15462E-03  2376   0.748E-02    0.487E-02
DAV:   7    -0.136313436881E+04   -0.73353E-05   -0.69290E-04  2464   0.490E-02    0.385E-02
DAV:   8    -0.136313436262E+04    0.61961E-05   -0.23938E-04  2536   0.303E-02    0.228E-02
DAV:   9    -0.136313435839E+04    0.42293E-05   -0.62140E-05  2408   0.158E-02    0.141E-02
DAV:  10    -0.136313435911E+04   -0.72106E-06   -0.24246E-05  2352   0.944E-03    0.856E-03
DAV:  11    -0.136313435883E+04    0.28503E-06   -0.38963E-06  1208   0.648E-03
  17 F= -.13631344E+04 E0= -.13631344E+04  d E =-.182700E+00
 BRION: g(F)=  0.158E+00 g(S)=  0.000E+00 retain N=  5 mean eig= 2.46
 eig:   3.901  3.901  2.005  1.241  1.241
 bond charge predicted
       N       E                     dE             d eps       ncg     rms          rms(c)
DAV:   1    -0.136319659261E+04   -0.62233E-01   -0.36600E+00  1400   0.274E+00    0.315E-01
DAV:   2    -0.136321567720E+04   -0.19085E-01   -0.20224E-01  2296   0.111E+00    0.163E-01
DAV:   3    -0.136321676255E+04   -0.10854E-02   -0.15646E-02  2592   0.204E-01    0.131E-01
DAV:   4    -0.136321652350E+04    0.23905E-03   -0.14773E-03  2600   0.918E-02    0.916E-02
DAV:   5    -0.136321632295E+04    0.20055E-03   -0.64288E-04  2424   0.521E-02    0.391E-02
DAV:   6    -0.136321632234E+04    0.60488E-06   -0.45130E-04  2328   0.404E-02    0.228E-02
DAV:   7    -0.136321633061E+04   -0.82698E-05   -0.23566E-04  2408   0.277E-02    0.206E-02
DAV:   8    -0.136321632930E+04    0.13151E-05   -0.61664E-05  2568   0.160E-02    0.130E-02
DAV:   9    -0.136321632796E+04    0.13339E-05   -0.19699E-05  2208   0.893E-03    0.765E-03
DAV:  10    -0.136321632807E+04   -0.11179E-06   -0.55709E-06  1408   0.584E-03
  18 F= -.13632163E+04 E0= -.13632163E+04  d E =-.819692E-01
 BRION: g(F)=  0.152E+00 g(S)=  0.000E+00 retain N=  5 mean eig= 2.67
 eig:   4.724  4.724  1.486  1.486  0.919
 bond charge predicted
       N       E                     dE             d eps       ncg     rms          rms(c)
DAV:   1    -0.136336292880E+04   -0.14660E+00   -0.72487E+00  1400   0.389E+00    0.468E-01
DAV:   2    -0.136340254565E+04   -0.39617E-01   -0.42628E-01  2320   0.160E+00    0.241E-01
DAV:   3    -0.136340487186E+04   -0.23262E-02   -0.34516E-02  2584   0.313E-01    0.188E-01
DAV:   4    -0.136340434389E+04    0.52797E-03   -0.35045E-03  2584   0.144E-01    0.126E-01
DAV:   5    -0.136340402625E+04    0.31764E-03   -0.16046E-03  2424   0.792E-02    0.512E-02
DAV:   6    -0.136340405291E+04   -0.26658E-04   -0.83733E-04  2472   0.547E-02    0.348E-02
DAV:   7    -0.136340406162E+04   -0.87047E-05   -0.39075E-04  2472   0.379E-02    0.258E-02
DAV:   8    -0.136340406287E+04   -0.12589E-05   -0.13219E-04  2568   0.223E-02    0.163E-02
DAV:   9    -0.136340406145E+04    0.14259E-05   -0.30586E-05  2456   0.120E-02    0.115E-02
DAV:  10    -0.136340406157E+04   -0.11838E-06   -0.18907E-05  2112   0.833E-03    0.702E-03
DAV:  11    -0.136340406106E+04    0.50569E-06   -0.35613E-06  1168   0.636E-03
  19 F= -.13634041E+04 E0= -.13634041E+04  d E =-.187733E+00
 BRION: g(F)=  0.152E+00 g(S)=  0.000E+00 retain N=  5 mean eig= 1.90
 eig:   3.269  3.269  1.050  1.050  0.867
 bond charge predicted
       N       E                     dE             d eps       ncg     rms          rms(c)
DAV:   1    -0.136357267748E+04   -0.16862E+00   -0.14478E+01  1392   0.550E+00    0.650E-01
DAV:   2    -0.136365261468E+04   -0.79937E-01   -0.85584E-01  2336   0.227E+00    0.344E-01
DAV:   3    -0.136365697006E+04   -0.43554E-02   -0.66661E-02  2592   0.442E-01    0.269E-01
DAV:   4    -0.136365583489E+04    0.11352E-02   -0.72453E-03  2600   0.203E-01    0.178E-01
DAV:   5    -0.136365517517E+04    0.65972E-03   -0.29006E-03  2488   0.111E-01    0.771E-02
DAV:   6    -0.136365518929E+04   -0.14125E-04   -0.16582E-03  2416   0.787E-02    0.441E-02
DAV:   7    -0.136365521848E+04   -0.29189E-04   -0.81254E-04  2480   0.544E-02    0.375E-02
DAV:   8    -0.136365521844E+04    0.36976E-07   -0.23120E-04  2576   0.300E-02    0.230E-02
DAV:   9    -0.136365521722E+04    0.12245E-05   -0.82420E-05  2560   0.179E-02    0.152E-02
DAV:  10    -0.136365521796E+04   -0.74094E-06   -0.31630E-05  2504   0.118E-02    0.108E-02
DAV:  11    -0.136365521707E+04    0.89045E-06   -0.14455E-05  1896   0.795E-03    0.380E-03
DAV:  12    -0.136365521727E+04   -0.19807E-06   -0.54181E-06  1576   0.585E-03
  20 F= -.13636552E+04 E0= -.13636552E+04  d E =-.251156E+00
 BRION: g(F)=  0.135E+00 g(S)=  0.000E+00 retain N=  2 mean eig= 2.39
 eig:   2.387  2.387
