 running on  160 total cores
 distrk:  each k-point on  160 cores,    1 groups
 distr:  one band on   20 cores,    8 groups
 using from now: INCAR     
 vasp.5.4.4.18Apr17-6-g9f103f2a35 (build May 01 2020 14:22:42) gamma-only       
  
 POSCAR found type information on POSCAR  O  La Zr Li Al
 POSCAR found :  5 types and     188 ions
 scaLAPACK will be used
 LDA part: xc-table for Pade appr. of Perdew
 POSCAR, INCAR and KPOINTS ok, starting setup
 FFT: planning ...
 WAVECAR not read
 WARNING: random wavefunctions but no delay for mixing, default for NELMDL
 entering main loop
       N       E                     dE             d eps       ncg     rms          rms(c)
DAV:   1     0.252394019570E+05    0.25239E+05   -0.42017E+05  1608   0.253E+03
DAV:   2     0.947771953841E+04   -0.15762E+05   -0.14500E+05  1416   0.713E+02
DAV:   3     0.270559419353E+04   -0.67721E+04   -0.61794E+04  1520   0.356E+02
DAV:   4    -0.347286424037E+03   -0.30529E+04   -0.28500E+04  2032   0.223E+02
DAV:   5    -0.139449426164E+04   -0.10472E+04   -0.10076E+04  2536   0.142E+02    0.116E+02
DAV:   6    -0.129656271044E+04    0.97932E+02   -0.15201E+03  2440   0.668E+01    0.504E+01
DAV:   7    -0.131925266291E+04   -0.22690E+02   -0.42964E+02  2536   0.352E+01    0.268E+01
DAV:   8    -0.132263521586E+04   -0.33826E+01   -0.24375E+02  2512   0.282E+01    0.230E+01
DAV:   9    -0.132001940487E+04    0.26158E+01   -0.38770E+01  2560   0.135E+01    0.794E+00
DAV:  10    -0.132051073828E+04   -0.49133E+00   -0.14949E+01  2624   0.736E+00    0.686E+00
DAV:  11    -0.132085896175E+04   -0.34822E+00   -0.51200E+00  2624   0.401E+00    0.412E+00
DAV:  12    -0.132084112444E+04    0.17837E-01   -0.18007E+00  2568   0.304E+00    0.308E+00
DAV:  13    -0.132082593562E+04    0.15189E-01   -0.11000E+00  2544   0.186E+00    0.165E+00
DAV:  14    -0.132082282622E+04    0.31094E-02   -0.21152E-01  2624   0.102E+00    0.116E+00
DAV:  15    -0.132082686191E+04   -0.40357E-02   -0.84836E-02  2576   0.534E-01    0.696E-01
DAV:  16    -0.132082785045E+04   -0.98853E-03   -0.24671E-02  2608   0.294E-01    0.489E-01
DAV:  17    -0.132082845607E+04   -0.60563E-03   -0.13451E-02  2496   0.219E-01    0.267E-01
DAV:  18    -0.132082875165E+04   -0.29558E-03   -0.41901E-03  2480   0.123E-01    0.158E-01
DAV:  19    -0.132082861865E+04    0.13300E-03   -0.22638E-03  2576   0.932E-02    0.116E-01
DAV:  20    -0.132082865849E+04   -0.39841E-04   -0.81189E-04  2512   0.476E-02    0.551E-02
DAV:  21    -0.132082869006E+04   -0.31570E-04   -0.23962E-04  2576   0.314E-02    0.485E-02
DAV:  22    -0.132082869929E+04   -0.92329E-05   -0.95826E-05  2504   0.161E-02    0.192E-02
DAV:  23    -0.132082870523E+04   -0.59397E-05   -0.33520E-05  2072   0.114E-02    0.148E-02
DAV:  24    -0.132082870654E+04   -0.13069E-05   -0.14488E-05  1392   0.708E-03    0.804E-03
DAV:  25    -0.132082870818E+04   -0.16347E-05   -0.11580E-05  1544   0.702E-03    0.370E-03
DAV:  26    -0.132082870845E+04   -0.27710E-06   -0.23041E-06   944   0.443E-03
   1 F= -.13208287E+04 E0= -.13208284E+04  d E =-.132083E+04
 BRION: g(F)=  0.762E+02 g(S)=  0.000E+00
 bond charge predicted
       N       E                     dE             d eps       ncg     rms          rms(c)
DAV:   1    -0.125216014377E+04    0.68669E+02   -0.10354E+04  1712   0.153E+02    0.391E+01
DAV:   2    -0.134016432001E+04   -0.88004E+02   -0.10250E+03  2560   0.712E+01    0.187E+01
DAV:   3    -0.133712159599E+04    0.30427E+01   -0.62626E+01  2624   0.198E+01    0.119E+01
DAV:   4    -0.133385220334E+04    0.32694E+01   -0.22303E+01  2376   0.102E+01    0.543E+00
DAV:   5    -0.133377287495E+04    0.79328E-01   -0.76010E+00  2520   0.581E+00    0.399E+00
DAV:   6    -0.133367438021E+04    0.98495E-01   -0.36787E+00  2616   0.340E+00    0.213E+00
DAV:   7    -0.133362067773E+04    0.53702E-01   -0.48181E-01  2536   0.191E+00    0.107E+00
DAV:   8    -0.133363211656E+04   -0.11439E-01   -0.47406E-01  2592   0.120E+00    0.867E-01
DAV:   9    -0.133363241549E+04   -0.29894E-03   -0.75934E-02  2568   0.569E-01    0.625E-01
DAV:  10    -0.133362908715E+04    0.33283E-02   -0.47109E-02  2568   0.382E-01    0.274E-01
DAV:  11    -0.133363043238E+04   -0.13452E-02   -0.23213E-02  2600   0.274E-01    0.230E-01
DAV:  12    -0.133363015134E+04    0.28104E-03   -0.41579E-03  2616   0.146E-01    0.159E-01
DAV:  13    -0.133362994798E+04    0.20336E-03   -0.35535E-03  2520   0.103E-01    0.407E-02
DAV:  14    -0.133363000166E+04   -0.53682E-04   -0.65700E-04  2608   0.538E-02    0.240E-02
DAV:  15    -0.133363001156E+04   -0.98991E-05   -0.13123E-04  2608   0.256E-02    0.179E-02
DAV:  16    -0.133363001003E+04    0.15322E-05   -0.51183E-05  2624   0.159E-02    0.151E-02
DAV:  17    -0.133363001051E+04   -0.48493E-06   -0.24338E-05  2424   0.976E-03    0.912E-03
DAV:  18    -0.133363000960E+04    0.91507E-06   -0.98221E-06  1672   0.707E-03
   2 F= -.13336300E+04 E0= -.13336300E+04  d E =-.128013E+02
 BRION: g(F)=  0.228E+03 g(S)=  0.000E+00 retain N=  1 mean eig= 0.32
 eig:   0.325
 bond charge predicted
       N       E                     dE             d eps       ncg     rms          rms(c)
DAV:   1    -0.131433899555E+04    0.19291E+02   -0.33078E+03  1328   0.734E+01    0.263E+01
DAV:   2    -0.135432459174E+04   -0.39986E+02   -0.51025E+02  2512   0.369E+01    0.225E+01
DAV:   3    -0.134986943147E+04    0.44552E+01   -0.42500E+01  2520   0.135E+01    0.169E+01
DAV:   4    -0.134742824615E+04    0.24412E+01   -0.57238E+01  2104   0.926E+00    0.881E+00
DAV:   5    -0.134819081850E+04   -0.76257E+00   -0.11376E+01  2424   0.506E+00    0.102E+01
DAV:   6    -0.134632303053E+04    0.18678E+01   -0.16141E+01  2400   0.411E+00    0.163E+00
DAV:   7    -0.134643894548E+04   -0.11591E+00   -0.18497E+00  2376   0.296E+00    0.130E+00
DAV:   8    -0.134643287792E+04    0.60676E-02   -0.35022E-01  2616   0.108E+00    0.710E-01
DAV:   9    -0.134643049353E+04    0.23844E-02   -0.68562E-02  2552   0.524E-01    0.383E-01
DAV:  10    -0.134643056469E+04   -0.71159E-04   -0.25389E-02  2448   0.301E-01    0.213E-01
DAV:  11    -0.134643104354E+04   -0.47885E-03   -0.75025E-03  2592   0.185E-01    0.181E-01
DAV:  12    -0.134643063282E+04    0.41072E-03   -0.42834E-03  2616   0.119E-01    0.731E-02
DAV:  13    -0.134643073000E+04   -0.97178E-04   -0.19840E-03  2624   0.852E-02    0.563E-02
DAV:  14    -0.134643072611E+04    0.38885E-05   -0.34473E-04  2624   0.371E-02    0.354E-02
DAV:  15    -0.134643071580E+04    0.10313E-04   -0.13824E-04  2624   0.232E-02    0.166E-02
DAV:  16    -0.134643071770E+04   -0.19010E-05   -0.55904E-05  2608   0.144E-02    0.829E-03
DAV:  17    -0.134643071769E+04    0.97789E-08   -0.14106E-05  2128   0.845E-03    0.428E-03
DAV:  18    -0.134643071775E+04   -0.54846E-07   -0.45228E-06  1424   0.539E-03
   3 F= -.13464307E+04 E0= -.13464307E+04  d E =-.128007E+02
 BRION: g(F)=  0.297E+02 g(S)=  0.000E+00 retain N=  2 mean eig= 2.24
 eig:   0.202  4.272
 bond charge predicted
       N       E                     dE             d eps       ncg     rms          rms(c)
DAV:   1    -0.134421251346E+04    0.22182E+01   -0.98489E+02  1392   0.382E+01    0.104E+01
DAV:   2    -0.135140249760E+04   -0.71900E+01   -0.88521E+01  2392   0.183E+01    0.628E+00
DAV:   3    -0.135111540170E+04    0.28710E+00   -0.64844E+00  2480   0.605E+00    0.513E+00
DAV:   4    -0.135074959878E+04    0.36580E+00   -0.36824E+00  2240   0.304E+00    0.214E+00
DAV:   5    -0.135079290431E+04   -0.43306E-01   -0.11122E+00  2440   0.195E+00    0.242E+00
DAV:   6    -0.135070268161E+04    0.90223E-01   -0.67068E-01  2488   0.158E+00    0.100E+00
DAV:   7    -0.135070831353E+04   -0.56319E-02   -0.38031E-01  2432   0.104E+00    0.827E-01
DAV:   8    -0.135070516068E+04    0.31528E-02   -0.73781E-02  2488   0.523E-01    0.609E-01
DAV:   9    -0.135069996909E+04    0.51916E-02   -0.31039E-02  2424   0.300E-01    0.251E-01
DAV:  10    -0.135070078865E+04   -0.81956E-03   -0.22116E-02  2512   0.224E-01    0.169E-01
DAV:  11    -0.135070037541E+04    0.41324E-03   -0.29366E-03  2520   0.126E-01    0.758E-02
DAV:  12    -0.135070042530E+04   -0.49888E-04   -0.13637E-03  2488   0.640E-02    0.304E-02
DAV:  13    -0.135070044664E+04   -0.21343E-04   -0.21401E-04  2616   0.307E-02    0.183E-02
DAV:  14    -0.135070044960E+04   -0.29611E-05   -0.52920E-05  2616   0.145E-02    0.152E-02
DAV:  15    -0.135070044858E+04    0.10248E-05   -0.26746E-05  2424   0.984E-03    0.577E-03
DAV:  16    -0.135070044874E+04   -0.16749E-06   -0.39392E-06  1280   0.535E-03
   4 F= -.13507004E+04 E0= -.13507004E+04  d E =-.426973E+01
 BRION: g(F)=  0.797E+01 g(S)=  0.000E+00 retain N=  2 mean eig= 0.31
 eig:   0.306  0.306
 bond charge predicted
       N       E                     dE             d eps       ncg     rms          rms(c)
DAV:   1    -0.135231468004E+04   -0.16142E+01   -0.29803E+02  1368   0.243E+01    0.512E+00
DAV:   2    -0.135386556159E+04   -0.15509E+01   -0.16905E+01  2296   0.911E+00    0.241E+00
DAV:   3    -0.135387602994E+04   -0.10468E-01   -0.12285E+00  2616   0.208E+00    0.202E+00
DAV:   4    -0.135381822557E+04    0.57804E-01   -0.44844E-01  2472   0.131E+00    0.884E-01
DAV:   5    -0.135382023083E+04   -0.20053E-02   -0.12624E-01  2456   0.779E-01    0.729E-01
DAV:   6    -0.135381602224E+04    0.42086E-02   -0.11781E-01  2480   0.566E-01    0.301E-01
DAV:   7    -0.135381607054E+04   -0.48300E-04   -0.19563E-02  2424   0.296E-01    0.263E-01
DAV:   8    -0.135381559333E+04    0.47721E-03   -0.82075E-03  2376   0.152E-01    0.102E-01
DAV:   9    -0.135381568491E+04   -0.91579E-04   -0.32413E-03  2584   0.963E-02    0.766E-02
DAV:  10    -0.135381568668E+04   -0.17719E-05   -0.65339E-04  2304   0.529E-02    0.596E-02
DAV:  11    -0.135381565861E+04    0.28068E-04   -0.42925E-04  2400   0.357E-02    0.248E-02
DAV:  12    -0.135381566229E+04   -0.36729E-05   -0.14296E-04  2504   0.221E-02    0.168E-02
DAV:  13    -0.135381566345E+04   -0.11669E-05   -0.33702E-05  2408   0.128E-02    0.103E-02
DAV:  14    -0.135381566287E+04    0.58320E-06   -0.15457E-05  1968   0.750E-03    0.358E-03
DAV:  15    -0.135381566307E+04   -0.20620E-06   -0.23718E-06  1048   0.526E-03
   5 F= -.13538157E+04 E0= -.13538157E+04  d E =-.311521E+01
 BRION: g(F)=  0.366E+01 g(S)=  0.000E+00 retain N=  3 mean eig= 0.25
 eig:   0.182  0.182  0.386
 bond charge predicted
       N       E                     dE             d eps       ncg     rms          rms(c)
DAV:   1    -0.135452412703E+04   -0.70846E+00   -0.16407E+02  1360   0.173E+01    0.276E+00
DAV:   2    -0.135529433263E+04   -0.77021E+00   -0.82637E+00  2288   0.646E+00    0.144E+00
DAV:   3    -0.135530038309E+04   -0.60505E-02   -0.52900E-01  2608   0.133E+00    0.116E+00
DAV:   4    -0.135526854839E+04    0.31835E-01   -0.15763E-01  2520   0.788E-01    0.545E-01
DAV:   5    -0.135526570670E+04    0.28417E-02   -0.57288E-02  2464   0.487E-01    0.401E-01
DAV:   6    -0.135526477196E+04    0.93473E-03   -0.39555E-02  2552   0.352E-01    0.173E-01
DAV:   7    -0.135526485953E+04   -0.87564E-04   -0.67300E-03  2472   0.174E-01    0.137E-01
DAV:   8    -0.135526475870E+04    0.10083E-03   -0.25806E-03  2312   0.881E-02    0.549E-02
DAV:   9    -0.135526481177E+04   -0.53066E-04   -0.11715E-03  2624   0.578E-02    0.538E-02
DAV:  10    -0.135526479008E+04    0.21692E-04   -0.26357E-04  2552   0.340E-02    0.359E-02
DAV:  11    -0.135526478532E+04    0.47524E-05   -0.25318E-04  2536   0.267E-02    0.152E-02
DAV:  12    -0.135526478682E+04   -0.14982E-05   -0.47602E-05  2376   0.143E-02    0.937E-03
DAV:  13    -0.135526478664E+04    0.17880E-06   -0.11546E-05  1760   0.748E-03    0.516E-03
DAV:  14    -0.135526478685E+04   -0.20828E-06   -0.70051E-06  1552   0.583E-03
   6 F= -.13552648E+04 E0= -.13552648E+04  d E =-.144912E+01
 BRION: g(F)=  0.254E+01 g(S)=  0.000E+00 retain N=  4 mean eig= 0.65
 eig:   1.266  0.252  0.544  0.544
 bond charge predicted
       N       E                     dE             d eps       ncg     rms          rms(c)
DAV:   1    -0.135536741605E+04   -0.10263E+00   -0.32044E+02  1360   0.245E+01    0.344E+00
DAV:   2    -0.135694609261E+04   -0.15787E+01   -0.16517E+01  2280   0.904E+00    0.182E+00
DAV:   3    -0.135698457212E+04   -0.38480E-01   -0.10849E+00  2624   0.184E+00    0.147E+00
DAV:   4    -0.135693954976E+04    0.45022E-01   -0.19770E-01  2520   0.936E-01    0.800E-01
DAV:   5    -0.135692769812E+04    0.11852E-01   -0.80144E-02  2488   0.558E-01    0.389E-01
DAV:   6    -0.135692779634E+04   -0.98221E-04   -0.31209E-02  2592   0.326E-01    0.203E-01
DAV:   7    -0.135692778249E+04    0.13855E-04   -0.82048E-03  2480   0.186E-01    0.135E-01
DAV:   8    -0.135692793080E+04   -0.14831E-03   -0.39984E-03  2496   0.104E-01    0.847E-02
DAV:   9    -0.135692784943E+04    0.81362E-04   -0.74612E-04  2600   0.601E-02    0.538E-02
DAV:  10    -0.135692786210E+04   -0.12670E-04   -0.75475E-04  2432   0.477E-02    0.361E-02
DAV:  11    -0.135692785012E+04    0.11988E-04   -0.22193E-04  2536   0.320E-02    0.156E-02
DAV:  12    -0.135692785647E+04   -0.63500E-05   -0.10309E-04  2536   0.176E-02    0.119E-02
DAV:  13    -0.135692785545E+04    0.10203E-05   -0.17290E-05  2184   0.937E-03    0.631E-03
DAV:  14    -0.135692785549E+04   -0.39523E-07   -0.55337E-06  1368   0.570E-03
   7 F= -.13569279E+04 E0= -.13569279E+04  d E =-.166307E+01
 BRION: g(F)=  0.159E+01 g(S)=  0.000E+00 retain N=  5 mean eig= 0.66
 eig:   1.040  1.040  0.447  0.190  0.577
 bond charge predicted
       N       E                     dE             d eps       ncg     rms          rms(c)
DAV:   1    -0.135728162425E+04   -0.35377E+00   -0.78112E+01  1376   0.123E+01    0.188E+00
DAV:   2    -0.135766679762E+04   -0.38517E+00   -0.40556E+00  2288   0.458E+00    0.951E-01
DAV:   3    -0.135767980493E+04   -0.13007E-01   -0.29021E-01  2624   0.906E-01    0.751E-01
DAV:   4    -0.135766922028E+04    0.10585E-01   -0.52849E-02  2496   0.488E-01    0.380E-01
DAV:   5    -0.135766792664E+04    0.12936E-02   -0.20986E-02  2456   0.289E-01    0.209E-01
DAV:   6    -0.135766805790E+04   -0.13126E-03   -0.93001E-03  2576   0.174E-01    0.110E-01
DAV:   7    -0.135766798532E+04    0.72579E-04   -0.19367E-03  2360   0.945E-02    0.758E-02
DAV:   8    -0.135766800527E+04   -0.19947E-04   -0.10274E-03  2392   0.528E-02    0.431E-02
DAV:   9    -0.135766798611E+04    0.19162E-04   -0.20413E-04  2592   0.317E-02    0.263E-02
DAV:  10    -0.135766799273E+04   -0.66232E-05   -0.22889E-04  2504   0.255E-02    0.226E-02
DAV:  11    -0.135766798741E+04    0.53192E-05   -0.59981E-05  2376   0.164E-02    0.988E-03
DAV:  12    -0.135766798857E+04   -0.11632E-05   -0.27105E-05  2144   0.971E-03    0.624E-03
DAV:  13    -0.135766798808E+04    0.49557E-06   -0.21235E-06  1032   0.572E-03
   8 F= -.13576680E+04 E0= -.13576680E+04  d E =-.740133E+00
 BRION: g(F)=  0.553E+00 g(S)=  0.000E+00 retain N=  6 mean eig= 1.09
 eig:   2.235  2.235  0.676  0.209  0.596  0.596
 bond charge predicted
       N       E                     dE             d eps       ncg     rms          rms(c)
DAV:   1    -0.135777048303E+04   -0.10249E+00   -0.98953E+01  1400   0.141E+01    0.180E+00
DAV:   2    -0.135825960889E+04   -0.48913E+00   -0.51252E+00  2296   0.531E+00    0.906E-01
DAV:   3    -0.135828302242E+04   -0.23414E-01   -0.37665E-01  2624   0.102E+00    0.727E-01
DAV:   4    -0.135827400653E+04    0.90159E-02   -0.43351E-02  2600   0.489E-01    0.455E-01
DAV:   5    -0.135826914950E+04    0.48570E-02   -0.23043E-02  2344   0.324E-01    0.173E-01
DAV:   6    -0.135827000480E+04   -0.85530E-03   -0.12831E-02  2496   0.213E-01    0.165E-01
DAV:   7    -0.135826988198E+04    0.12282E-03   -0.35173E-03  2560   0.118E-01    0.115E-01
DAV:   8    -0.135826979412E+04    0.87857E-04   -0.17827E-03  2584   0.759E-02    0.523E-02
DAV:   9    -0.135826977956E+04    0.14561E-04   -0.27336E-04  2464   0.375E-02    0.370E-02
DAV:  10    -0.135826977982E+04   -0.26071E-06   -0.16565E-04  2328   0.257E-02    0.201E-02
DAV:  11    -0.135826977994E+04   -0.11783E-06   -0.50694E-05  2456   0.164E-02    0.108E-02
DAV:  12    -0.135826978202E+04   -0.20798E-05   -0.33505E-05  2272   0.100E-02    0.105E-02
DAV:  13    -0.135826978048E+04    0.15415E-05   -0.67266E-06  1472   0.658E-03    0.548E-03
DAV:  14    -0.135826978072E+04   -0.24370E-06   -0.91082E-06  1616   0.630E-03
   9 F= -.13582698E+04 E0= -.13582698E+04  d E =-.601793E+00
 BRION: g(F)=  0.435E+00 g(S)=  0.000E+00 retain N=  7 mean eig= 1.62
 eig:   4.414  4.414  0.910  0.456  0.456  0.222  0.445
 bond charge predicted
       N       E                     dE             d eps       ncg     rms          rms(c)
DAV:   1    -0.135839355916E+04   -0.12378E+00   -0.75360E+01  1400   0.122E+01    0.154E+00
DAV:   2    -0.135877158211E+04   -0.37802E+00   -0.39746E+00  2288   0.471E+00    0.765E-01
DAV:   3    -0.135879222917E+04   -0.20647E-01   -0.30527E-01  2608   0.915E-01    0.634E-01
DAV:   4    -0.135878664711E+04    0.55821E-02   -0.30832E-02  2576   0.417E-01    0.425E-01
DAV:   5    -0.135878244231E+04    0.42048E-02   -0.19110E-02  2256   0.282E-01    0.154E-01
DAV:   6    -0.135878329521E+04   -0.85290E-03   -0.10747E-02  2480   0.191E-01    0.164E-01
DAV:   7    -0.135878311769E+04    0.17752E-03   -0.33438E-03  2568   0.112E-01    0.107E-01
DAV:   8    -0.135878300878E+04    0.10892E-03   -0.14337E-03  2576   0.713E-02    0.478E-02
DAV:   9    -0.135878300325E+04    0.55264E-05   -0.23004E-04  2320   0.334E-02    0.339E-02
DAV:  10    -0.135878300555E+04   -0.23017E-05   -0.96315E-05  2360   0.191E-02    0.158E-02
DAV:  11    -0.135878300625E+04   -0.70040E-06   -0.28878E-05  2448   0.123E-02    0.853E-03
DAV:  12    -0.135878300773E+04   -0.14799E-05   -0.19598E-05  2200   0.820E-03    0.836E-03
DAV:  13    -0.135878300663E+04    0.11021E-05   -0.20662E-06  1032   0.547E-03    0.528E-03
DAV:  14    -0.135878300806E+04   -0.14253E-05   -0.22781E-05  1632   0.832E-03    0.680E-03
DAV:  15    -0.135878300748E+04    0.57206E-06   -0.15682E-06   992   0.524E-03
  10 F= -.13587830E+04 E0= -.13587830E+04  d E =-.513227E+00
 BRION: g(F)=  0.351E+00 g(S)=  0.000E+00 retain N=  8 mean eig= 1.85
 eig:   5.463  5.463  1.063  1.063  0.435  0.239  0.546  0.546
 bond charge predicted
       N       E                     dE             d eps       ncg     rms          rms(c)
DAV:   1    -0.135890212963E+04   -0.11912E+00   -0.67937E+01  1400   0.118E+01    0.141E+00
DAV:   2    -0.135924849133E+04   -0.34636E+00   -0.36624E+00  2296   0.457E+00    0.729E-01
DAV:   3    -0.135926977900E+04   -0.21288E-01   -0.29361E-01  2608   0.898E-01    0.604E-01
DAV:   4    -0.135926573929E+04    0.40397E-02   -0.27992E-02  2616   0.405E-01    0.429E-01
DAV:   5    -0.135926149029E+04    0.42490E-02   -0.16611E-02  2296   0.275E-01    0.167E-01
DAV:   6    -0.135926216392E+04   -0.67362E-03   -0.11955E-02  2416   0.207E-01    0.165E-01
DAV:   7    -0.135926202127E+04    0.14264E-03   -0.41145E-03  2488   0.124E-01    0.117E-01
DAV:   8    -0.135926192715E+04    0.94122E-04   -0.18081E-03  2560   0.788E-02    0.525E-02
DAV:   9    -0.135926190232E+04    0.24829E-04   -0.34570E-04  2264   0.394E-02    0.346E-02
DAV:  10    -0.135926190691E+04   -0.45862E-05   -0.11754E-04  2352   0.205E-02    0.196E-02
DAV:  11    -0.135926190544E+04    0.14716E-05   -0.37071E-05  2512   0.133E-02    0.111E-02
DAV:  12    -0.135926190626E+04   -0.82339E-06   -0.24414E-05  2320   0.100E-02    0.108E-02
DAV:  13    -0.135926190513E+04    0.11358E-05   -0.11283E-05  1760   0.667E-03    0.548E-03
DAV:  14    -0.135926190489E+04    0.23881E-06   -0.17522E-06   992   0.460E-03
  11 F= -.13592619E+04 E0= -.13592619E+04  d E =-.478897E+00
 BRION: g(F)=  0.231E+00 g(S)=  0.000E+00 retain N=  9 mean eig= 2.70
 eig:   6.997  6.997  3.770  3.770  0.547  0.612  0.612  0.799  0.237
 bond charge predicted
       N       E                     dE             d eps       ncg     rms          rms(c)
DAV:   1    -0.135938470667E+04   -0.12280E+00   -0.59350E+01  1408   0.110E+01    0.129E+00
DAV:   2    -0.135968485048E+04   -0.30014E+00   -0.31714E+00  2280   0.432E+00    0.668E-01
DAV:   3    -0.135970263981E+04   -0.17789E-01   -0.25269E-01  2600   0.839E-01    0.540E-01
DAV:   4    -0.135969894549E+04    0.36943E-02   -0.23505E-02  2616   0.372E-01    0.387E-01
DAV:   5    -0.135969494534E+04    0.40001E-02   -0.12925E-02  2320   0.255E-01    0.154E-01
DAV:   6    -0.135969535624E+04   -0.41089E-03   -0.10621E-02  2400   0.197E-01    0.131E-01
DAV:   7    -0.135969534260E+04    0.13641E-04   -0.33016E-03  2416   0.111E-01    0.102E-01
DAV:   8    -0.135969529458E+04    0.48020E-04   -0.13701E-03  2584   0.684E-02    0.498E-02
DAV:   9    -0.135969525774E+04    0.36839E-04   -0.36481E-04  2280   0.389E-02    0.296E-02
DAV:  10    -0.135969526435E+04   -0.66145E-05   -0.11460E-04  2336   0.211E-02    0.203E-02
DAV:  11    -0.135969526093E+04    0.34245E-05   -0.39709E-05  2488   0.130E-02    0.921E-03
DAV:  12    -0.135969526182E+04   -0.89519E-06   -0.18405E-05  2064   0.929E-03    0.789E-03
DAV:  13    -0.135969526149E+04    0.33516E-06   -0.83442E-06  1648   0.629E-03
  12 F= -.13596953E+04 E0= -.13596953E+04  d E =-.433357E+00
 BRION: g(F)=  0.169E+00 g(S)=  0.000E+00 retain N= 10 mean eig= 3.15
 eig:   7.162  7.162  6.340  6.340  0.755  0.249  0.665  0.665  1.078  1.078
 bond charge predicted
       N       E                     dE             d eps       ncg     rms          rms(c)
DAV:   1    -0.135980736794E+04   -0.11211E+00   -0.53100E+01  1408   0.104E+01    0.122E+00
DAV:   2    -0.136007895690E+04   -0.27159E+00   -0.28834E+00  2280   0.415E+00    0.627E-01
DAV:   3    -0.136009618409E+04   -0.17227E-01   -0.23805E-01  2592   0.806E-01    0.512E-01
DAV:   4    -0.136009317375E+04    0.30103E-02   -0.21696E-02  2624   0.357E-01    0.374E-01
DAV:   5    -0.136008958716E+04    0.35866E-02   -0.12222E-02  2312   0.237E-01    0.153E-01
DAV:   6    -0.136008991004E+04   -0.32288E-03   -0.93395E-03  2384   0.182E-01    0.131E-01
DAV:   7    -0.136008985921E+04    0.50830E-04   -0.32053E-03  2456   0.109E-01    0.956E-02
DAV:   8    -0.136008981519E+04    0.44021E-04   -0.14080E-03  2544   0.703E-02    0.458E-02
DAV:   9    -0.136008979633E+04    0.18856E-04   -0.31121E-04  2272   0.364E-02    0.296E-02
DAV:  10    -0.136008980143E+04   -0.50991E-05   -0.98982E-05  2496   0.192E-02    0.184E-02
DAV:  11    -0.136008979990E+04    0.15331E-05   -0.36010E-05  2448   0.128E-02    0.963E-03
DAV:  12    -0.136008980050E+04   -0.59951E-06   -0.16388E-05  1984   0.897E-03    0.853E-03
DAV:  13    -0.136008979994E+04    0.55246E-06   -0.97938E-06  1600   0.647E-03
  13 F= -.13600898E+04 E0= -.13600898E+04  d E =-.394538E+00
 BRION: g(F)=  0.149E+00 g(S)=  0.000E+00 retain N= 10 mean eig= 2.64
 eig:   6.459  6.459  3.312  3.312  2.053  2.053  1.154  0.548  0.517  0.517
 bond charge predicted
       N       E                     dE             d eps       ncg     rms          rms(c)
DAV:   1    -0.136019255530E+04   -0.10275E+00   -0.51434E+01  1400   0.103E+01    0.121E+00
DAV:   2    -0.136045480628E+04   -0.26225E+00   -0.27879E+00  2288   0.408E+00    0.617E-01
DAV:   3    -0.136047133060E+04   -0.16524E-01   -0.23065E-01  2592   0.806E-01    0.502E-01
DAV:   4    -0.136046835271E+04    0.29779E-02   -0.21404E-02  2616   0.354E-01    0.365E-01
DAV:   5    -0.136046489577E+04    0.34569E-02   -0.11609E-02  2320   0.233E-01    0.151E-01
DAV:   6    -0.136046516585E+04   -0.27007E-03   -0.90523E-03  2392   0.182E-01    0.125E-01
DAV:   7    -0.136046513258E+04    0.33269E-04   -0.32028E-03  2464   0.109E-01    0.932E-02
DAV:   8    -0.136046509908E+04    0.33504E-04   -0.14035E-03  2520   0.698E-02    0.450E-02
DAV:   9    -0.136046508195E+04    0.17124E-04   -0.31040E-04  2296   0.362E-02    0.296E-02
DAV:  10    -0.136046508636E+04   -0.44125E-05   -0.10689E-04  2480   0.203E-02    0.190E-02
DAV:  11    -0.136046508493E+04    0.14381E-05   -0.39819E-05  2480   0.134E-02    0.917E-03
DAV:  12    -0.136046508581E+04   -0.88601E-06   -0.17434E-05  2008   0.921E-03    0.860E-03
DAV:  13    -0.136046508519E+04    0.61792E-06   -0.10018E-05  1600   0.661E-03    0.438E-03
DAV:  14    -0.136046508500E+04    0.19358E-06   -0.20220E-06   984   0.522E-03
  14 F= -.13604651E+04 E0= -.13604651E+04  d E =-.375285E+00
 BRION: g(F)=  0.126E+00 g(S)=  0.000E+00 retain N= 11 mean eig= 3.08
 eig:   7.897  7.897  3.964  3.964  3.104  3.104  1.234  1.234  0.486  0.486
 bond charge predicted
       N       E                     dE             d eps       ncg     rms          rms(c)
DAV:   1    -0.136052904243E+04   -0.63957E-01   -0.56144E+01  1392   0.107E+01    0.124E+00
DAV:   2    -0.136081421067E+04   -0.28517E+00   -0.30189E+00  2296   0.421E+00    0.638E-01
DAV:   3    -0.136083196584E+04   -0.17755E-01   -0.24765E-01  2576   0.833E-01    0.513E-01
DAV:   4    -0.136082882620E+04    0.31396E-02   -0.23175E-02  2616   0.364E-01    0.376E-01
DAV:   5    -0.136082506144E+04    0.37648E-02   -0.11250E-02  2320   0.235E-01    0.165E-01
DAV:   6    -0.136082514076E+04   -0.79321E-04   -0.99000E-03  2368   0.193E-01    0.116E-01
DAV:   7    -0.136082519891E+04   -0.58148E-04   -0.39055E-03  2424   0.118E-01    0.969E-02
DAV:   8    -0.136082515804E+04    0.40864E-04   -0.13113E-03  2576   0.701E-02    0.520E-02
DAV:   9    -0.136082513068E+04    0.27368E-04   -0.41844E-04  2472   0.397E-02    0.292E-02
DAV:  10    -0.136082514038E+04   -0.97098E-05   -0.14418E-04  2528   0.235E-02    0.223E-02
DAV:  11    -0.136082513742E+04    0.29627E-05   -0.55215E-05  2440   0.159E-02    0.124E-02
DAV:  12    -0.136082513783E+04   -0.40907E-06   -0.28286E-05  2232   0.112E-02    0.114E-02
DAV:  13    -0.136082513674E+04    0.10892E-05   -0.16717E-05  1840   0.761E-03    0.558E-03
DAV:  14    -0.136082513659E+04    0.15674E-06   -0.42294E-06  1320   0.520E-03
  15 F= -.13608251E+04 E0= -.13608251E+04  d E =-.360052E+00
 BRION: g(F)=  0.109E+00 g(S)=  0.000E+00 retain N=  5 mean eig= 4.40
 eig:   7.953  7.953  2.274  2.274  1.555
 bond charge predicted
       N       E                     dE             d eps       ncg     rms          rms(c)
DAV:   1    -0.136091930190E+04   -0.94165E-01   -0.21258E+01  1400   0.663E+00    0.755E-01
DAV:   2    -0.136102803674E+04   -0.10873E+00   -0.11543E+00  2288   0.259E+00    0.386E-01
DAV:   3    -0.136103534728E+04   -0.73105E-02   -0.97251E-02  2576   0.524E-01    0.319E-01
DAV:   4    -0.136103436031E+04    0.98697E-03   -0.89047E-03  2616   0.228E-01    0.240E-01
DAV:   5    -0.136103303080E+04    0.13295E-02   -0.46641E-03  2368   0.138E-01    0.108E-01
DAV:   6    -0.136103303418E+04   -0.33731E-05   -0.34691E-03  2272   0.113E-01    0.793E-02
DAV:   7    -0.136103304820E+04   -0.14020E-04   -0.18319E-03  2432   0.794E-02    0.635E-02
DAV:   8    -0.136103302615E+04    0.22053E-04   -0.61712E-04  2528   0.495E-02    0.380E-02
DAV:   9    -0.136103301471E+04    0.11431E-04   -0.18339E-04  2480   0.258E-02    0.213E-02
DAV:  10    -0.136103301807E+04   -0.33577E-05   -0.57163E-05  2520   0.145E-02    0.143E-02
DAV:  11    -0.136103301863E+04   -0.55420E-06   -0.19301E-05  2088   0.960E-03    0.110E-02
DAV:  12    -0.136103301740E+04    0.12210E-05   -0.14628E-05  1872   0.838E-03    0.841E-03
DAV:  13    -0.136103301702E+04    0.38727E-06   -0.10160E-05  1760   0.648E-03    0.470E-03
DAV:  14    -0.136103301678E+04    0.23485E-06   -0.13953E-06   920   0.409E-03
  16 F= -.13610330E+04 E0= -.13610330E+04  d E =-.207880E+00
 BRION: g(F)=  0.102E+00 g(S)=  0.000E+00 retain N=  3 mean eig= 3.82
 eig:   4.985  4.985  1.483
 bond charge predicted
       N       E                     dE             d eps       ncg     rms          rms(c)
DAV:   1    -0.136113709411E+04   -0.10408E+00   -0.17819E+01  1376   0.604E+00    0.705E-01
DAV:   2    -0.136122742133E+04   -0.90327E-01   -0.95646E-01  2296   0.234E+00    0.359E-01
DAV:   3    -0.136123292203E+04   -0.55007E-02   -0.78048E-02  2576   0.469E-01    0.285E-01
DAV:   4    -0.136123183642E+04    0.10856E-02   -0.76953E-03  2592   0.208E-01    0.201E-01
DAV:   5    -0.136123077044E+04    0.10660E-02   -0.34375E-03  2384   0.130E-01    0.872E-02
DAV:   6    -0.136123079465E+04   -0.24217E-04   -0.27217E-03  2384   0.102E-01    0.592E-02
DAV:   7    -0.136123081800E+04   -0.23341E-04   -0.10837E-03  2456   0.631E-02    0.499E-02
DAV:   8    -0.136123080933E+04    0.86607E-05   -0.37115E-04  2592   0.363E-02    0.274E-02
DAV:   9    -0.136123080321E+04    0.61197E-05   -0.11762E-04  2488   0.213E-02    0.164E-02
DAV:  10    -0.136123080526E+04   -0.20459E-05   -0.42025E-05  2496   0.131E-02    0.127E-02
DAV:  11    -0.136123080401E+04    0.12473E-05   -0.16153E-05  1864   0.901E-03    0.612E-03
DAV:  12    -0.136123080428E+04   -0.26450E-06   -0.88480E-06  1744   0.712E-03
  17 F= -.13612308E+04 E0= -.13612308E+04  d E =-.197787E+00
 BRION: g(F)=  0.952E-01 g(S)=  0.000E+00 retain N=  3 mean eig= 3.70
 eig:   4.820  4.820  1.473
 bond charge predicted
       N       E                     dE             d eps       ncg     rms          rms(c)
DAV:   1    -0.136132761557E+04   -0.96812E-01   -0.17774E+01  1384   0.605E+00    0.692E-01
DAV:   2    -0.136141843285E+04   -0.90817E-01   -0.96186E-01  2296   0.234E+00    0.354E-01
DAV:   3    -0.136142427113E+04   -0.58383E-02   -0.79496E-02  2584   0.472E-01    0.284E-01
DAV:   4    -0.136142335996E+04    0.91117E-03   -0.74679E-03  2624   0.207E-01    0.210E-01
DAV:   5    -0.136142227688E+04    0.10831E-02   -0.35256E-03  2368   0.124E-01    0.945E-02
DAV:   6    -0.136142225405E+04    0.22837E-04   -0.27016E-03  2304   0.101E-01    0.620E-02
DAV:   7    -0.136142229042E+04   -0.36378E-04   -0.13542E-03  2464   0.686E-02    0.531E-02
DAV:   8    -0.136142227532E+04    0.15102E-04   -0.39177E-04  2560   0.400E-02    0.331E-02
DAV:   9    -0.136142226592E+04    0.93990E-05   -0.14332E-04  2464   0.224E-02    0.177E-02
DAV:  10    -0.136142226886E+04   -0.29333E-05   -0.49997E-05  2488   0.135E-02    0.125E-02
DAV:  11    -0.136142226861E+04    0.24884E-06   -0.15369E-05  1912   0.898E-03    0.809E-03
DAV:  12    -0.136142226824E+04    0.36834E-06   -0.11044E-05  1736   0.759E-03    0.682E-03
DAV:  13    -0.136142226784E+04    0.40117E-06   -0.60921E-06  1472   0.567E-03
  18 F= -.13614223E+04 E0= -.13614223E+04  d E =-.191464E+00
 BRION: g(F)=  0.912E-01 g(S)=  0.000E+00 retain N=  3 mean eig= 3.08
 eig:   4.000  4.000  1.238
 bond charge predicted
       N       E                     dE             d eps       ncg     rms          rms(c)
DAV:   1    -0.136151751158E+04   -0.95243E-01   -0.19266E+01  1384   0.629E+00    0.721E-01
DAV:   2    -0.136161622393E+04   -0.98712E-01   -0.10453E+00  2296   0.244E+00    0.366E-01
DAV:   3    -0.136162254803E+04   -0.63241E-02   -0.86363E-02  2584   0.493E-01    0.294E-01
DAV:   4    -0.136162157243E+04    0.97560E-03   -0.81355E-03  2624   0.216E-01    0.216E-01
DAV:   5    -0.136162043370E+04    0.11387E-02   -0.35803E-03  2408   0.126E-01    0.101E-01
DAV:   6    -0.136162036991E+04    0.63793E-04   -0.28501E-03  2272   0.105E-01    0.605E-02
DAV:   7    -0.136162042303E+04   -0.53119E-04   -0.15100E-03  2456   0.716E-02    0.560E-02
DAV:   8    -0.136162040920E+04    0.13831E-04   -0.39892E-04  2560   0.406E-02    0.379E-02
DAV:   9    -0.136162039413E+04    0.15065E-04   -0.17709E-04  2480   0.246E-02    0.187E-02
DAV:  10    -0.136162039835E+04   -0.42164E-05   -0.65366E-05  2472   0.155E-02    0.134E-02
DAV:  11    -0.136162039829E+04    0.61031E-07   -0.15108E-05  1976   0.900E-03    0.911E-03
DAV:  12    -0.136162039759E+04    0.69500E-06   -0.16603E-05  1768   0.861E-03    0.739E-03
DAV:  13    -0.136162039728E+04    0.31244E-06   -0.87834E-06  1672   0.643E-03
  19 F= -.13616204E+04 E0= -.13616204E+04  d E =-.198129E+00
 BRION: g(F)=  0.865E-01 g(S)=  0.000E+00 retain N=  3 mean eig= 3.77
 eig:   4.975  4.975  1.358
 bond charge predicted
       N       E                     dE             d eps       ncg     rms          rms(c)
DAV:   1    -0.136169861228E+04   -0.78215E-01   -0.51473E+00  1376   0.323E+00    0.370E-01
DAV:   2    -0.136172509596E+04   -0.26484E-01   -0.27975E-01  2312   0.126E+00    0.186E-01
DAV:   3    -0.136172676775E+04   -0.16718E-02   -0.22677E-02  2600   0.247E-01    0.152E-01
DAV:   4    -0.136172652318E+04    0.24457E-03   -0.20465E-03  2624   0.109E-01    0.113E-01
DAV:   5    -0.136172619071E+04    0.33247E-03   -0.91634E-04  2392   0.641E-02    0.521E-02
DAV:   6    -0.136172617218E+04    0.18537E-04   -0.81682E-04  2240   0.543E-02    0.311E-02
DAV:   7    -0.136172618677E+04   -0.14598E-04   -0.41008E-04  2440   0.373E-02    0.295E-02
DAV:   8    -0.136172618244E+04    0.43329E-05   -0.10612E-04  2528   0.210E-02    0.196E-02
DAV:   9    -0.136172617801E+04    0.44341E-05   -0.49074E-05  2360   0.128E-02    0.955E-03
DAV:  10    -0.136172617913E+04   -0.11215E-05   -0.16146E-05  1976   0.815E-03    0.687E-03
DAV:  11    -0.136172617888E+04    0.24895E-06   -0.16047E-06   992   0.505E-03
  20 F= -.13617262E+04 E0= -.13617262E+04  d E =-.105782E+00
 BRION: g(F)=  0.857E-01 g(S)=  0.000E+00 retain N=  3 mean eig= 2.66
 eig:   3.442  3.442  1.081
