 running on  160 total cores
 distrk:  each k-point on  160 cores,    1 groups
 distr:  one band on   20 cores,    8 groups
 using from now: INCAR     
 vasp.5.4.4.18Apr17-6-g9f103f2a35 (build May 01 2020 14:22:42) gamma-only       
  
 POSCAR found type information on POSCAR  O  La Zr Li Al
 POSCAR found :  5 types and     188 ions
 scaLAPACK will be used
 LDA part: xc-table for Pade appr. of Perdew
 POSCAR, INCAR and KPOINTS ok, starting setup
 FFT: planning ...
 WAVECAR not read
 WARNING: random wavefunctions but no delay for mixing, default for NELMDL
 entering main loop
       N       E                     dE             d eps       ncg     rms          rms(c)
DAV:   1     0.252359172635E+05    0.25236E+05   -0.42194E+05  1608   0.253E+03
DAV:   2     0.941951932697E+04   -0.15816E+05   -0.14638E+05  1440   0.705E+02
DAV:   3     0.269240818899E+04   -0.67271E+04   -0.61317E+04  1488   0.356E+02
DAV:   4    -0.358730992288E+03   -0.30511E+04   -0.28477E+04  2056   0.223E+02
DAV:   5    -0.140295990197E+04   -0.10442E+04   -0.10079E+04  2536   0.141E+02    0.117E+02
DAV:   6    -0.129034014488E+04    0.11262E+03   -0.14558E+03  2432   0.663E+01    0.502E+01
DAV:   7    -0.131241471361E+04   -0.22075E+02   -0.39239E+02  2560   0.344E+01    0.269E+01
DAV:   8    -0.131685525279E+04   -0.44405E+01   -0.19409E+02  2560   0.251E+01    0.215E+01
DAV:   9    -0.131640417841E+04    0.45107E+00   -0.29701E+01  2536   0.130E+01    0.124E+01
DAV:  10    -0.131456058834E+04    0.18436E+01   -0.19938E+01  2440   0.756E+00    0.675E+00
DAV:  11    -0.131482639333E+04   -0.26580E+00   -0.55108E+00  2568   0.447E+00    0.566E+00
DAV:  12    -0.131481917559E+04    0.72177E-02   -0.18706E+00  2448   0.242E+00    0.532E+00
DAV:  13    -0.131485714932E+04   -0.37974E-01   -0.23330E+00  2208   0.282E+00    0.331E+00
DAV:  14    -0.131481421916E+04    0.42930E-01   -0.13207E+00  2400   0.209E+00    0.221E+00
DAV:  15    -0.131474376891E+04    0.70450E-01   -0.44521E-01  2464   0.135E+00    0.129E+00
DAV:  16    -0.131473773997E+04    0.60289E-02   -0.11742E-01  2520   0.549E-01    0.880E-01
DAV:  17    -0.131473132641E+04    0.64136E-02   -0.53923E-02  2456   0.412E-01    0.496E-01
DAV:  18    -0.131473196169E+04   -0.63528E-03   -0.23840E-02  2496   0.283E-01    0.351E-01
DAV:  19    -0.131473163369E+04    0.32799E-03   -0.40408E-03  2496   0.137E-01    0.269E-01
DAV:  20    -0.131473139840E+04    0.23530E-03   -0.10598E-03  2592   0.665E-02    0.223E-01
DAV:  21    -0.131473076313E+04    0.63527E-03   -0.18039E-03  2416   0.751E-02    0.128E-01
DAV:  22    -0.131473072335E+04    0.39776E-04   -0.10951E-03  2512   0.537E-02    0.619E-02
DAV:  23    -0.131473070378E+04    0.19570E-04   -0.21869E-04  2480   0.288E-02    0.348E-02
DAV:  24    -0.131473069587E+04    0.79088E-05   -0.75290E-05  2440   0.138E-02    0.228E-02
DAV:  25    -0.131473070076E+04   -0.48857E-05   -0.20584E-05  2056   0.930E-03    0.137E-02
DAV:  26    -0.131473069988E+04    0.87953E-06   -0.17841E-05  1864   0.811E-03    0.123E-02
DAV:  27    -0.131473069967E+04    0.20824E-06   -0.51931E-06  1320   0.635E-03
   1 F= -.13147307E+04 E0= -.13146639E+04  d E =-.131473E+04
 BRION: g(F)=  0.787E+02 g(S)=  0.000E+00
 bond charge predicted
       N       E                     dE             d eps       ncg     rms          rms(c)
DAV:   1    -0.127101921725E+04    0.43711E+02   -0.89051E+03  1744   0.145E+02    0.331E+01
DAV:   2    -0.134368519068E+04   -0.72666E+02   -0.82663E+02  2576   0.673E+01    0.168E+01
DAV:   3    -0.134090817850E+04    0.27770E+01   -0.45910E+01  2624   0.173E+01    0.112E+01
DAV:   4    -0.133803150943E+04    0.28767E+01   -0.20165E+01  2368   0.967E+00    0.504E+00
DAV:   5    -0.133801698022E+04    0.14529E-01   -0.67738E+00  2536   0.548E+00    0.392E+00
DAV:   6    -0.133790440475E+04    0.11258E+00   -0.33448E+00  2600   0.314E+00    0.193E+00
DAV:   7    -0.133786568574E+04    0.38719E-01   -0.42526E-01  2544   0.179E+00    0.113E+00
DAV:   8    -0.133786543394E+04    0.25180E-03   -0.48587E-01  2592   0.125E+00    0.828E-01
DAV:   9    -0.133786712130E+04   -0.16874E-02   -0.91296E-02  2536   0.622E-01    0.686E-01
DAV:  10    -0.133786359622E+04    0.35251E-02   -0.47235E-02  2432   0.363E-01    0.359E-01
DAV:  11    -0.133786368756E+04   -0.91348E-04   -0.33959E-02  2512   0.303E-01    0.202E-01
DAV:  12    -0.133786355398E+04    0.13359E-03   -0.62004E-03  2320   0.183E-01    0.152E-01
DAV:  13    -0.133786349621E+04    0.57771E-04   -0.41430E-03  2392   0.104E-01    0.611E-02
DAV:  14    -0.133786352066E+04   -0.24452E-04   -0.88693E-04  2600   0.567E-02    0.266E-02
DAV:  15    -0.133786353171E+04   -0.11052E-04   -0.15910E-04  2624   0.291E-02    0.170E-02
DAV:  16    -0.133786353419E+04   -0.24787E-05   -0.56981E-05  2576   0.151E-02    0.149E-02
DAV:  17    -0.133786353258E+04    0.16101E-05   -0.30772E-05  2208   0.102E-02    0.480E-03
DAV:  18    -0.133786353304E+04   -0.45830E-06   -0.50831E-06  1320   0.622E-03
   2 F= -.13378635E+04 E0= -.13378635E+04  d E =-.231328E+02
 BRION: g(F)=  0.124E+03 g(S)=  0.000E+00 retain N=  1 mean eig= 0.42
 eig:   0.420
 bond charge predicted
       N       E                     dE             d eps       ncg     rms          rms(c)
DAV:   1    -0.131730070715E+04    0.20563E+02   -0.30542E+03  1344   0.709E+01    0.238E+01
DAV:   2    -0.135361415232E+04   -0.36313E+02   -0.46578E+02  2464   0.354E+01    0.220E+01
DAV:   3    -0.135041607968E+04    0.31981E+01   -0.45269E+01  2576   0.143E+01    0.167E+01
DAV:   4    -0.134743252810E+04    0.29836E+01   -0.44484E+01  2184   0.721E+00    0.835E+00
DAV:   5    -0.134867715053E+04   -0.12446E+01   -0.11282E+01  2464   0.464E+00    0.102E+01
DAV:   6    -0.134684982835E+04    0.18273E+01   -0.19005E+01  2408   0.419E+00    0.200E+00
DAV:   7    -0.134696861548E+04   -0.11879E+00   -0.22631E+00  2440   0.347E+00    0.184E+00
DAV:   8    -0.134692864925E+04    0.39966E-01   -0.58354E-01  2528   0.122E+00    0.640E-01
DAV:   9    -0.134693059756E+04   -0.19483E-02   -0.78911E-02  2512   0.574E-01    0.364E-01
DAV:  10    -0.134693000076E+04    0.59680E-03   -0.20231E-02  2272   0.271E-01    0.228E-01
DAV:  11    -0.134693007374E+04   -0.72980E-04   -0.83917E-03  2464   0.165E-01    0.137E-01
DAV:  12    -0.134693013704E+04   -0.63302E-04   -0.23901E-03  2624   0.897E-02    0.110E-01
DAV:  13    -0.134692996339E+04    0.17365E-03   -0.23700E-03  2424   0.861E-02    0.408E-02
DAV:  14    -0.134693001629E+04   -0.52904E-04   -0.69744E-04  2280   0.522E-02    0.440E-02
DAV:  15    -0.134693000450E+04    0.11792E-04   -0.18587E-04  2576   0.245E-02    0.275E-02
DAV:  16    -0.134692999694E+04    0.75574E-05   -0.90470E-05  2496   0.162E-02    0.851E-03
DAV:  17    -0.134692999872E+04   -0.17726E-05   -0.19011E-05  2200   0.928E-03    0.396E-03
DAV:  18    -0.134692999895E+04   -0.23637E-06   -0.54951E-06  1520   0.527E-03
   3 F= -.13469300E+04 E0= -.13469300E+04  d E =-.906647E+01
 BRION: g(F)=  0.207E+02 g(S)=  0.000E+00 retain N=  2 mean eig= 1.39
 eig:   0.246  2.526
 bond charge predicted
       N       E                     dE             d eps       ncg     rms          rms(c)
DAV:   1    -0.134622315683E+04    0.70684E+00   -0.86486E+02  1424   0.348E+01    0.914E+00
DAV:   2    -0.135218599335E+04   -0.59628E+01   -0.72178E+01  2472   0.162E+01    0.537E+00
DAV:   3    -0.135188717769E+04    0.29882E+00   -0.44156E+00  2496   0.481E+00    0.420E+00
DAV:   4    -0.135161731945E+04    0.26986E+00   -0.28082E+00  2288   0.240E+00    0.179E+00
DAV:   5    -0.135162036085E+04   -0.30414E-02   -0.55089E-01  2504   0.145E+00    0.182E+00
DAV:   6    -0.135157150989E+04    0.48851E-01   -0.44746E-01  2520   0.120E+00    0.672E-01
DAV:   7    -0.135157616754E+04   -0.46577E-02   -0.20715E-01  2456   0.698E-01    0.657E-01
DAV:   8    -0.135157467131E+04    0.14962E-02   -0.43257E-02  2592   0.355E-01    0.493E-01
DAV:   9    -0.135157120437E+04    0.34669E-02   -0.18566E-02  2536   0.220E-01    0.196E-01
DAV:  10    -0.135157149315E+04   -0.28878E-03   -0.10405E-02  2536   0.144E-01    0.111E-01
DAV:  11    -0.135157132788E+04    0.16527E-03   -0.11185E-03  2608   0.819E-02    0.687E-02
DAV:  12    -0.135157131846E+04    0.94152E-05   -0.10378E-03  2400   0.467E-02    0.236E-02
DAV:  13    -0.135157132964E+04   -0.11182E-04   -0.12345E-04  2552   0.239E-02    0.168E-02
DAV:  14    -0.135157132822E+04    0.14247E-05   -0.33924E-05  2520   0.111E-02    0.104E-02
DAV:  15    -0.135157132772E+04    0.50059E-06   -0.14933E-05  1864   0.776E-03    0.386E-03
DAV:  16    -0.135157132766E+04    0.60216E-07   -0.27594E-06  1096   0.480E-03
   4 F= -.13515713E+04 E0= -.13515713E+04  d E =-.464133E+01
 BRION: g(F)=  0.649E+01 g(S)=  0.000E+00 retain N=  3 mean eig= 2.38
 eig:   6.383  0.386  0.386
 bond charge predicted
       N       E                     dE             d eps       ncg     rms          rms(c)
DAV:   1    -0.135328544258E+04   -0.17141E+01   -0.30334E+02  1352   0.235E+01    0.401E+00
DAV:   2    -0.135476858558E+04   -0.14831E+01   -0.15899E+01  2288   0.869E+00    0.212E+00
DAV:   3    -0.135477838600E+04   -0.98004E-02   -0.99905E-01  2608   0.186E+00    0.169E+00
DAV:   4    -0.135472361164E+04    0.54774E-01   -0.35380E-01  2456   0.114E+00    0.745E-01
DAV:   5    -0.135472243371E+04    0.11779E-02   -0.10088E-01  2488   0.669E-01    0.587E-01
DAV:   6    -0.135472067233E+04    0.17614E-02   -0.84539E-02  2448   0.483E-01    0.258E-01
DAV:   7    -0.135472048295E+04    0.18938E-03   -0.13838E-02  2448   0.247E-01    0.210E-01
DAV:   8    -0.135472025390E+04    0.22905E-03   -0.70086E-03  2416   0.136E-01    0.787E-02
DAV:   9    -0.135472033642E+04   -0.82519E-04   -0.19919E-03  2584   0.857E-02    0.742E-02
DAV:  10    -0.135472027837E+04    0.58052E-04   -0.73368E-04  2552   0.526E-02    0.345E-02
DAV:  11    -0.135472029646E+04   -0.18086E-04   -0.39607E-04  2592   0.350E-02    0.224E-02
DAV:  12    -0.135472029416E+04    0.22948E-05   -0.58533E-05  2528   0.157E-02    0.132E-02
DAV:  13    -0.135472029383E+04    0.33046E-06   -0.29682E-05  2464   0.102E-02    0.611E-03
DAV:  14    -0.135472029435E+04   -0.51316E-06   -0.92292E-06  1816   0.652E-03
   5 F= -.13547203E+04 E0= -.13547203E+04  d E =-.314897E+01
 BRION: g(F)=  0.309E+01 g(S)=  0.000E+00 retain N=  4 mean eig= 1.98
 eig:   5.742  1.102  0.547  0.547
 bond charge predicted
       N       E                     dE             d eps       ncg     rms          rms(c)
DAV:   1    -0.135571980989E+04   -0.99952E+00   -0.24568E+02  1360   0.214E+01    0.329E+00
DAV:   2    -0.135693806673E+04   -0.12183E+01   -0.13001E+01  2288   0.786E+00    0.174E+00
DAV:   3    -0.135697137106E+04   -0.33304E-01   -0.87413E-01  2592   0.176E+00    0.148E+00
DAV:   4    -0.135693814515E+04    0.33226E-01   -0.17950E-01  2528   0.883E-01    0.819E-01
DAV:   5    -0.135692995007E+04    0.81951E-02   -0.90547E-02  2448   0.571E-01    0.468E-01
DAV:   6    -0.135693027629E+04   -0.32622E-03   -0.37978E-02  2544   0.374E-01    0.348E-01
DAV:   7    -0.135692924112E+04    0.10352E-02   -0.19143E-02  2488   0.248E-01    0.183E-01
DAV:   8    -0.135692927886E+04   -0.37739E-04   -0.53028E-03  2552   0.136E-01    0.947E-02
DAV:   9    -0.135692921104E+04    0.67823E-04   -0.11619E-03  2600   0.685E-02    0.592E-02
DAV:  10    -0.135692926275E+04   -0.51707E-04   -0.76158E-04  2384   0.460E-02    0.500E-02
DAV:  11    -0.135692922293E+04    0.39814E-04   -0.24027E-04  2504   0.334E-02    0.177E-02
DAV:  12    -0.135692923313E+04   -0.10200E-04   -0.15935E-04  2440   0.217E-02    0.169E-02
DAV:  13    -0.135692923022E+04    0.29130E-05   -0.30964E-05  2256   0.120E-02    0.811E-03
DAV:  14    -0.135692923055E+04   -0.33430E-06   -0.14528E-05  1808   0.707E-03    0.370E-03
DAV:  15    -0.135692923066E+04   -0.10831E-06   -0.14910E-06  1048   0.420E-03
   6 F= -.13569292E+04 E0= -.13569292E+04  d E =-.220894E+01
 BRION: g(F)=  0.215E+01 g(S)=  0.000E+00 retain N=  5 mean eig= 1.87
 eig:   5.201  1.965  0.679  0.679  0.844
 bond charge predicted
       N       E                     dE             d eps       ncg     rms          rms(c)
DAV:   1    -0.135724782684E+04   -0.31860E+00   -0.36252E+02  1368   0.264E+01    0.366E+00
DAV:   2    -0.135922461277E+04   -0.19768E+01   -0.20670E+01  2312   0.991E+00    0.201E+00
DAV:   3    -0.135928123990E+04   -0.56627E-01   -0.13892E+00  2600   0.206E+00    0.172E+00
DAV:   4    -0.135923815520E+04    0.43085E-01   -0.24218E-01  2576   0.998E-01    0.102E+00
DAV:   5    -0.135921346563E+04    0.24690E-01   -0.10057E-01  2424   0.625E-01    0.433E-01
DAV:   6    -0.135921627353E+04   -0.28079E-02   -0.66312E-02  2464   0.479E-01    0.418E-01
DAV:   7    -0.135921435115E+04    0.19224E-02   -0.22996E-02  2440   0.294E-01    0.281E-01
DAV:   8    -0.135921421815E+04    0.13300E-03   -0.13930E-02  2472   0.184E-01    0.113E-01
DAV:   9    -0.135921415193E+04    0.66217E-04   -0.20604E-03  2440   0.876E-02    0.823E-02
DAV:  10    -0.135921413915E+04    0.12782E-04   -0.69119E-04  2560   0.491E-02    0.534E-02
DAV:  11    -0.135921412295E+04    0.16202E-04   -0.37055E-04  2584   0.365E-02    0.219E-02
DAV:  12    -0.135921412709E+04   -0.41406E-05   -0.11731E-04  2480   0.232E-02    0.180E-02
DAV:  13    -0.135921412713E+04   -0.38752E-07   -0.65261E-05  2376   0.142E-02    0.107E-02
DAV:  14    -0.135921412776E+04   -0.63369E-06   -0.17393E-05  1824   0.810E-03    0.797E-03
DAV:  15    -0.135921412698E+04    0.78543E-06   -0.60563E-06  1392   0.616E-03
   7 F= -.13592141E+04 E0= -.13592141E+04  d E =-.228490E+01
 BRION: g(F)=  0.948E+00 g(S)=  0.000E+00 retain N=  6 mean eig= 2.27
 eig:   7.390  1.359  1.817  1.817  0.614  0.614
 bond charge predicted
       N       E                     dE             d eps       ncg     rms          rms(c)
DAV:   1    -0.135972482581E+04   -0.51070E+00   -0.10868E+02  1376   0.148E+01    0.216E+00
DAV:   2    -0.136027520218E+04   -0.55038E+00   -0.58407E+00  2296   0.566E+00    0.106E+00
DAV:   3    -0.136030096903E+04   -0.25767E-01   -0.44649E-01  2608   0.114E+00    0.840E-01
DAV:   4    -0.136028935908E+04    0.11610E-01   -0.68856E-02  2544   0.586E-01    0.448E-01
DAV:   5    -0.136028725000E+04    0.21091E-02   -0.27157E-02  2448   0.333E-01    0.222E-01
DAV:   6    -0.136028781532E+04   -0.56532E-03   -0.11743E-02  2600   0.204E-01    0.142E-01
DAV:   7    -0.136028770134E+04    0.11398E-03   -0.32902E-03  2376   0.118E-01    0.969E-02
DAV:   8    -0.136028773335E+04   -0.32009E-04   -0.18218E-03  2424   0.729E-02    0.578E-02
DAV:   9    -0.136028770405E+04    0.29304E-04   -0.29575E-04  2552   0.410E-02    0.409E-02
DAV:  10    -0.136028770617E+04   -0.21195E-05   -0.42334E-04  2440   0.345E-02    0.270E-02
DAV:  11    -0.136028770053E+04    0.56352E-05   -0.97552E-05  2456   0.214E-02    0.117E-02
DAV:  12    -0.136028770286E+04   -0.23290E-05   -0.40417E-05  2400   0.118E-02    0.890E-03
DAV:  13    -0.136028770214E+04    0.72175E-06   -0.74039E-06  1584   0.708E-03
   8 F= -.13602877E+04 E0= -.13602877E+04  d E =-.107358E+01
 BRION: g(F)=  0.671E+00 g(S)=  0.000E+00 retain N=  6 mean eig= 1.17
 eig:   2.366  2.366  0.536  0.226  0.773  0.773
 bond charge predicted
       N       E                     dE             d eps       ncg     rms          rms(c)
DAV:   1    -0.136070199697E+04   -0.41429E+00   -0.11370E+02  1400   0.152E+01    0.192E+00
DAV:   2    -0.136129067145E+04   -0.58867E+00   -0.62163E+00  2296   0.587E+00    0.955E-01
DAV:   3    -0.136132293727E+04   -0.32266E-01   -0.48194E-01  2616   0.116E+00    0.766E-01
DAV:   4    -0.136131359317E+04    0.93441E-02   -0.55623E-02  2592   0.553E-01    0.470E-01
DAV:   5    -0.136130968355E+04    0.39096E-02   -0.22447E-02  2472   0.302E-01    0.182E-01
DAV:   6    -0.136131038786E+04   -0.70431E-03   -0.10366E-02  2528   0.189E-01    0.128E-01
DAV:   7    -0.136131038496E+04    0.29013E-05   -0.37195E-03  2448   0.122E-01    0.903E-02
DAV:   8    -0.136131041031E+04   -0.25349E-04   -0.15595E-03  2560   0.715E-02    0.525E-02
DAV:   9    -0.136131039825E+04    0.12053E-04   -0.30818E-04  2528   0.391E-02    0.402E-02
DAV:  10    -0.136131040038E+04   -0.21292E-05   -0.26830E-04  2560   0.296E-02    0.241E-02
DAV:  11    -0.136131039719E+04    0.31898E-05   -0.85716E-05  2464   0.195E-02    0.100E-02
DAV:  12    -0.136131039940E+04   -0.22041E-05   -0.30596E-05  2320   0.115E-02    0.930E-03
DAV:  13    -0.136131039844E+04    0.95171E-06   -0.89407E-06  1632   0.679E-03
   9 F= -.13613104E+04 E0= -.13613104E+04  d E =-.102270E+01
 BRION: g(F)=  0.574E+00 g(S)=  0.000E+00 retain N=  7 mean eig= 1.33
 eig:   2.904  2.904  0.329  0.329  1.142  1.142  0.591
 bond charge predicted
       N       E                     dE             d eps       ncg     rms          rms(c)
DAV:   1    -0.136163078974E+04   -0.32039E+00   -0.10441E+02  1392   0.148E+01    0.184E+00
DAV:   2    -0.136218778721E+04   -0.55700E+00   -0.59315E+00  2296   0.582E+00    0.936E-01
DAV:   3    -0.136222066581E+04   -0.32879E-01   -0.47924E-01  2608   0.116E+00    0.758E-01
DAV:   4    -0.136221236679E+04    0.82990E-02   -0.51172E-02  2592   0.547E-01    0.492E-01
DAV:   5    -0.136220779399E+04    0.45728E-02   -0.24247E-02  2392   0.303E-01    0.185E-01
DAV:   6    -0.136220858418E+04   -0.79019E-03   -0.11932E-02  2480   0.203E-01    0.146E-01
DAV:   7    -0.136220855560E+04    0.28577E-04   -0.49701E-03  2496   0.134E-01    0.983E-02
DAV:   8    -0.136220855518E+04    0.42407E-06   -0.16978E-03  2616   0.804E-02    0.569E-02
DAV:   9    -0.136220853822E+04    0.16961E-04   -0.32842E-04  2544   0.400E-02    0.427E-02
DAV:  10    -0.136220854619E+04   -0.79725E-05   -0.26148E-04  2536   0.283E-02    0.260E-02
DAV:  11    -0.136220854312E+04    0.30758E-05   -0.93918E-05  2480   0.204E-02    0.114E-02
DAV:  12    -0.136220854495E+04   -0.18366E-05   -0.31697E-05  2336   0.125E-02    0.104E-02
DAV:  13    -0.136220854395E+04    0.10014E-05   -0.13638E-05  1808   0.744E-03    0.481E-03
DAV:  14    -0.136220854401E+04   -0.55661E-07   -0.44014E-06  1264   0.585E-03
  10 F= -.13622085E+04 E0= -.13622085E+04  d E =-.898146E+00
 BRION: g(F)=  0.404E+00 g(S)=  0.000E+00 retain N=  8 mean eig= 2.03
 eig:   5.193  5.193  1.513  1.513  0.748  0.748  0.475  0.866
 bond charge predicted
       N       E                     dE             d eps       ncg     rms          rms(c)
DAV:   1    -0.136230614172E+04   -0.97598E-01   -0.14984E+02  1392   0.176E+01    0.210E+00
DAV:   2    -0.136312204331E+04   -0.81590E+00   -0.86721E+00  2304   0.706E+00    0.106E+00
DAV:   3    -0.136317137373E+04   -0.49330E-01   -0.70085E-01  2608   0.139E+00    0.861E-01
DAV:   4    -0.136316117139E+04    0.10202E-01   -0.68410E-02  2608   0.639E-01    0.599E-01
DAV:   5    -0.136315293454E+04    0.82368E-02   -0.28660E-02  2456   0.335E-01    0.249E-01
DAV:   6    -0.136315313360E+04   -0.19906E-03   -0.18898E-02  2360   0.253E-01    0.149E-01
DAV:   7    -0.136315340918E+04   -0.27558E-03   -0.95464E-03  2424   0.179E-01    0.123E-01
DAV:   8    -0.136315339874E+04    0.10437E-04   -0.23854E-03  2624   0.990E-02    0.780E-02
DAV:   9    -0.136315336027E+04    0.38472E-04   -0.82688E-04  2608   0.568E-02    0.502E-02
DAV:  10    -0.136315337923E+04   -0.18959E-04   -0.33404E-04  2608   0.349E-02    0.340E-02
DAV:  11    -0.136315338011E+04   -0.87687E-06   -0.14310E-04  2480   0.240E-02    0.197E-02
DAV:  12    -0.136315337765E+04    0.24537E-05   -0.76622E-05  2360   0.186E-02    0.148E-02
DAV:  13    -0.136315337681E+04    0.84453E-06   -0.40760E-05  2328   0.117E-02    0.830E-03
DAV:  14    -0.136315337693E+04   -0.11695E-06   -0.15704E-05  1904   0.727E-03    0.409E-03
DAV:  15    -0.136315337692E+04    0.68831E-08   -0.14609E-06   968   0.442E-03
  11 F= -.13631534E+04 E0= -.13631534E+04  d E =-.944833E+00
 BRION: g(F)=  0.287E+00 g(S)=  0.000E+00 retain N=  9 mean eig= 2.73
 eig:   7.336  7.336  3.036  3.036  0.584  0.584  1.131  1.131  0.418
 bond charge predicted
       N       E                     dE             d eps       ncg     rms          rms(c)
DAV:   1    -0.136332111459E+04   -0.16774E+00   -0.75706E+01  1392   0.126E+01    0.149E+00
DAV:   2    -0.136372881726E+04   -0.40770E+00   -0.43289E+00  2296   0.499E+00    0.756E-01
DAV:   3    -0.136375431406E+04   -0.25497E-01   -0.35268E-01  2584   0.992E-01    0.614E-01
DAV:   4    -0.136374957850E+04    0.47356E-02   -0.33843E-02  2584   0.448E-01    0.437E-01
DAV:   5    -0.136374528680E+04    0.42917E-02   -0.15533E-02  2416   0.242E-01    0.178E-01
DAV:   6    -0.136374550140E+04   -0.21460E-03   -0.99158E-03  2392   0.182E-01    0.114E-01
DAV:   7    -0.136374560446E+04   -0.10307E-03   -0.47517E-03  2456   0.125E-01    0.885E-02
DAV:   8    -0.136374558535E+04    0.19114E-04   -0.13265E-03  2616   0.751E-02    0.539E-02
DAV:   9    -0.136374557227E+04    0.13082E-04   -0.36199E-04  2568   0.386E-02    0.367E-02
DAV:  10    -0.136374557800E+04   -0.57286E-05   -0.14381E-04  2568   0.227E-02    0.222E-02
DAV:  11    -0.136374557955E+04   -0.15539E-05   -0.58615E-05  2488   0.159E-02    0.136E-02
DAV:  12    -0.136374557869E+04    0.85644E-06   -0.29164E-05  2328   0.120E-02    0.101E-02
DAV:  13    -0.136374557831E+04    0.38619E-06   -0.18766E-05  2120   0.786E-03    0.533E-03
DAV:  14    -0.136374557807E+04    0.23503E-06   -0.30416E-06  1128   0.512E-03
  12 F= -.13637456E+04 E0= -.13637456E+04  d E =-.592201E+00
 BRION: g(F)=  0.229E+00 g(S)=  0.000E+00 retain N=  9 mean eig= 2.78
 eig:   7.353  7.353  2.697  2.697  0.813  0.813  1.088  1.088  1.095
 bond charge predicted
       N       E                     dE             d eps       ncg     rms          rms(c)
DAV:   1    -0.136382957868E+04   -0.84000E-01   -0.82272E+01  1400   0.131E+01    0.149E+00
DAV:   2    -0.136427297075E+04   -0.44339E+00   -0.47019E+00  2296   0.523E+00    0.764E-01
DAV:   3    -0.136430154690E+04   -0.28576E-01   -0.38581E-01  2584   0.103E+00    0.636E-01
DAV:   4    -0.136429754302E+04    0.40039E-02   -0.34936E-02  2616   0.456E-01    0.479E-01
DAV:   5    -0.136429222819E+04    0.53148E-02   -0.15747E-02  2400   0.246E-01    0.221E-01
DAV:   6    -0.136429192819E+04    0.30000E-03   -0.13226E-02  2240   0.214E-01    0.133E-01
DAV:   7    -0.136429216081E+04   -0.23262E-03   -0.82500E-03  2424   0.158E-01    0.120E-01
DAV:   8    -0.136429210162E+04    0.59193E-04   -0.18463E-03  2600   0.908E-02    0.843E-02
DAV:   9    -0.136429202971E+04    0.71910E-04   -0.79303E-04  2536   0.517E-02    0.442E-02
DAV:  10    -0.136429204295E+04   -0.13242E-04   -0.22872E-04  2536   0.301E-02    0.280E-02
DAV:  11    -0.136429205194E+04   -0.89815E-05   -0.72970E-05  2224   0.172E-02    0.225E-02
DAV:  12    -0.136429204586E+04    0.60773E-05   -0.79892E-05  2192   0.183E-02    0.166E-02
DAV:  13    -0.136429204514E+04    0.71776E-06   -0.38175E-05  2320   0.122E-02    0.134E-02
DAV:  14    -0.136429204348E+04    0.16561E-05   -0.14489E-05  1848   0.716E-03    0.535E-03
DAV:  15    -0.136429204325E+04    0.23165E-06   -0.19301E-06  1040   0.474E-03
  13 F= -.13642920E+04 E0= -.13642920E+04  d E =-.546465E+00
 BRION: g(F)=  0.188E+00 g(S)=  0.000E+00 retain N=  9 mean eig= 3.46
 eig:   7.976  7.976  4.329  4.329  1.530  1.530  1.043  1.209  1.209
 bond charge predicted
       N       E                     dE             d eps       ncg     rms          rms(c)
DAV:   1    -0.136437208217E+04   -0.80039E-01   -0.54389E+01  1400   0.106E+01    0.122E+00
DAV:   2    -0.136466273491E+04   -0.29065E+00   -0.30687E+00  2296   0.426E+00    0.627E-01
DAV:   3    -0.136468079311E+04   -0.18058E-01   -0.24703E-01  2584   0.823E-01    0.514E-01
DAV:   4    -0.136467794417E+04    0.28489E-02   -0.22782E-02  2608   0.366E-01    0.383E-01
DAV:   5    -0.136467453951E+04    0.34047E-02   -0.99503E-03  2416   0.198E-01    0.178E-01
DAV:   6    -0.136467431687E+04    0.22264E-03   -0.84736E-03  2240   0.171E-01    0.970E-02
DAV:   7    -0.136467449779E+04   -0.18092E-03   -0.49553E-03  2392   0.122E-01    0.923E-02
DAV:   8    -0.136467446272E+04    0.35075E-04   -0.10273E-03  2608   0.673E-02    0.655E-02
DAV:   9    -0.136467441971E+04    0.43010E-04   -0.48433E-04  2520   0.411E-02    0.336E-02
DAV:  10    -0.136467442867E+04   -0.89631E-05   -0.15554E-04  2496   0.240E-02    0.216E-02
DAV:  11    -0.136467443197E+04   -0.32953E-05   -0.47163E-05  2248   0.142E-02    0.156E-02
DAV:  12    -0.136467443038E+04    0.15850E-05   -0.48479E-05  2152   0.139E-02    0.130E-02
DAV:  13    -0.136467442921E+04    0.11672E-05   -0.22931E-05  2232   0.959E-03    0.922E-03
DAV:  14    -0.136467442855E+04    0.65967E-06   -0.85132E-06  1688   0.590E-03
  14 F= -.13646744E+04 E0= -.13646744E+04  d E =-.382385E+00
 BRION: g(F)=  0.164E+00 g(S)=  0.000E+00 retain N=  5 mean eig= 4.21
 eig:   7.808  7.808  1.979  1.979  1.483
 bond charge predicted
       N       E                     dE             d eps       ncg     rms          rms(c)
DAV:   1    -0.136477243304E+04   -0.98004E-01   -0.30285E+01  1392   0.783E+00    0.876E-01
DAV:   2    -0.136492385085E+04   -0.15142E+00   -0.15825E+00  2304   0.305E+00    0.451E-01
DAV:   3    -0.136493290322E+04   -0.90524E-02   -0.12281E-01  2584   0.562E-01    0.366E-01
DAV:   4    -0.136493139369E+04    0.15095E-02   -0.10513E-02  2608   0.245E-01    0.275E-01
DAV:   5    -0.136492932384E+04    0.20698E-02   -0.62271E-03  2240   0.156E-01    0.109E-01
DAV:   6    -0.136492948937E+04   -0.16552E-03   -0.46974E-03  2296   0.123E-01    0.868E-02
DAV:   7    -0.136492948159E+04    0.77762E-05   -0.19189E-03  2448   0.785E-02    0.639E-02
DAV:   8    -0.136492945890E+04    0.22690E-04   -0.56428E-04  2576   0.481E-02    0.354E-02
DAV:   9    -0.136492944540E+04    0.13504E-04   -0.15999E-04  2240   0.250E-02    0.220E-02
DAV:  10    -0.136492944842E+04   -0.30279E-05   -0.56682E-05  2328   0.141E-02    0.129E-02
DAV:  11    -0.136492944782E+04    0.59839E-06   -0.17420E-05  2120   0.926E-03    0.646E-03
DAV:  12    -0.136492944817E+04   -0.34696E-06   -0.10456E-05  1768   0.681E-03    0.597E-03
DAV:  13    -0.136492944774E+04    0.43270E-06   -0.18071E-06   968   0.459E-03
  15 F= -.13649294E+04 E0= -.13649294E+04  d E =-.255019E+00
 BRION: g(F)=  0.141E+00 g(S)=  0.000E+00 retain N=  4 mean eig= 3.90
 eig:   6.156  6.156  1.651  1.651
 bond charge predicted
       N       E                     dE             d eps       ncg     rms          rms(c)
DAV:   1    -0.136495025598E+04   -0.20808E-01   -0.74108E+01  1392   0.123E+01    0.135E+00
DAV:   2    -0.136533738853E+04   -0.38713E+00   -0.40704E+00  2296   0.488E+00    0.705E-01
DAV:   3    -0.136536212257E+04   -0.24734E-01   -0.32661E-01  2576   0.931E-01    0.587E-01
DAV:   4    -0.136535963926E+04    0.24833E-02   -0.28130E-02  2624   0.401E-01    0.465E-01
DAV:   5    -0.136535433727E+04    0.53020E-02   -0.12127E-02  2344   0.229E-01    0.242E-01
DAV:   6    -0.136535352305E+04    0.81422E-03   -0.15153E-02  2160   0.230E-01    0.124E-01
DAV:   7    -0.136535387318E+04   -0.35012E-03   -0.87858E-03  2416   0.163E-01    0.131E-01
DAV:   8    -0.136535382276E+04    0.50415E-04   -0.15544E-03  2504   0.881E-02    0.105E-01
DAV:   9    -0.136535366074E+04    0.16202E-03   -0.91684E-04  2384   0.551E-02    0.497E-02
DAV:  10    -0.136535368460E+04   -0.23861E-04   -0.54071E-04  2496   0.399E-02    0.286E-02
DAV:  11    -0.136535369121E+04   -0.66058E-05   -0.13424E-04  2240   0.234E-02    0.248E-02
DAV:  12    -0.136535368780E+04    0.34136E-05   -0.10794E-04  2288   0.210E-02    0.233E-02
DAV:  13    -0.136535368270E+04    0.50980E-05   -0.65889E-05  2304   0.156E-02    0.156E-02
DAV:  14    -0.136535368108E+04    0.16150E-05   -0.18672E-05  2096   0.872E-03    0.740E-03
DAV:  15    -0.136535368048E+04    0.59919E-06   -0.26818E-06  1056   0.480E-03
  16 F= -.13653537E+04 E0= -.13653537E+04  d E =-.424233E+00
 BRION: g(F)=  0.123E+00 g(S)=  0.000E+00 retain N=  4 mean eig= 4.58
 eig:   7.087  7.087  2.069  2.069
 bond charge predicted
       N       E                     dE             d eps       ncg     rms          rms(c)
DAV:   1    -0.136540428697E+04   -0.50606E-01   -0.50304E+01  1384   0.101E+01    0.113E+00
DAV:   2    -0.136566104378E+04   -0.25676E+00   -0.27004E+00  2296   0.399E+00    0.583E-01
DAV:   3    -0.136567696508E+04   -0.15921E-01   -0.21635E-01  2584   0.758E-01    0.475E-01
DAV:   4    -0.136567458776E+04    0.23773E-02   -0.18832E-02  2616   0.329E-01    0.361E-01
DAV:   5    -0.136567116760E+04    0.34202E-02   -0.99041E-03  2344   0.198E-01    0.159E-01
DAV:   6    -0.136567113617E+04    0.31428E-04   -0.82088E-03  2280   0.169E-01    0.108E-01
DAV:   7    -0.136567120158E+04   -0.65406E-04   -0.42990E-03  2440   0.119E-01    0.902E-02
DAV:   8    -0.136567116162E+04    0.39961E-04   -0.10886E-03  2560   0.692E-02    0.578E-02
DAV:   9    -0.136567112841E+04    0.33204E-04   -0.40451E-04  2512   0.374E-02    0.311E-02
DAV:  10    -0.136567113667E+04   -0.82565E-05   -0.13399E-04  2504   0.222E-02    0.199E-02
DAV:  11    -0.136567113851E+04   -0.18454E-05   -0.39127E-05  2400   0.132E-02    0.145E-02
DAV:  12    -0.136567113690E+04    0.16188E-05   -0.32875E-05  2280   0.117E-02    0.117E-02
DAV:  13    -0.136567113587E+04    0.10292E-05   -0.17518E-05  1976   0.817E-03    0.704E-03
DAV:  14    -0.136567113536E+04    0.50801E-06   -0.36920E-06  1224   0.532E-03
  17 F= -.13656711E+04 E0= -.13656711E+04  d E =-.317455E+00
 BRION: g(F)=  0.109E+00 g(S)=  0.000E+00 retain N=  3 mean eig= 3.92
 eig:   1.525  5.119  5.119
 bond charge predicted
       N       E                     dE             d eps       ncg     rms          rms(c)
DAV:   1    -0.136564446899E+04    0.26667E-01   -0.68919E+01  1384   0.118E+01    0.132E+00
DAV:   2    -0.136599919714E+04   -0.35473E+00   -0.37325E+00  2296   0.467E+00    0.685E-01
DAV:   3    -0.136602112987E+04   -0.21933E-01   -0.29789E-01  2584   0.895E-01    0.557E-01
DAV:   4    -0.136601806147E+04    0.30684E-02   -0.26250E-02  2600   0.388E-01    0.423E-01
DAV:   5    -0.136601332379E+04    0.47377E-02   -0.12021E-02  2352   0.227E-01    0.198E-01
DAV:   6    -0.136601303482E+04    0.28898E-03   -0.11822E-02  2224   0.205E-01    0.114E-01
DAV:   7    -0.136601325423E+04   -0.21941E-03   -0.64027E-03  2384   0.141E-01    0.111E-01
DAV:   8    -0.136601320137E+04    0.52861E-04   -0.13497E-03  2576   0.783E-02    0.778E-02
DAV:   9    -0.136601312677E+04    0.74600E-04   -0.69120E-04  2568   0.477E-02    0.373E-02
DAV:  10    -0.136601314413E+04   -0.17359E-04   -0.25579E-04  2528   0.304E-02    0.250E-02
DAV:  11    -0.136601314618E+04   -0.20565E-05   -0.65116E-05  2424   0.167E-02    0.187E-02
DAV:  12    -0.136601314378E+04    0.23997E-05   -0.64470E-05  2280   0.162E-02    0.159E-02
DAV:  13    -0.136601314215E+04    0.16381E-05   -0.32578E-05  2248   0.112E-02    0.108E-02
DAV:  14    -0.136601314139E+04    0.75472E-06   -0.10226E-05  1768   0.615E-03    0.467E-03
DAV:  15    -0.136601314113E+04    0.26057E-06   -0.14221E-06   936   0.406E-03
  18 F= -.13660131E+04 E0= -.13660131E+04  d E =-.342006E+00
 BRION: g(F)=  0.895E-01 g(S)=  0.000E+00 retain N=  2 mean eig= 3.60
 eig:   3.600  3.600
 bond charge predicted
       N       E                     dE             d eps       ncg     rms          rms(c)
DAV:   1    -0.136608873269E+04   -0.75591E-01   -0.14423E+01  1384   0.543E+00    0.622E-01
DAV:   2    -0.136616124312E+04   -0.72510E-01   -0.76733E-01  2304   0.210E+00    0.315E-01
DAV:   3    -0.136616560537E+04   -0.43622E-02   -0.60977E-02  2592   0.420E-01    0.259E-01
DAV:   4    -0.136616481257E+04    0.79280E-03   -0.56205E-03  2616   0.179E-01    0.188E-01
DAV:   5    -0.136616386617E+04    0.94640E-03   -0.33478E-03  2232   0.118E-01    0.712E-02
DAV:   6    -0.136616397507E+04   -0.10890E-03   -0.23158E-03  2392   0.889E-02    0.689E-02
DAV:   7    -0.136616395572E+04    0.19354E-04   -0.86519E-04  2432   0.549E-02    0.468E-02
DAV:   8    -0.136616394320E+04    0.12517E-04   -0.31137E-04  2536   0.343E-02    0.229E-02
DAV:   9    -0.136616394068E+04    0.25231E-05   -0.67095E-05  2280   0.172E-02    0.155E-02
DAV:  10    -0.136616394178E+04   -0.11002E-05   -0.21525E-05  2224   0.937E-03    0.837E-03
DAV:  11    -0.136616394126E+04    0.52188E-06   -0.27306E-06  1048   0.628E-03
  19 F= -.13661639E+04 E0= -.13661639E+04  d E =-.150800E+00
 BRION: g(F)=  0.804E-01 g(S)=  0.000E+00 retain N=  3 mean eig= 3.96
 eig:   5.323  5.323  1.221
 bond charge predicted
       N       E                     dE             d eps       ncg     rms          rms(c)
DAV:   1    -0.136616374571E+04    0.19607E-03   -0.43004E+01  1376   0.937E+00    0.104E+00
DAV:   2    -0.136638253299E+04   -0.21879E+00   -0.23065E+00  2296   0.366E+00    0.535E-01
DAV:   3    -0.136639615204E+04   -0.13619E-01   -0.18543E-01  2584   0.707E-01    0.429E-01
DAV:   4    -0.136639406676E+04    0.20853E-02   -0.16293E-02  2608   0.306E-01    0.320E-01
DAV:   5    -0.136639136015E+04    0.27066E-02   -0.79677E-03  2336   0.181E-01    0.138E-01
DAV:   6    -0.136639135321E+04    0.69412E-05   -0.64019E-03  2312   0.150E-01    0.918E-02
DAV:   7    -0.136639142124E+04   -0.68032E-04   -0.31543E-03  2392   0.102E-01    0.753E-02
DAV:   8    -0.136639140562E+04    0.15623E-04   -0.84328E-04  2600   0.589E-02    0.482E-02
DAV:   9    -0.136639138318E+04    0.22441E-04   -0.28106E-04  2504   0.325E-02    0.275E-02
DAV:  10    -0.136639138966E+04   -0.64809E-05   -0.11148E-04  2512   0.198E-02    0.175E-02
DAV:  11    -0.136639139059E+04   -0.93145E-06   -0.35755E-05  2384   0.128E-02    0.122E-02
DAV:  12    -0.136639138961E+04    0.97509E-06   -0.23108E-05  2184   0.103E-02    0.102E-02
DAV:  13    -0.136639138875E+04    0.86144E-06   -0.13967E-05  1824   0.744E-03    0.571E-03
DAV:  14    -0.136639138841E+04    0.34372E-06   -0.34404E-06  1152   0.519E-03
  20 F= -.13663914E+04 E0= -.13663914E+04  d E =-.227447E+00
 BRION: g(F)=  0.687E-01 g(S)=  0.000E+00 retain N=  2 mean eig= 2.79
 eig:   2.791  2.791
