 running on  160 total cores
 distrk:  each k-point on  160 cores,    1 groups
 distr:  one band on   20 cores,    8 groups
 using from now: INCAR     
 vasp.5.4.4.18Apr17-6-g9f103f2a35 (build May 01 2020 14:22:42) gamma-only       
  
 POSCAR found type information on POSCAR  O  La Zr Li Al
 POSCAR found :  5 types and     188 ions
 scaLAPACK will be used
 LDA part: xc-table for Pade appr. of Perdew
 POSCAR, INCAR and KPOINTS ok, starting setup
 FFT: planning ...
 WAVECAR not read
 WARNING: random wavefunctions but no delay for mixing, default for NELMDL
 entering main loop
       N       E                     dE             d eps       ncg     rms          rms(c)
DAV:   1     0.253310851720E+05    0.25331E+05   -0.42102E+05  1584   0.253E+03
DAV:   2     0.942973223938E+04   -0.15901E+05   -0.14646E+05  1424   0.709E+02
DAV:   3     0.268780884126E+04   -0.67419E+04   -0.61497E+04  1504   0.357E+02
DAV:   4    -0.367473334905E+03   -0.30553E+04   -0.28483E+04  2040   0.223E+02
DAV:   5    -0.140772049998E+04   -0.10402E+04   -0.10061E+04  2520   0.142E+02    0.116E+02
DAV:   6    -0.129993733226E+04    0.10778E+03   -0.14771E+03  2440   0.663E+01    0.502E+01
DAV:   7    -0.132287471343E+04   -0.22937E+02   -0.38133E+02  2560   0.336E+01    0.249E+01
DAV:   8    -0.133220595080E+04   -0.93312E+01   -0.26839E+02  2536   0.270E+01    0.266E+01
DAV:   9    -0.132470267386E+04    0.75033E+01   -0.56931E+01  2480   0.151E+01    0.829E+00
DAV:  10    -0.132567561934E+04   -0.97295E+00   -0.17219E+01  2624   0.832E+00    0.778E+00
DAV:  11    -0.132594238547E+04   -0.26677E+00   -0.65939E+00  2608   0.439E+00    0.444E+00
DAV:  12    -0.132576591059E+04    0.17647E+00   -0.27495E+00  2536   0.375E+00    0.298E+00
DAV:  13    -0.132583790442E+04   -0.71994E-01   -0.85097E-01  2584   0.179E+00    0.202E+00
DAV:  14    -0.132582722654E+04    0.10678E-01   -0.28599E-01  2624   0.105E+00    0.127E+00
DAV:  15    -0.132583576820E+04   -0.85417E-02   -0.86048E-02  2592   0.579E-01    0.102E+00
DAV:  16    -0.132583550727E+04    0.26093E-03   -0.36231E-02  2624   0.352E-01    0.681E-01
DAV:  17    -0.132583383296E+04    0.16743E-02   -0.21768E-02  2520   0.284E-01    0.319E-01
DAV:  18    -0.132583419625E+04   -0.36329E-03   -0.44917E-03  2592   0.144E-01    0.199E-01
DAV:  19    -0.132583408476E+04    0.11149E-03   -0.27135E-03  2488   0.961E-02    0.143E-01
DAV:  20    -0.132583412524E+04   -0.40476E-04   -0.63218E-04  2600   0.492E-02    0.661E-02
DAV:  21    -0.132583414445E+04   -0.19208E-04   -0.22157E-04  2600   0.267E-02    0.433E-02
DAV:  22    -0.132583415469E+04   -0.10248E-04   -0.60233E-05  2384   0.152E-02    0.151E-02
DAV:  23    -0.132583415760E+04   -0.29097E-05   -0.30000E-05  1816   0.927E-03    0.756E-03
DAV:  24    -0.132583416054E+04   -0.29332E-05   -0.76658E-06  1096   0.644E-03    0.214E-03
DAV:  25    -0.132583416093E+04   -0.39385E-06   -0.35981E-06  1032   0.464E-03
   1 F= -.13258342E+04 E0= -.13258342E+04  d E =-.132583E+04
 BRION: g(F)=  0.607E+02 g(S)=  0.000E+00
 bond charge predicted
       N       E                     dE             d eps       ncg     rms          rms(c)
DAV:   1    -0.129019752836E+04    0.35637E+02   -0.72553E+03  1680   0.127E+02    0.279E+01
DAV:   2    -0.134520166493E+04   -0.55004E+02   -0.63191E+02  2568   0.568E+01    0.144E+01
DAV:   3    -0.134388496877E+04    0.13167E+01   -0.36604E+01  2600   0.153E+01    0.964E+00
DAV:   4    -0.134232739815E+04    0.15576E+01   -0.11951E+01  2480   0.667E+00    0.454E+00
DAV:   5    -0.134212315652E+04    0.20424E+00   -0.25185E+00  2520   0.376E+00    0.288E+00
DAV:   6    -0.134205926858E+04    0.63888E-01   -0.22355E+00  2456   0.278E+00    0.146E+00
DAV:   7    -0.134207943505E+04   -0.20166E-01   -0.59437E-01  2504   0.163E+00    0.122E+00
DAV:   8    -0.134206898037E+04    0.10455E-01   -0.22499E-01  2608   0.827E-01    0.517E-01
DAV:   9    -0.134207101381E+04   -0.20334E-02   -0.43873E-02  2608   0.428E-01    0.300E-01
DAV:  10    -0.134207069432E+04    0.31949E-03   -0.90296E-03  2608   0.241E-01    0.182E-01
DAV:  11    -0.134207114700E+04   -0.45269E-03   -0.11367E-02  2600   0.185E-01    0.130E-01
DAV:  12    -0.134207113043E+04    0.16576E-04   -0.18816E-03  2520   0.953E-02    0.654E-02
DAV:  13    -0.134207115323E+04   -0.22801E-04   -0.73382E-04  2616   0.520E-02    0.286E-02
DAV:  14    -0.134207116449E+04   -0.11260E-04   -0.16053E-04  2624   0.272E-02    0.174E-02
DAV:  15    -0.134207116872E+04   -0.42285E-05   -0.91024E-05  2520   0.177E-02    0.929E-03
DAV:  16    -0.134207117027E+04   -0.15474E-05   -0.18624E-05  2288   0.953E-03    0.709E-03
DAV:  17    -0.134207116980E+04    0.46768E-06   -0.57980E-06  1496   0.661E-03
   2 F= -.13420712E+04 E0= -.13420712E+04  d E =-.162370E+02
 BRION: g(F)=  0.111E+03 g(S)=  0.000E+00 retain N=  1 mean eig= 0.39
 eig:   0.395
 bond charge predicted
       N       E                     dE             d eps       ncg     rms          rms(c)
DAV:   1    -0.132991324045E+04    0.12158E+02   -0.23513E+03  1328   0.580E+01    0.195E+01
DAV:   2    -0.135434748436E+04   -0.24434E+02   -0.31096E+02  2560   0.302E+01    0.170E+01
DAV:   3    -0.135212135042E+04    0.22261E+01   -0.22748E+01  2440   0.108E+01    0.123E+01
DAV:   4    -0.135077966534E+04    0.13417E+01   -0.25602E+01  2096   0.669E+00    0.574E+00
DAV:   5    -0.135123500623E+04   -0.45534E+00   -0.54506E+00  2384   0.401E+00    0.669E+00
DAV:   6    -0.135043273685E+04    0.80227E+00   -0.52984E+00  2456   0.310E+00    0.152E+00
DAV:   7    -0.135049230563E+04   -0.59569E-01   -0.13597E+00  2432   0.201E+00    0.138E+00
DAV:   8    -0.135046441245E+04    0.27893E-01   -0.21000E-01  2536   0.105E+00    0.843E-01
DAV:   9    -0.135046136670E+04    0.30457E-02   -0.10512E-01  2488   0.522E-01    0.281E-01
DAV:  10    -0.135046256986E+04   -0.12032E-02   -0.14290E-02  2624   0.245E-01    0.139E-01
DAV:  11    -0.135046265692E+04   -0.87054E-04   -0.31828E-03  2624   0.112E-01    0.821E-02
DAV:  12    -0.135046271152E+04   -0.54605E-04   -0.16020E-03  2624   0.719E-02    0.402E-02
DAV:  13    -0.135046273150E+04   -0.19973E-04   -0.32014E-04  2624   0.434E-02    0.348E-02
DAV:  14    -0.135046272493E+04    0.65609E-05   -0.14113E-04  2608   0.222E-02    0.171E-02
DAV:  15    -0.135046272767E+04   -0.27307E-05   -0.70928E-05  2616   0.160E-02    0.678E-03
DAV:  16    -0.135046272892E+04   -0.12516E-05   -0.11975E-05  2048   0.804E-03    0.369E-03
DAV:  17    -0.135046272910E+04   -0.18383E-06   -0.36200E-06  1256   0.492E-03
   3 F= -.13504627E+04 E0= -.13504627E+04  d E =-.839156E+01
 BRION: g(F)=  0.108E+02 g(S)=  0.000E+00 retain N=  2 mean eig= 2.00
 eig:   0.240  3.757
 bond charge predicted
       N       E                     dE             d eps       ncg     rms          rms(c)
DAV:   1    -0.135166391441E+04   -0.12012E+01   -0.59037E+02  1384   0.353E+01    0.711E+00
DAV:   2    -0.135479474569E+04   -0.31308E+01   -0.36547E+01  2328   0.139E+01    0.343E+00
DAV:   3    -0.135487255978E+04   -0.77814E-01   -0.32958E+00  2608   0.386E+00    0.296E+00
DAV:   4    -0.135477006092E+04    0.10250E+00   -0.62532E-01  2560   0.175E+00    0.168E+00
DAV:   5    -0.135473920141E+04    0.30860E-01   -0.34751E-01  2216   0.120E+00    0.849E-01
DAV:   6    -0.135474038664E+04   -0.11852E-02   -0.17894E-01  2520   0.831E-01    0.665E-01
DAV:   7    -0.135473898566E+04    0.14010E-02   -0.99786E-02  2496   0.560E-01    0.416E-01
DAV:   8    -0.135473822959E+04    0.75607E-03   -0.16780E-02  2576   0.277E-01    0.252E-01
DAV:   9    -0.135473802392E+04    0.20567E-03   -0.66803E-03  2616   0.160E-01    0.137E-01
DAV:  10    -0.135473832805E+04   -0.30413E-03   -0.36686E-03  2256   0.105E-01    0.131E-01
DAV:  11    -0.135473806259E+04    0.26546E-03   -0.15249E-03  2552   0.787E-02    0.486E-02
DAV:  12    -0.135473810395E+04   -0.41364E-04   -0.10812E-03  2536   0.581E-02    0.410E-02
DAV:  13    -0.135473808695E+04    0.16994E-04   -0.19378E-04  2520   0.308E-02    0.200E-02
DAV:  14    -0.135473809068E+04   -0.37221E-05   -0.10708E-04  2336   0.171E-02    0.852E-03
DAV:  15    -0.135473809157E+04   -0.89657E-06   -0.16429E-05  2168   0.894E-03    0.314E-03
DAV:  16    -0.135473809170E+04   -0.12873E-06   -0.13703E-06  1024   0.416E-03
   4 F= -.13547381E+04 E0= -.13547381E+04  d E =-.427536E+01
 BRION: g(F)=  0.426E+01 g(S)=  0.000E+00 retain N=  3 mean eig= 2.77
 eig:   7.432  0.347  0.539
 bond charge predicted
       N       E                     dE             d eps       ncg     rms          rms(c)
DAV:   1    -0.135574987321E+04   -0.10118E+01   -0.28062E+02  1368   0.237E+01    0.357E+00
DAV:   2    -0.135713615451E+04   -0.13863E+01   -0.14917E+01  2280   0.884E+00    0.176E+00
DAV:   3    -0.135718048112E+04   -0.44327E-01   -0.11350E+00  2616   0.191E+00    0.149E+00
DAV:   4    -0.135713855940E+04    0.41922E-01   -0.19647E-01  2560   0.968E-01    0.848E-01
DAV:   5    -0.135712349731E+04    0.15062E-01   -0.98365E-02  2288   0.643E-01    0.431E-01
DAV:   6    -0.135712540011E+04   -0.19028E-02   -0.56735E-02  2504   0.460E-01    0.373E-01
DAV:   7    -0.135712439096E+04    0.10092E-02   -0.24803E-02  2384   0.281E-01    0.246E-01
DAV:   8    -0.135712426360E+04    0.12736E-03   -0.68234E-03  2568   0.153E-01    0.130E-01
DAV:   9    -0.135712407607E+04    0.18753E-03   -0.15370E-03  2504   0.828E-02    0.882E-02
DAV:  10    -0.135712419700E+04   -0.12093E-03   -0.17081E-03  2256   0.645E-02    0.948E-02
DAV:  11    -0.135712405218E+04    0.14481E-03   -0.78726E-04  2496   0.558E-02    0.340E-02
DAV:  12    -0.135712407050E+04   -0.18316E-04   -0.39727E-04  2512   0.356E-02    0.312E-02
DAV:  13    -0.135712406089E+04    0.96087E-05   -0.12661E-04  2400   0.220E-02    0.121E-02
DAV:  14    -0.135712406209E+04   -0.11936E-05   -0.30778E-05  2168   0.107E-02    0.615E-03
DAV:  15    -0.135712406239E+04   -0.30729E-06   -0.38396E-06  1192   0.557E-03
   5 F= -.13571241E+04 E0= -.13571241E+04  d E =-.238597E+01
 BRION: g(F)=  0.257E+01 g(S)=  0.000E+00 retain N=  4 mean eig= 2.13
 eig:   7.078  0.205  0.626  0.626
 bond charge predicted
       N       E                     dE             d eps       ncg     rms          rms(c)
DAV:   1    -0.135774659737E+04   -0.62254E+00   -0.24831E+02  1376   0.220E+01    0.283E+00
DAV:   2    -0.135900278654E+04   -0.12562E+01   -0.13265E+01  2280   0.823E+00    0.155E+00
DAV:   3    -0.135905667096E+04   -0.53884E-01   -0.99962E-01  2608   0.174E+00    0.133E+00
DAV:   4    -0.135903132813E+04    0.25343E-01   -0.12504E-01  2576   0.789E-01    0.856E-01
DAV:   5    -0.135901281979E+04    0.18508E-01   -0.69967E-02  2304   0.522E-01    0.338E-01
DAV:   6    -0.135901505114E+04   -0.22313E-02   -0.46253E-02  2408   0.398E-01    0.349E-01
DAV:   7    -0.135901394597E+04    0.11052E-02   -0.18329E-02  2376   0.256E-01    0.234E-01
DAV:   8    -0.135901373595E+04    0.21002E-03   -0.90199E-03  2480   0.161E-01    0.106E-01
DAV:   9    -0.135901367302E+04    0.62925E-04   -0.14073E-03  2360   0.785E-02    0.792E-02
DAV:  10    -0.135901368196E+04   -0.89400E-05   -0.66229E-04  2376   0.441E-02    0.498E-02
DAV:  11    -0.135901365911E+04    0.22850E-04   -0.27289E-04  2472   0.363E-02    0.242E-02
DAV:  12    -0.135901366653E+04   -0.74153E-05   -0.16077E-04  2424   0.242E-02    0.258E-02
DAV:  13    -0.135901365938E+04    0.71502E-05   -0.75946E-05  2248   0.159E-02    0.117E-02
DAV:  14    -0.135901365981E+04   -0.43458E-06   -0.17255E-05  1872   0.857E-03    0.723E-03
DAV:  15    -0.135901365972E+04    0.89727E-07   -0.33983E-06  1168   0.537E-03
   6 F= -.13590137E+04 E0= -.13590137E+04  d E =-.188960E+01
 BRION: g(F)=  0.124E+01 g(S)=  0.000E+00 retain N=  5 mean eig= 2.09
 eig:   7.079  1.281  1.281  0.130  0.676
 bond charge predicted
       N       E                     dE             d eps       ncg     rms          rms(c)
DAV:   1    -0.135925209196E+04   -0.23843E+00   -0.20075E+02  1376   0.196E+01    0.267E+00
DAV:   2    -0.136025212238E+04   -0.10000E+01   -0.10486E+01  2272   0.730E+00    0.138E+00
DAV:   3    -0.136029400386E+04   -0.41881E-01   -0.77780E-01  2624   0.152E+00    0.110E+00
DAV:   4    -0.136027050727E+04    0.23497E-01   -0.11083E-01  2520   0.736E-01    0.614E-01
DAV:   5    -0.136026420135E+04    0.63059E-02   -0.44446E-02  2456   0.426E-01    0.268E-01
DAV:   6    -0.136026527318E+04   -0.10718E-02   -0.19018E-02  2528   0.254E-01    0.172E-01
DAV:   7    -0.136026511607E+04    0.15711E-03   -0.52980E-03  2336   0.155E-01    0.120E-01
DAV:   8    -0.136026517967E+04   -0.63603E-04   -0.28606E-03  2376   0.880E-02    0.677E-02
DAV:   9    -0.136026514850E+04    0.31167E-04   -0.48614E-04  2576   0.490E-02    0.470E-02
DAV:  10    -0.136026514569E+04    0.28105E-05   -0.46689E-04  2552   0.395E-02    0.273E-02
DAV:  11    -0.136026514434E+04    0.13514E-05   -0.12727E-04  2472   0.241E-02    0.123E-02
DAV:  12    -0.136026514768E+04   -0.33421E-05   -0.50632E-05  2416   0.132E-02    0.956E-03
DAV:  13    -0.136026514703E+04    0.65514E-06   -0.12211E-05  1864   0.818E-03    0.522E-03
DAV:  14    -0.136026514717E+04   -0.14655E-06   -0.75163E-06  1592   0.594E-03
   7 F= -.13602651E+04 E0= -.13602651E+04  d E =-.125149E+01
 BRION: g(F)=  0.561E+00 g(S)=  0.000E+00 retain N=  5 mean eig= 1.71
 eig:   3.398  3.398  0.398  0.689  0.689
 bond charge predicted
       N       E                     dE             d eps       ncg     rms          rms(c)
DAV:   1    -0.136050994986E+04   -0.24480E+00   -0.10746E+02  1392   0.147E+01    0.189E+00
DAV:   2    -0.136106007424E+04   -0.55012E+00   -0.58083E+00  2280   0.567E+00    0.930E-01
DAV:   3    -0.136109283862E+04   -0.32764E-01   -0.46632E-01  2616   0.114E+00    0.766E-01
DAV:   4    -0.136108537802E+04    0.74606E-02   -0.48326E-02  2600   0.528E-01    0.513E-01
DAV:   5    -0.136108023745E+04    0.51406E-02   -0.24471E-02  2384   0.320E-01    0.210E-01
DAV:   6    -0.136108100189E+04   -0.76445E-03   -0.14137E-02  2440   0.226E-01    0.174E-01
DAV:   7    -0.136108087297E+04    0.12893E-03   -0.62909E-03  2464   0.153E-01    0.122E-01
DAV:   8    -0.136108085139E+04    0.21578E-04   -0.28743E-03  2568   0.981E-02    0.696E-02
DAV:   9    -0.136108081184E+04    0.39545E-04   -0.51396E-04  2496   0.481E-02    0.485E-02
DAV:  10    -0.136108081111E+04    0.73120E-06   -0.29771E-04  2544   0.303E-02    0.264E-02
DAV:  11    -0.136108081291E+04   -0.17938E-05   -0.10121E-04  2464   0.212E-02    0.150E-02
DAV:  12    -0.136108081252E+04    0.38372E-06   -0.35310E-05  2320   0.145E-02    0.125E-02
DAV:  13    -0.136108081218E+04    0.34164E-06   -0.34343E-05  2112   0.993E-03    0.698E-03
DAV:  14    -0.136108081183E+04    0.35303E-06   -0.44633E-06  1272   0.556E-03
   8 F= -.13610808E+04 E0= -.13610808E+04  d E =-.815665E+00
 BRION: g(F)=  0.455E+00 g(S)=  0.000E+00 retain N=  6 mean eig= 2.27
 eig:   5.010  5.010  1.212  1.212  0.388  0.789
 bond charge predicted
       N       E                     dE             d eps       ncg     rms          rms(c)
DAV:   1    -0.136131720568E+04   -0.23639E+00   -0.84123E+01  1384   0.133E+01    0.160E+00
DAV:   2    -0.136176017396E+04   -0.44297E+00   -0.47096E+00  2304   0.521E+00    0.817E-01
DAV:   3    -0.136178793884E+04   -0.27765E-01   -0.38571E-01  2600   0.105E+00    0.669E-01
DAV:   4    -0.136178297260E+04    0.49662E-02   -0.38605E-02  2616   0.477E-01    0.474E-01
DAV:   5    -0.136177832968E+04    0.46429E-02   -0.17474E-02  2400   0.280E-01    0.213E-01
DAV:   6    -0.136177839461E+04   -0.64929E-04   -0.13325E-02  2360   0.231E-01    0.146E-01
DAV:   7    -0.136177853665E+04   -0.14204E-03   -0.69990E-03  2424   0.157E-01    0.123E-01
DAV:   8    -0.136177848984E+04    0.46811E-04   -0.21553E-03  2600   0.899E-02    0.737E-02
DAV:   9    -0.136177844063E+04    0.49203E-04   -0.65969E-04  2560   0.495E-02    0.418E-02
DAV:  10    -0.136177845133E+04   -0.10698E-04   -0.25857E-04  2600   0.310E-02    0.278E-02
DAV:  11    -0.136177845248E+04   -0.11477E-05   -0.99723E-05  2464   0.207E-02    0.180E-02
DAV:  12    -0.136177845021E+04    0.22714E-05   -0.50603E-05  2312   0.159E-02    0.149E-02
DAV:  13    -0.136177844870E+04    0.15140E-05   -0.36378E-05  2176   0.108E-02    0.775E-03
DAV:  14    -0.136177844857E+04    0.12117E-06   -0.10820E-05  1760   0.644E-03    0.256E-03
DAV:  15    -0.136177844868E+04   -0.11058E-06   -0.11482E-06   968   0.385E-03
   9 F= -.13617784E+04 E0= -.13617784E+04  d E =-.697637E+00
 BRION: g(F)=  0.301E+00 g(S)=  0.000E+00 retain N=  7 mean eig= 2.77
 eig:   6.308  6.308  2.261  2.261  0.380  0.920  0.920
 bond charge predicted
       N       E                     dE             d eps       ncg     rms          rms(c)
DAV:   1    -0.136193884168E+04   -0.16039E+00   -0.82647E+01  1400   0.132E+01    0.165E+00
DAV:   2    -0.136238524085E+04   -0.44640E+00   -0.47834E+00  2312   0.528E+00    0.826E-01
DAV:   3    -0.136241351122E+04   -0.28270E-01   -0.39705E-01  2584   0.106E+00    0.677E-01
DAV:   4    -0.136240823942E+04    0.52718E-02   -0.41663E-02  2608   0.495E-01    0.472E-01
DAV:   5    -0.136240394324E+04    0.42962E-02   -0.19102E-02  2416   0.289E-01    0.206E-01
DAV:   6    -0.136240417135E+04   -0.22811E-03   -0.12374E-02  2400   0.221E-01    0.144E-01
DAV:   7    -0.136240428838E+04   -0.11704E-03   -0.63811E-03  2448   0.151E-01    0.117E-01
DAV:   8    -0.136240425561E+04    0.32773E-04   -0.21849E-03  2592   0.899E-02    0.687E-02
DAV:   9    -0.136240421988E+04    0.35732E-04   -0.58059E-04  2568   0.477E-02    0.418E-02
DAV:  10    -0.136240423051E+04   -0.10634E-04   -0.24544E-04  2592   0.299E-02    0.279E-02
DAV:  11    -0.136240423130E+04   -0.78417E-06   -0.10014E-04  2488   0.206E-02    0.171E-02
DAV:  12    -0.136240422900E+04    0.22972E-05   -0.44607E-05  2320   0.155E-02    0.133E-02
DAV:  13    -0.136240422852E+04    0.48013E-06   -0.37505E-05  2264   0.107E-02    0.710E-03
DAV:  14    -0.136240422841E+04    0.10614E-06   -0.93119E-06  1728   0.606E-03
  10 F= -.13624042E+04 E0= -.13624042E+04  d E =-.625780E+00
 BRION: g(F)=  0.203E+00 g(S)=  0.000E+00 retain N=  7 mean eig= 2.58
 eig:   3.192  3.192  4.121  4.121  1.227  1.227  0.944
 bond charge predicted
       N       E                     dE             d eps       ncg     rms          rms(c)
DAV:   1    -0.136259346201E+04   -0.18923E+00   -0.32235E+01  1384   0.821E+00    0.103E+00
DAV:   2    -0.136276530886E+04   -0.17185E+00   -0.18453E+00  2296   0.323E+00    0.510E-01
DAV:   3    -0.136277589399E+04   -0.10585E-01   -0.15280E-01  2584   0.670E-01    0.416E-01
DAV:   4    -0.136277368551E+04    0.22085E-02   -0.16124E-02  2584   0.303E-01    0.286E-01
DAV:   5    -0.136277193328E+04    0.17522E-02   -0.74624E-03  2424   0.178E-01    0.121E-01
DAV:   6    -0.136277203088E+04   -0.97592E-04   -0.46271E-03  2424   0.133E-01    0.865E-02
DAV:   7    -0.136277206333E+04   -0.32453E-04   -0.21620E-03  2424   0.882E-02    0.679E-02
DAV:   8    -0.136277205586E+04    0.74721E-05   -0.83019E-04  2592   0.540E-02    0.392E-02
DAV:   9    -0.136277204704E+04    0.88116E-05   -0.18500E-04  2552   0.282E-02    0.258E-02
DAV:  10    -0.136277204881E+04   -0.17619E-05   -0.84637E-05  2584   0.171E-02    0.161E-02
DAV:  11    -0.136277204891E+04   -0.98953E-07   -0.34970E-05  2336   0.122E-02    0.925E-03
DAV:  12    -0.136277204831E+04    0.59104E-06   -0.12931E-05  1912   0.892E-03    0.716E-03
DAV:  13    -0.136277204822E+04    0.99113E-07   -0.11153E-05  1760   0.625E-03    0.405E-03
DAV:  14    -0.136277204804E+04    0.17529E-06   -0.14649E-06   968   0.427E-03
  11 F= -.13627720E+04 E0= -.13627720E+04  d E =-.367820E+00
 BRION: g(F)=  0.172E+00 g(S)=  0.000E+00 retain N=  5 mean eig= 4.07
 eig:   7.765  7.765  1.022  1.897  1.897
 bond charge predicted
       N       E                     dE             d eps       ncg     rms          rms(c)
DAV:   1    -0.136293221758E+04   -0.16017E+00   -0.35037E+01  1384   0.849E+00    0.101E+00
DAV:   2    -0.136311768468E+04   -0.18547E+00   -0.19708E+00  2304   0.337E+00    0.511E-01
DAV:   3    -0.136312836367E+04   -0.10679E-01   -0.15574E-01  2584   0.661E-01    0.420E-01
DAV:   4    -0.136312597848E+04    0.23852E-02   -0.14888E-02  2608   0.292E-01    0.303E-01
DAV:   5    -0.136312333852E+04    0.26400E-02   -0.74832E-03  2352   0.188E-01    0.128E-01
DAV:   6    -0.136312339356E+04   -0.55041E-04   -0.65174E-03  2328   0.155E-01    0.917E-02
DAV:   7    -0.136312345265E+04   -0.59091E-04   -0.28749E-03  2424   0.984E-02    0.787E-02
DAV:   8    -0.136312342656E+04    0.26097E-04   -0.81648E-04  2592   0.564E-02    0.431E-02
DAV:   9    -0.136312340789E+04    0.18663E-04   -0.27105E-04  2536   0.324E-02    0.247E-02
DAV:  10    -0.136312341446E+04   -0.65703E-05   -0.95714E-05  2528   0.190E-02    0.176E-02
DAV:  11    -0.136312341398E+04    0.48765E-06   -0.43451E-05  2360   0.136E-02    0.116E-02
DAV:  12    -0.136312341317E+04    0.80539E-06   -0.20396E-05  2200   0.105E-02    0.100E-02
DAV:  13    -0.136312341243E+04    0.74354E-06   -0.14314E-05  1776   0.713E-03    0.509E-03
DAV:  14    -0.136312341212E+04    0.30853E-06   -0.24280E-06  1032   0.498E-03
  12 F= -.13631234E+04 E0= -.13631234E+04  d E =-.351364E+00
 BRION: g(F)=  0.150E+00 g(S)=  0.000E+00 retain N=  4 mean eig= 4.84
 eig:   7.759  7.759  1.929  1.929
 bond charge predicted
       N       E                     dE             d eps       ncg     rms          rms(c)
DAV:   1    -0.136326923759E+04   -0.14583E+00   -0.47689E+01  1384   0.995E+00    0.118E+00
DAV:   2    -0.136352484649E+04   -0.25561E+00   -0.27287E+00  2304   0.396E+00    0.592E-01
DAV:   3    -0.136354020217E+04   -0.15356E-01   -0.22081E-01  2576   0.791E-01    0.479E-01
DAV:   4    -0.136353699036E+04    0.32118E-02   -0.21065E-02  2584   0.349E-01    0.342E-01
DAV:   5    -0.136353388752E+04    0.31028E-02   -0.10395E-02  2392   0.210E-01    0.141E-01
DAV:   6    -0.136353397218E+04   -0.84655E-04   -0.71182E-03  2392   0.159E-01    0.984E-02
DAV:   7    -0.136353403210E+04   -0.59921E-04   -0.31277E-03  2448   0.105E-01    0.782E-02
DAV:   8    -0.136353401803E+04    0.14071E-04   -0.10486E-03  2600   0.635E-02    0.469E-02
DAV:   9    -0.136353400313E+04    0.14894E-04   -0.26192E-04  2552   0.333E-02    0.293E-02
DAV:  10    -0.136353400740E+04   -0.42633E-05   -0.11071E-04  2552   0.198E-02    0.171E-02
DAV:  11    -0.136353400866E+04   -0.12615E-05   -0.39425E-05  2440   0.135E-02    0.110E-02
DAV:  12    -0.136353400782E+04    0.83703E-06   -0.19907E-05  2184   0.103E-02    0.883E-03
DAV:  13    -0.136353400740E+04    0.42518E-06   -0.12783E-05  1768   0.685E-03    0.480E-03
DAV:  14    -0.136353400717E+04    0.22614E-06   -0.26098E-06  1048   0.501E-03
  13 F= -.13635340E+04 E0= -.13635340E+04  d E =-.410595E+00
 BRION: g(F)=  0.136E+00 g(S)=  0.000E+00 retain N=  3 mean eig= 3.95
 eig:   5.068  5.068  1.726
 bond charge predicted
       N       E                     dE             d eps       ncg     rms          rms(c)
DAV:   1    -0.136366315003E+04   -0.12914E+00   -0.10396E+01  1376   0.463E+00    0.548E-01
DAV:   2    -0.136371690889E+04   -0.53759E-01   -0.57095E-01  2296   0.180E+00    0.278E-01
DAV:   3    -0.136372005856E+04   -0.31497E-02   -0.45817E-02  2576   0.359E-01    0.226E-01
DAV:   4    -0.136371931032E+04    0.74824E-03   -0.43176E-03  2576   0.156E-01    0.158E-01
DAV:   5    -0.136371861222E+04    0.69811E-03   -0.25235E-03  2288   0.107E-01    0.589E-02
DAV:   6    -0.136371870345E+04   -0.91232E-04   -0.17027E-03  2464   0.780E-02    0.535E-02
DAV:   7    -0.136371869685E+04    0.65999E-05   -0.54267E-04  2456   0.442E-02    0.377E-02
DAV:   8    -0.136371869074E+04    0.61097E-05   -0.21838E-04  2552   0.280E-02    0.185E-02
DAV:   9    -0.136371868876E+04    0.19782E-05   -0.39607E-05  2360   0.142E-02    0.133E-02
DAV:  10    -0.136371868898E+04   -0.21697E-06   -0.16533E-05  2128   0.844E-03    0.700E-03
DAV:  11    -0.136371868864E+04    0.33760E-06   -0.23434E-06  1048   0.561E-03
  14 F= -.13637187E+04 E0= -.13637187E+04  d E =-.184681E+00
 BRION: g(F)=  0.130E+00 g(S)=  0.000E+00 retain N=  4 mean eig= 4.37
 eig:   7.257  7.257  1.489  1.489
 bond charge predicted
       N       E                     dE             d eps       ncg     rms          rms(c)
DAV:   1    -0.136386688199E+04   -0.14819E+00   -0.25200E+01  1384   0.719E+00    0.817E-01
DAV:   2    -0.136399804894E+04   -0.13117E+00   -0.13857E+00  2296   0.281E+00    0.413E-01
DAV:   3    -0.136400569415E+04   -0.76452E-02   -0.10858E-01  2576   0.554E-01    0.328E-01
DAV:   4    -0.136400404635E+04    0.16478E-02   -0.97016E-03  2568   0.236E-01    0.234E-01
DAV:   5    -0.136400247719E+04    0.15692E-02   -0.52340E-03  2328   0.149E-01    0.892E-02
DAV:   6    -0.136400260252E+04   -0.12534E-03   -0.34652E-03  2400   0.107E-01    0.697E-02
DAV:   7    -0.136400261439E+04   -0.11867E-04   -0.12463E-03  2448   0.670E-02    0.510E-02
DAV:   8    -0.136400260667E+04    0.77186E-05   -0.43607E-04  2576   0.405E-02    0.285E-02
DAV:   9    -0.136400260170E+04    0.49664E-05   -0.97750E-05  2392   0.214E-02    0.193E-02
DAV:  10    -0.136400260314E+04   -0.14407E-05   -0.46790E-05  2440   0.133E-02    0.105E-02
DAV:  11    -0.136400260309E+04    0.57466E-07   -0.13094E-05  1928   0.889E-03    0.534E-03
DAV:  12    -0.136400260349E+04   -0.40453E-06   -0.86203E-06  1680   0.645E-03
  15 F= -.13640026E+04 E0= -.13640026E+04  d E =-.283915E+00
 BRION: g(F)=  0.123E+00 g(S)=  0.000E+00 retain N=  4 mean eig= 4.65
 eig:   7.602  7.602  1.702  1.702
 bond charge predicted
       N       E                     dE             d eps       ncg     rms          rms(c)
DAV:   1    -0.136414987778E+04   -0.14727E+00   -0.21056E+01  1376   0.656E+00    0.758E-01
DAV:   2    -0.136425838609E+04   -0.10851E+00   -0.11470E+00  2312   0.253E+00    0.381E-01
DAV:   3    -0.136426474775E+04   -0.63617E-02   -0.90761E-02  2568   0.510E-01    0.301E-01
DAV:   4    -0.136426336638E+04    0.13814E-02   -0.85311E-03  2568   0.217E-01    0.212E-01
DAV:   5    -0.136426214082E+04    0.12256E-02   -0.46377E-03  2336   0.138E-01    0.796E-02
DAV:   6    -0.136426226636E+04   -0.12554E-03   -0.27245E-03  2456   0.967E-02    0.663E-02
DAV:   7    -0.136426226616E+04    0.20122E-06   -0.10207E-03  2448   0.600E-02    0.458E-02
DAV:   8    -0.136426226150E+04    0.46598E-05   -0.38337E-04  2568   0.379E-02    0.263E-02
DAV:   9    -0.136426225850E+04    0.29950E-05   -0.73126E-05  2480   0.192E-02    0.189E-02
DAV:  10    -0.136426225890E+04   -0.39296E-06   -0.44090E-05  2552   0.125E-02    0.967E-03
DAV:  11    -0.136426225870E+04    0.19514E-06   -0.81628E-06  1528   0.803E-03
  16 F= -.13642623E+04 E0= -.13642623E+04  d E =-.259655E+00
 BRION: g(F)=  0.119E+00 g(S)=  0.000E+00 retain N=  4 mean eig= 4.15
 eig:   6.739  6.739  1.558  1.558
 bond charge predicted
       N       E                     dE             d eps       ncg     rms          rms(c)
DAV:   1    -0.136440415060E+04   -0.14189E+00   -0.23175E+01  1376   0.688E+00    0.785E-01
DAV:   2    -0.136452211762E+04   -0.11797E+00   -0.12462E+00  2312   0.263E+00    0.399E-01
DAV:   3    -0.136452906983E+04   -0.69522E-02   -0.98396E-02  2560   0.531E-01    0.318E-01
DAV:   4    -0.136452763669E+04    0.14331E-02   -0.91998E-03  2576   0.224E-01    0.224E-01
DAV:   5    -0.136452624701E+04    0.13897E-02   -0.48771E-03  2304   0.144E-01    0.857E-02
DAV:   6    -0.136452638420E+04   -0.13719E-03   -0.31108E-03  2400   0.103E-01    0.703E-02
DAV:   7    -0.136452637901E+04    0.51878E-05   -0.10867E-03  2448   0.622E-02    0.497E-02
DAV:   8    -0.136452637204E+04    0.69674E-05   -0.44436E-04  2584   0.399E-02    0.276E-02
DAV:   9    -0.136452636844E+04    0.36069E-05   -0.89739E-05  2432   0.207E-02    0.195E-02
DAV:  10    -0.136452636885E+04   -0.41704E-06   -0.40318E-05  2504   0.124E-02    0.106E-02
DAV:  11    -0.136452636879E+04    0.67623E-07   -0.11652E-05  1816   0.831E-03    0.541E-03
DAV:  12    -0.136452636909E+04   -0.30134E-06   -0.76567E-06  1656   0.628E-03
  17 F= -.13645264E+04 E0= -.13645264E+04  d E =-.264110E+00
 BRION: g(F)=  0.111E+00 g(S)=  0.000E+00 retain N=  4 mean eig= 3.99
 eig:   6.617  6.617  1.354  1.354
 bond charge predicted
       N       E                     dE             d eps       ncg     rms          rms(c)
DAV:   1    -0.136465791456E+04   -0.13155E+00   -0.38181E+01  1368   0.875E+00    0.101E+00
DAV:   2    -0.136485243477E+04   -0.19452E+00   -0.20522E+00  2304   0.335E+00    0.508E-01
DAV:   3    -0.136486377112E+04   -0.11336E-01   -0.16284E-01  2576   0.684E-01    0.401E-01
DAV:   4    -0.136486125909E+04    0.25120E-02   -0.15140E-02  2568   0.288E-01    0.281E-01
DAV:   5    -0.136485905532E+04    0.22038E-02   -0.75088E-03  2344   0.177E-01    0.112E-01
DAV:   6    -0.136485917037E+04   -0.11505E-03   -0.47997E-03  2376   0.128E-01    0.828E-02
DAV:   7    -0.136485919610E+04   -0.25723E-04   -0.19279E-03  2464   0.828E-02    0.624E-02
DAV:   8    -0.136485918543E+04    0.10665E-04   -0.69988E-04  2592   0.508E-02    0.370E-02
DAV:   9    -0.136485917877E+04    0.66625E-05   -0.17135E-04  2512   0.272E-02    0.249E-02
DAV:  10    -0.136485917978E+04   -0.10163E-05   -0.76305E-05  2568   0.168E-02    0.150E-02
DAV:  11    -0.136485917948E+04    0.30738E-06   -0.29103E-05  2312   0.116E-02    0.732E-03
DAV:  12    -0.136485917948E+04   -0.45402E-08   -0.10280E-05  1784   0.787E-03    0.609E-03
DAV:  13    -0.136485917926E+04    0.22080E-06   -0.60078E-06  1424   0.542E-03
  18 F= -.13648592E+04 E0= -.13648592E+04  d E =-.332810E+00
 BRION: g(F)=  0.102E+00 g(S)=  0.000E+00 retain N=  3 mean eig= 4.18
 eig:   5.550  5.550  1.449
 bond charge predicted
       N       E                     dE             d eps       ncg     rms          rms(c)
DAV:   1    -0.136495106909E+04   -0.91890E-01   -0.47188E+01  1376   0.977E+00    0.112E+00
DAV:   2    -0.136519040352E+04   -0.23933E+00   -0.25250E+00  2296   0.375E+00    0.568E-01
DAV:   3    -0.136520422825E+04   -0.13825E-01   -0.19944E-01  2584   0.759E-01    0.450E-01
DAV:   4    -0.136520122844E+04    0.29998E-02   -0.18732E-02  2584   0.318E-01    0.316E-01
DAV:   5    -0.136519841453E+04    0.28139E-02   -0.88601E-03  2328   0.194E-01    0.131E-01
DAV:   6    -0.136519849995E+04   -0.85419E-04   -0.61164E-03  2360   0.145E-01    0.918E-02
DAV:   7    -0.136519852520E+04   -0.25244E-04   -0.24430E-03  2432   0.931E-02    0.715E-02
DAV:   8    -0.136519851350E+04    0.11701E-04   -0.94649E-04  2616   0.581E-02    0.446E-02
DAV:   9    -0.136519850149E+04    0.12009E-04   -0.24045E-04  2512   0.317E-02    0.288E-02
DAV:  10    -0.136519850253E+04   -0.10404E-05   -0.98811E-05  2568   0.190E-02    0.177E-02
DAV:  11    -0.136519850193E+04    0.59875E-06   -0.32631E-05  2352   0.125E-02    0.934E-03
DAV:  12    -0.136519850172E+04    0.21227E-06   -0.16695E-05  2000   0.903E-03    0.730E-03
DAV:  13    -0.136519850155E+04    0.17000E-06   -0.94733E-06  1760   0.621E-03
  19 F= -.13651985E+04 E0= -.13651985E+04  d E =-.339322E+00
 BRION: g(F)=  0.904E-01 g(S)=  0.000E+00 retain N=  3 mean eig= 5.39
 eig:   7.196  7.196  1.790
 bond charge predicted
       N       E                     dE             d eps       ncg     rms          rms(c)
DAV:   1    -0.136530312016E+04   -0.10462E+00   -0.20911E+01  1368   0.644E+00    0.736E-01
DAV:   2    -0.136540676577E+04   -0.10365E+00   -0.10912E+00  2312   0.246E+00    0.374E-01
DAV:   3    -0.136541254017E+04   -0.57744E-02   -0.84697E-02  2576   0.489E-01    0.298E-01
DAV:   4    -0.136541121375E+04    0.13264E-02   -0.79345E-03  2552   0.203E-01    0.210E-01
DAV:   5    -0.136540985848E+04    0.13553E-02   -0.40497E-03  2240   0.132E-01    0.842E-02
DAV:   6    -0.136540992659E+04   -0.68111E-04   -0.29135E-03  2320   0.972E-02    0.656E-02
DAV:   7    -0.136540993130E+04   -0.47142E-05   -0.10012E-03  2424   0.590E-02    0.507E-02
DAV:   8    -0.136540991959E+04    0.11710E-04   -0.43816E-04  2536   0.384E-02    0.286E-02
DAV:   9    -0.136540991479E+04    0.48015E-05   -0.10922E-04  2440   0.214E-02    0.187E-02
DAV:  10    -0.136540991540E+04   -0.60677E-06   -0.42061E-05  2504   0.127E-02    0.119E-02
DAV:  11    -0.136540991459E+04    0.80356E-06   -0.12841E-05  1824   0.857E-03    0.568E-03
DAV:  12    -0.136540991497E+04   -0.37349E-06   -0.89699E-06  1752   0.641E-03
  20 F= -.13654099E+04 E0= -.13654099E+04  d E =-.211413E+00
 BRION: g(F)=  0.838E-01 g(S)=  0.000E+00 retain N=  2 mean eig= 4.43
 eig:   4.425  4.425
