 running on  160 total cores
 distrk:  each k-point on  160 cores,    1 groups
 distr:  one band on   20 cores,    8 groups
 using from now: INCAR     
 vasp.5.4.4.18Apr17-6-g9f103f2a35 (build May 01 2020 14:22:42) gamma-only       
  
 POSCAR found type information on POSCAR  O  La Zr Li Al
 POSCAR found :  5 types and     188 ions
 scaLAPACK will be used
 LDA part: xc-table for Pade appr. of Perdew
 POSCAR, INCAR and KPOINTS ok, starting setup
 FFT: planning ...
 WAVECAR not read
 WARNING: random wavefunctions but no delay for mixing, default for NELMDL
 entering main loop
       N       E                     dE             d eps       ncg     rms          rms(c)
DAV:   1     0.253294550579E+05    0.25329E+05   -0.41912E+05  1600   0.253E+03
DAV:   2     0.933408026315E+04   -0.15995E+05   -0.14771E+05  1424   0.703E+02
DAV:   3     0.263985815581E+04   -0.66942E+04   -0.61033E+04  1520   0.356E+02
DAV:   4    -0.382953500431E+03   -0.30228E+04   -0.28207E+04  2056   0.222E+02
DAV:   5    -0.141698794740E+04   -0.10340E+04   -0.99819E+03  2528   0.139E+02    0.117E+02
DAV:   6    -0.130125235716E+04    0.11574E+03   -0.14269E+03  2432   0.656E+01    0.501E+01
DAV:   7    -0.132450881061E+04   -0.23256E+02   -0.38379E+02  2568   0.337E+01    0.245E+01
DAV:   8    -0.133453335101E+04   -0.10025E+02   -0.26480E+02  2536   0.266E+01    0.269E+01
DAV:   9    -0.132646973874E+04    0.80636E+01   -0.60248E+01  2464   0.153E+01    0.787E+00
DAV:  10    -0.132760883580E+04   -0.11391E+01   -0.16452E+01  2600   0.840E+00    0.808E+00
DAV:  11    -0.132782175954E+04   -0.21292E+00   -0.70269E+00  2624   0.454E+00    0.435E+00
DAV:  12    -0.132765350334E+04    0.16826E+00   -0.27666E+00  2560   0.372E+00    0.288E+00
DAV:  13    -0.132773084608E+04   -0.77343E-01   -0.95139E-01  2536   0.183E+00    0.214E+00
DAV:  14    -0.132770911660E+04    0.21729E-01   -0.35905E-01  2600   0.119E+00    0.118E+00
DAV:  15    -0.132771901052E+04   -0.98939E-02   -0.10833E-01  2576   0.668E-01    0.105E+00
DAV:  16    -0.132771990383E+04   -0.89331E-03   -0.36759E-02  2624   0.360E-01    0.712E-01
DAV:  17    -0.132771629190E+04    0.36119E-02   -0.31346E-02  2416   0.347E-01    0.311E-01
DAV:  18    -0.132771679018E+04   -0.49829E-03   -0.66168E-03  2352   0.180E-01    0.177E-01
DAV:  19    -0.132771675128E+04    0.38903E-04   -0.27571E-03  2600   0.105E-01    0.884E-02
DAV:  20    -0.132771680751E+04   -0.56226E-04   -0.58749E-04  2624   0.485E-02    0.387E-02
DAV:  21    -0.132771682896E+04   -0.21451E-04   -0.17214E-04  2592   0.264E-02    0.392E-02
DAV:  22    -0.132771683882E+04   -0.98656E-05   -0.63401E-05  2552   0.152E-02    0.151E-02
DAV:  23    -0.132771683656E+04    0.22662E-05   -0.39446E-05  2352   0.117E-02    0.515E-03
DAV:  24    -0.132771683918E+04   -0.26227E-05   -0.72225E-06  1096   0.679E-03    0.273E-03
DAV:  25    -0.132771684100E+04   -0.18190E-05   -0.42686E-06  1056   0.583E-03    0.184E-03
DAV:  26    -0.132771684122E+04   -0.22441E-06   -0.18473E-06   992   0.491E-03
   1 F= -.13277168E+04 E0= -.13277168E+04  d E =-.132772E+04
 BRION: g(F)=  0.586E+02 g(S)=  0.000E+00
 bond charge predicted
       N       E                     dE             d eps       ncg     rms          rms(c)
DAV:   1    -0.129711637146E+04    0.30600E+02   -0.68076E+03  1608   0.122E+02    0.255E+01
DAV:   2    -0.134618046305E+04   -0.49064E+02   -0.56294E+02  2552   0.525E+01    0.136E+01
DAV:   3    -0.134464436262E+04    0.15361E+01   -0.32631E+01  2616   0.148E+01    0.917E+00
DAV:   4    -0.134285336481E+04    0.17910E+01   -0.11926E+01  2424   0.693E+00    0.439E+00
DAV:   5    -0.134264892084E+04    0.20444E+00   -0.30121E+00  2544   0.395E+00    0.300E+00
DAV:   6    -0.134254748927E+04    0.10143E+00   -0.23727E+00  2560   0.279E+00    0.147E+00
DAV:   7    -0.134255245994E+04   -0.49707E-02   -0.46958E-01  2528   0.158E+00    0.118E+00
DAV:   8    -0.134254205258E+04    0.10407E-01   -0.27819E-01  2616   0.905E-01    0.496E-01
DAV:   9    -0.134254382226E+04   -0.17697E-02   -0.45593E-02  2560   0.492E-01    0.390E-01
DAV:  10    -0.134254233126E+04    0.14910E-02   -0.16897E-02  2624   0.276E-01    0.179E-01
DAV:  11    -0.134254305944E+04   -0.72818E-03   -0.13068E-02  2616   0.201E-01    0.149E-01
DAV:  12    -0.134254298953E+04    0.69910E-04   -0.21504E-03  2584   0.992E-02    0.909E-02
DAV:  13    -0.134254291623E+04    0.73295E-04   -0.12366E-03  2592   0.642E-02    0.202E-02
DAV:  14    -0.134254293992E+04   -0.23689E-04   -0.20792E-04  2488   0.309E-02    0.102E-02
DAV:  15    -0.134254294594E+04   -0.60197E-05   -0.49479E-05  2608   0.154E-02    0.722E-03
DAV:  16    -0.134254294638E+04   -0.43686E-06   -0.14848E-05  1888   0.971E-03    0.509E-03
DAV:  17    -0.134254294759E+04   -0.12173E-05   -0.13439E-05  1872   0.739E-03    0.427E-03
DAV:  18    -0.134254294748E+04    0.11572E-06   -0.13896E-06  1016   0.460E-03
   2 F= -.13425429E+04 E0= -.13425429E+04  d E =-.148261E+02
 BRION: g(F)=  0.138E+03 g(S)=  0.000E+00 retain N=  1 mean eig= 0.35
 eig:   0.353
 bond charge predicted
       N       E                     dE             d eps       ncg     rms          rms(c)
DAV:   1    -0.132989991741E+04    0.12643E+02   -0.21851E+03  1344   0.561E+01    0.192E+01
DAV:   2    -0.135564463433E+04   -0.25745E+02   -0.33204E+02  2496   0.289E+01    0.164E+01
DAV:   3    -0.135282084104E+04    0.28238E+01   -0.27787E+01  2512   0.108E+01    0.117E+01
DAV:   4    -0.135109705054E+04    0.17238E+01   -0.27693E+01  2136   0.652E+00    0.487E+00
DAV:   5    -0.135155715715E+04   -0.46011E+00   -0.55281E+00  2416   0.367E+00    0.643E+00
DAV:   6    -0.135080938457E+04    0.74777E+00   -0.37441E+00  2544   0.277E+00    0.183E+00
DAV:   7    -0.135085333022E+04   -0.43946E-01   -0.15183E+00  2448   0.193E+00    0.120E+00
DAV:   8    -0.135083825598E+04    0.15074E-01   -0.18312E-01  2520   0.994E-01    0.765E-01
DAV:   9    -0.135083647184E+04    0.17841E-02   -0.69288E-02  2576   0.431E-01    0.310E-01
DAV:  10    -0.135083672820E+04   -0.25637E-03   -0.12379E-02  2624   0.213E-01    0.151E-01
DAV:  11    -0.135083685087E+04   -0.12267E-03   -0.27290E-03  2624   0.109E-01    0.856E-02
DAV:  12    -0.135083683396E+04    0.16906E-04   -0.17840E-03  2616   0.735E-02    0.380E-02
DAV:  13    -0.135083686260E+04   -0.28632E-04   -0.42862E-04  2408   0.487E-02    0.350E-02
DAV:  14    -0.135083687023E+04   -0.76355E-05   -0.13198E-04  2464   0.198E-02    0.273E-02
DAV:  15    -0.135083685676E+04    0.13471E-04   -0.10619E-04  2528   0.196E-02    0.707E-03
DAV:  16    -0.135083685955E+04   -0.27862E-05   -0.31159E-05  2408   0.127E-02    0.299E-03
DAV:  17    -0.135083685988E+04   -0.33750E-06   -0.35196E-06  1256   0.492E-03
   3 F= -.13508369E+04 E0= -.13508369E+04  d E =-.829391E+01
 BRION: g(F)=  0.163E+02 g(S)=  0.000E+00 retain N=  2 mean eig= 2.11
 eig:   0.207  4.012
 bond charge predicted
       N       E                     dE             d eps       ncg     rms          rms(c)
DAV:   1    -0.135077852003E+04    0.58340E-01   -0.71245E+02  1408   0.357E+01    0.730E+00
DAV:   2    -0.135509074402E+04   -0.43122E+01   -0.50774E+01  2328   0.155E+01    0.393E+00
DAV:   3    -0.135516406117E+04   -0.73317E-01   -0.41175E+00  2576   0.458E+00    0.343E+00
DAV:   4    -0.135500606654E+04    0.15799E+00   -0.99474E-01  2480   0.193E+00    0.186E+00
DAV:   5    -0.135497407435E+04    0.31992E-01   -0.62384E-01  2264   0.140E+00    0.143E+00
DAV:   6    -0.135495097023E+04    0.23104E-01   -0.23311E-01  2504   0.104E+00    0.103E+00
DAV:   7    -0.135494586052E+04    0.51097E-02   -0.22340E-01  2400   0.772E-01    0.517E-01
DAV:   8    -0.135494460699E+04    0.12535E-02   -0.27818E-02  2528   0.360E-01    0.300E-01
DAV:   9    -0.135494426976E+04    0.33723E-03   -0.10197E-02  2600   0.181E-01    0.138E-01
DAV:  10    -0.135494444967E+04   -0.17991E-03   -0.31282E-03  2464   0.105E-01    0.998E-02
DAV:  11    -0.135494434205E+04    0.10763E-03   -0.97840E-04  2608   0.643E-02    0.428E-02
DAV:  12    -0.135494435590E+04   -0.13856E-04   -0.48268E-04  2576   0.417E-02    0.227E-02
DAV:  13    -0.135494436144E+04   -0.55374E-05   -0.10621E-04  2600   0.212E-02    0.142E-02
DAV:  14    -0.135494436316E+04   -0.17254E-05   -0.48692E-05  2464   0.125E-02    0.884E-03
DAV:  15    -0.135494436298E+04    0.18469E-06   -0.12366E-05  1856   0.776E-03    0.416E-03
DAV:  16    -0.135494436310E+04   -0.12346E-06   -0.35362E-06  1168   0.529E-03
   4 F= -.13549444E+04 E0= -.13549444E+04  d E =-.410750E+01
 BRION: g(F)=  0.571E+01 g(S)=  0.000E+00 retain N=  2 mean eig= 0.36
 eig:   0.361  0.361
 bond charge predicted
       N       E                     dE             d eps       ncg     rms          rms(c)
DAV:   1    -0.135632817870E+04   -0.13838E+01   -0.22170E+02  1368   0.201E+01    0.353E+00
DAV:   2    -0.135746993920E+04   -0.11418E+01   -0.12314E+01  2280   0.791E+00    0.178E+00
DAV:   3    -0.135748169863E+04   -0.11759E-01   -0.83082E-01  2608   0.170E+00    0.149E+00
DAV:   4    -0.135743948388E+04    0.42215E-01   -0.24530E-01  2496   0.951E-01    0.688E-01
DAV:   5    -0.135743592904E+04    0.35548E-02   -0.81741E-02  2448   0.573E-01    0.509E-01
DAV:   6    -0.135743468097E+04    0.12481E-02   -0.60277E-02  2528   0.432E-01    0.244E-01
DAV:   7    -0.135743462765E+04    0.53325E-04   -0.15202E-02  2296   0.236E-01    0.210E-01
DAV:   8    -0.135743452852E+04    0.99132E-04   -0.54259E-03  2360   0.122E-01    0.116E-01
DAV:   9    -0.135743440550E+04    0.12302E-03   -0.22763E-03  2584   0.825E-02    0.586E-02
DAV:  10    -0.135743445646E+04   -0.50958E-04   -0.87276E-04  2472   0.562E-02    0.643E-02
DAV:  11    -0.135743441196E+04    0.44501E-04   -0.37311E-04  2528   0.365E-02    0.253E-02
DAV:  12    -0.135743441674E+04   -0.47842E-05   -0.18399E-04  2368   0.238E-02    0.139E-02
DAV:  13    -0.135743441803E+04   -0.12836E-05   -0.31396E-05  2144   0.122E-02    0.954E-03
DAV:  14    -0.135743441779E+04    0.23462E-06   -0.12268E-05  1736   0.659E-03    0.521E-03
DAV:  15    -0.135743441760E+04    0.19441E-06   -0.22447E-06  1064   0.505E-03
   5 F= -.13574344E+04 E0= -.13574344E+04  d E =-.249005E+01
 BRION: g(F)=  0.296E+01 g(S)=  0.000E+00 retain N=  3 mean eig= 0.24
 eig:   0.178  0.178  0.354
 bond charge predicted
       N       E                     dE             d eps       ncg     rms          rms(c)
DAV:   1    -0.135809935643E+04   -0.66494E+00   -0.30046E+02  1352   0.239E+01    0.351E+00
DAV:   2    -0.135957549835E+04   -0.14761E+01   -0.15659E+01  2304   0.898E+00    0.186E+00
DAV:   3    -0.135961187148E+04   -0.36373E-01   -0.10386E+00  2608   0.186E+00    0.153E+00
DAV:   4    -0.135957197530E+04    0.39896E-01   -0.20555E-01  2560   0.931E-01    0.841E-01
DAV:   5    -0.135956188847E+04    0.10087E-01   -0.89408E-02  2456   0.579E-01    0.451E-01
DAV:   6    -0.135956241349E+04   -0.52501E-03   -0.40224E-02  2584   0.386E-01    0.298E-01
DAV:   7    -0.135956185176E+04    0.56172E-03   -0.16253E-02  2416   0.238E-01    0.183E-01
DAV:   8    -0.135956198849E+04   -0.13673E-03   -0.59398E-03  2528   0.135E-01    0.105E-01
DAV:   9    -0.135956185877E+04    0.12972E-03   -0.11871E-03  2568   0.742E-02    0.658E-02
DAV:  10    -0.135956195401E+04   -0.95242E-04   -0.14321E-03  2312   0.594E-02    0.707E-02
DAV:  11    -0.135956186981E+04    0.84200E-04   -0.51956E-04  2528   0.472E-02    0.209E-02
DAV:  12    -0.135956188435E+04   -0.14537E-04   -0.20766E-04  2448   0.261E-02    0.159E-02
DAV:  13    -0.135956188300E+04    0.13507E-05   -0.33009E-05  2400   0.123E-02    0.790E-03
DAV:  14    -0.135956188335E+04   -0.34551E-06   -0.11759E-05  1864   0.653E-03    0.444E-03
DAV:  15    -0.135956188348E+04   -0.13648E-06   -0.11417E-06  1016   0.391E-03
   6 F= -.13595619E+04 E0= -.13595619E+04  d E =-.212747E+01
 BRION: g(F)=  0.179E+01 g(S)=  0.000E+00 retain N=  4 mean eig= 0.48
 eig:   0.314  0.314  0.641  0.641
 bond charge predicted
       N       E                     dE             d eps       ncg     rms          rms(c)
DAV:   1    -0.135997997385E+04   -0.41809E+00   -0.21948E+02  1368   0.207E+01    0.285E+00
DAV:   2    -0.136105117998E+04   -0.10712E+01   -0.11293E+01  2304   0.783E+00    0.147E+00
DAV:   3    -0.136108558256E+04   -0.34403E-01   -0.79522E-01  2608   0.155E+00    0.117E+00
DAV:   4    -0.136105757284E+04    0.28010E-01   -0.13703E-01  2552   0.787E-01    0.626E-01
DAV:   5    -0.136105023161E+04    0.73412E-02   -0.49560E-02  2480   0.469E-01    0.305E-01
DAV:   6    -0.136105081328E+04   -0.58167E-03   -0.25460E-02  2568   0.308E-01    0.183E-01
DAV:   7    -0.136105073044E+04    0.82843E-04   -0.81915E-03  2240   0.180E-01    0.138E-01
DAV:   8    -0.136105079813E+04   -0.67688E-04   -0.34223E-03  2344   0.972E-02    0.775E-02
DAV:   9    -0.136105076640E+04    0.31731E-04   -0.62861E-04  2624   0.561E-02    0.535E-02
DAV:  10    -0.136105076651E+04   -0.10895E-06   -0.65816E-04  2544   0.461E-02    0.374E-02
DAV:  11    -0.136105075811E+04    0.83962E-05   -0.19033E-04  2488   0.285E-02    0.155E-02
DAV:  12    -0.136105076163E+04   -0.35198E-05   -0.65603E-05  2440   0.157E-02    0.106E-02
DAV:  13    -0.136105076161E+04    0.15149E-07   -0.17657E-05  2104   0.900E-03    0.675E-03
DAV:  14    -0.136105076165E+04   -0.39581E-07   -0.82477E-06  1648   0.595E-03
   7 F= -.13610508E+04 E0= -.13610508E+04  d E =-.148888E+01
 BRION: g(F)=  0.723E+00 g(S)=  0.000E+00 retain N=  5 mean eig= 0.79
 eig:   1.449  1.449  0.218  0.218  0.600
 bond charge predicted
       N       E                     dE             d eps       ncg     rms          rms(c)
DAV:   1    -0.136133991787E+04   -0.28916E+00   -0.96558E+01  1384   0.139E+01    0.194E+00
DAV:   2    -0.136181709045E+04   -0.47717E+00   -0.50342E+00  2296   0.536E+00    0.959E-01
DAV:   3    -0.136183815849E+04   -0.21068E-01   -0.37382E-01  2608   0.104E+00    0.744E-01
DAV:   4    -0.136182799996E+04    0.10159E-01   -0.54913E-02  2520   0.521E-01    0.400E-01
DAV:   5    -0.136182622553E+04    0.17744E-02   -0.21881E-02  2448   0.303E-01    0.190E-01
DAV:   6    -0.136182670500E+04   -0.47947E-03   -0.87930E-03  2568   0.175E-01    0.117E-01
DAV:   7    -0.136182665388E+04    0.51120E-04   -0.21664E-03  2408   0.100E-01    0.827E-02
DAV:   8    -0.136182668649E+04   -0.32612E-04   -0.13467E-03  2416   0.624E-02    0.504E-02
DAV:   9    -0.136182666324E+04    0.23253E-04   -0.23533E-04  2544   0.366E-02    0.344E-02
DAV:  10    -0.136182666422E+04   -0.97713E-06   -0.29025E-04  2512   0.294E-02    0.218E-02
DAV:  11    -0.136182666140E+04    0.28133E-05   -0.63749E-05  2432   0.170E-02    0.104E-02
DAV:  12    -0.136182666256E+04   -0.11612E-05   -0.26568E-05  2288   0.968E-03    0.701E-03
DAV:  13    -0.136182666209E+04    0.47818E-06   -0.26319E-06  1064   0.583E-03
   8 F= -.13618267E+04 E0= -.13618267E+04  d E =-.775900E+00
 BRION: g(F)=  0.633E+00 g(S)=  0.000E+00 retain N=  6 mean eig= 1.04
 eig:   2.227  2.227  0.254  0.254  0.646  0.646
 bond charge predicted
       N       E                     dE             d eps       ncg     rms          rms(c)
DAV:   1    -0.136205365233E+04   -0.22699E+00   -0.10840E+02  1368   0.147E+01    0.174E+00
DAV:   2    -0.136259043243E+04   -0.53678E+00   -0.56342E+00  2272   0.555E+00    0.896E-01
DAV:   3    -0.136262059245E+04   -0.30160E-01   -0.44097E-01  2608   0.111E+00    0.723E-01
DAV:   4    -0.136261358048E+04    0.70120E-02   -0.44181E-02  2600   0.484E-01    0.490E-01
DAV:   5    -0.136260791699E+04    0.56635E-02   -0.20071E-02  2384   0.300E-01    0.208E-01
DAV:   6    -0.136260813263E+04   -0.21565E-03   -0.13945E-02  2376   0.231E-01    0.144E-01
DAV:   7    -0.136260827798E+04   -0.14535E-03   -0.63590E-03  2440   0.150E-01    0.121E-01
DAV:   8    -0.136260822754E+04    0.50443E-04   -0.21064E-03  2592   0.873E-02    0.706E-02
DAV:   9    -0.136260818644E+04    0.41102E-04   -0.62433E-04  2536   0.490E-02    0.431E-02
DAV:  10    -0.136260819799E+04   -0.11548E-04   -0.28188E-04  2552   0.310E-02    0.297E-02
DAV:  11    -0.136260819448E+04    0.35039E-05   -0.10863E-04  2480   0.224E-02    0.167E-02
DAV:  12    -0.136260819455E+04   -0.66953E-07   -0.54430E-05  2336   0.154E-02    0.155E-02
DAV:  13    -0.136260819242E+04    0.21289E-05   -0.31382E-05  2104   0.102E-02    0.713E-03
DAV:  14    -0.136260819245E+04   -0.25364E-07   -0.10116E-05  1768   0.632E-03    0.264E-03
DAV:  15    -0.136260819261E+04   -0.16455E-06   -0.10864E-06   992   0.369E-03
   9 F= -.13626082E+04 E0= -.13626082E+04  d E =-.781531E+00
 BRION: g(F)=  0.434E+00 g(S)=  0.000E+00 retain N=  7 mean eig= 1.40
 eig:   2.784  2.784  1.346  1.346  0.558  0.558  0.451
 bond charge predicted
       N       E                     dE             d eps       ncg     rms          rms(c)
DAV:   1    -0.136269824543E+04   -0.90053E-01   -0.11620E+02  1376   0.155E+01    0.184E+00
DAV:   2    -0.136328683532E+04   -0.58859E+00   -0.62143E+00  2280   0.599E+00    0.928E-01
DAV:   3    -0.136332261730E+04   -0.35782E-01   -0.50063E-01  2600   0.119E+00    0.743E-01
DAV:   4    -0.136331568308E+04    0.69342E-02   -0.48501E-02  2600   0.522E-01    0.514E-01
DAV:   5    -0.136330996511E+04    0.57180E-02   -0.23759E-02  2384   0.322E-01    0.213E-01
DAV:   6    -0.136331044250E+04   -0.47739E-03   -0.14999E-02  2400   0.239E-01    0.163E-01
DAV:   7    -0.136331049337E+04   -0.50864E-04   -0.68966E-03  2456   0.159E-01    0.125E-01
DAV:   8    -0.136331046248E+04    0.30887E-04   -0.26914E-03  2592   0.980E-02    0.728E-02
DAV:   9    -0.136331042132E+04    0.41159E-04   -0.58908E-04  2528   0.507E-02    0.475E-02
DAV:  10    -0.136331042797E+04   -0.66514E-05   -0.31609E-04  2568   0.324E-02    0.284E-02
DAV:  11    -0.136331042935E+04   -0.13803E-05   -0.10766E-04  2504   0.221E-02    0.176E-02
DAV:  12    -0.136331042724E+04    0.21159E-05   -0.45800E-05  2352   0.155E-02    0.143E-02
DAV:  13    -0.136331042641E+04    0.82573E-06   -0.38789E-05  2216   0.107E-02    0.757E-03
DAV:  14    -0.136331042633E+04    0.77998E-07   -0.94485E-06  1744   0.597E-03
  10 F= -.13633104E+04 E0= -.13633104E+04  d E =-.702234E+00
 BRION: g(F)=  0.250E+00 g(S)=  0.000E+00 retain N=  8 mean eig= 2.01
 eig:   4.647  4.647  2.104  2.104  0.582  0.582  1.001  0.393
 bond charge predicted
       N       E                     dE             d eps       ncg     rms          rms(c)
DAV:   1    -0.136329013241E+04    0.20294E-01   -0.11503E+02  1376   0.152E+01    0.174E+00
DAV:   2    -0.136387508368E+04   -0.58495E+00   -0.61678E+00  2280   0.594E+00    0.909E-01
DAV:   3    -0.136391006624E+04   -0.34983E-01   -0.49130E-01  2592   0.117E+00    0.743E-01
DAV:   4    -0.136390408708E+04    0.59792E-02   -0.45727E-02  2616   0.499E-01    0.541E-01
DAV:   5    -0.136389678373E+04    0.73033E-02   -0.20496E-02  2368   0.308E-01    0.243E-01
DAV:   6    -0.136389664527E+04    0.13846E-03   -0.18420E-02  2272   0.260E-01    0.149E-01
DAV:   7    -0.136389693378E+04   -0.28851E-03   -0.85846E-03  2416   0.171E-01    0.137E-01
DAV:   8    -0.136389685560E+04    0.78173E-04   -0.23246E-03  2608   0.959E-02    0.853E-02
DAV:   9    -0.136389678305E+04    0.72557E-04   -0.97044E-04  2576   0.575E-02    0.437E-02
DAV:  10    -0.136389680799E+04   -0.24945E-04   -0.31065E-04  2576   0.348E-02    0.329E-02
DAV:  11    -0.136389680681E+04    0.11857E-05   -0.11043E-04  2456   0.222E-02    0.232E-02
DAV:  12    -0.136389680286E+04    0.39495E-05   -0.83233E-05  2320   0.186E-02    0.193E-02
DAV:  13    -0.136389680014E+04    0.27201E-05   -0.45916E-05  2216   0.125E-02    0.104E-02
DAV:  14    -0.136389679968E+04    0.45852E-06   -0.13813E-05  1776   0.708E-03    0.364E-03
DAV:  15    -0.136389679966E+04    0.14305E-07   -0.14888E-06   968   0.432E-03
  11 F= -.13638968E+04 E0= -.13638968E+04  d E =-.586373E+00
 BRION: g(F)=  0.176E+00 g(S)=  0.000E+00 retain N=  9 mean eig= 2.36
 eig:   6.036  6.036  2.634  2.634  1.209  1.209  0.548  0.548  0.382
 bond charge predicted
       N       E                     dE             d eps       ncg     rms          rms(c)
DAV:   1    -0.136398378022E+04   -0.86981E-01   -0.46408E+01  1376   0.971E+00    0.112E+00
DAV:   2    -0.136422083174E+04   -0.23705E+00   -0.25007E+00  2296   0.383E+00    0.580E-01
DAV:   3    -0.136423463918E+04   -0.13807E-01   -0.19587E-01  2584   0.729E-01    0.468E-01
DAV:   4    -0.136423192480E+04    0.27144E-02   -0.18481E-02  2584   0.320E-01    0.337E-01
DAV:   5    -0.136422902643E+04    0.28984E-02   -0.89001E-03  2352   0.199E-01    0.141E-01
DAV:   6    -0.136422911547E+04   -0.89040E-04   -0.70276E-03  2360   0.159E-01    0.983E-02
DAV:   7    -0.136422917079E+04   -0.55323E-04   -0.29884E-03  2456   0.103E-01    0.823E-02
DAV:   8    -0.136422914584E+04    0.24956E-04   -0.10269E-03  2584   0.614E-02    0.466E-02
DAV:   9    -0.136422912710E+04    0.18732E-04   -0.29758E-04  2504   0.338E-02    0.282E-02
DAV:  10    -0.136422913293E+04   -0.58265E-05   -0.10458E-04  2528   0.199E-02    0.201E-02
DAV:  11    -0.136422913245E+04    0.47550E-06   -0.46108E-05  2384   0.141E-02    0.130E-02
DAV:  12    -0.136422913112E+04    0.13366E-05   -0.22527E-05  2176   0.107E-02    0.103E-02
DAV:  13    -0.136422913041E+04    0.70977E-06   -0.16150E-05  1840   0.757E-03    0.493E-03
DAV:  14    -0.136422913018E+04    0.22438E-06   -0.22884E-06  1032   0.497E-03
  12 F= -.13642291E+04 E0= -.13642291E+04  d E =-.332331E+00
 BRION: g(F)=  0.151E+00 g(S)=  0.000E+00 retain N=  9 mean eig= 2.71
 eig:   7.803  7.803  2.142  2.142  0.827  0.827  0.919  0.919  1.030
 bond charge predicted
       N       E                     dE             d eps       ncg     rms          rms(c)
DAV:   1    -0.136427735144E+04   -0.48221E-01   -0.53672E+01  1360   0.105E+01    0.120E+00
DAV:   2    -0.136455050223E+04   -0.27315E+00   -0.28753E+00  2296   0.409E+00    0.613E-01
DAV:   3    -0.136456655174E+04   -0.16050E-01   -0.22367E-01  2600   0.783E-01    0.504E-01
DAV:   4    -0.136456385503E+04    0.26967E-02   -0.19549E-02  2616   0.333E-01    0.378E-01
DAV:   5    -0.136455991577E+04    0.39393E-02   -0.10340E-02  2288   0.216E-01    0.161E-01
DAV:   6    -0.136456006764E+04   -0.15187E-03   -0.98870E-03  2296   0.183E-01    0.115E-01
DAV:   7    -0.136456010155E+04   -0.33911E-04   -0.37722E-03  2408   0.113E-01    0.969E-02
DAV:   8    -0.136456005524E+04    0.46309E-04   -0.12589E-03  2552   0.691E-02    0.533E-02
DAV:   9    -0.136456002362E+04    0.31619E-04   -0.40874E-04  2440   0.387E-02    0.301E-02
DAV:  10    -0.136456003327E+04   -0.96529E-05   -0.12660E-04  2504   0.217E-02    0.223E-02
DAV:  11    -0.136456003149E+04    0.17815E-05   -0.50327E-05  2424   0.146E-02    0.145E-02
DAV:  12    -0.136456003064E+04    0.84995E-06   -0.29442E-05  2216   0.113E-02    0.121E-02
DAV:  13    -0.136456002948E+04    0.11585E-05   -0.16815E-05  1856   0.768E-03    0.583E-03
DAV:  14    -0.136456002916E+04    0.32662E-06   -0.24617E-06  1032   0.493E-03
  13 F= -.13645600E+04 E0= -.13645600E+04  d E =-.330899E+00
 BRION: g(F)=  0.117E+00 g(S)=  0.000E+00 retain N=  8 mean eig= 3.42
 eig:   7.792  7.792  3.478  3.478  1.126  1.126  1.292  1.292
 bond charge predicted
       N       E                     dE             d eps       ncg     rms          rms(c)
DAV:   1    -0.136459698825E+04   -0.36959E-01   -0.49817E+01  1368   0.100E+01    0.114E+00
DAV:   2    -0.136485120117E+04   -0.25421E+00   -0.26802E+00  2296   0.393E+00    0.583E-01
DAV:   3    -0.136486641681E+04   -0.15216E-01   -0.21179E-01  2600   0.761E-01    0.481E-01
DAV:   4    -0.136486394720E+04    0.24696E-02   -0.18222E-02  2608   0.323E-01    0.362E-01
DAV:   5    -0.136486033536E+04    0.36118E-02   -0.94837E-03  2336   0.198E-01    0.160E-01
DAV:   6    -0.136486030785E+04    0.27508E-04   -0.87391E-03  2240   0.170E-01    0.108E-01
DAV:   7    -0.136486039005E+04   -0.82197E-04   -0.41494E-03  2416   0.116E-01    0.961E-02
DAV:   8    -0.136486033298E+04    0.57067E-04   -0.11892E-03  2536   0.700E-02    0.569E-02
DAV:   9    -0.136486030241E+04    0.30574E-04   -0.44771E-04  2512   0.390E-02    0.306E-02
DAV:  10    -0.136486031211E+04   -0.97067E-05   -0.12620E-04  2544   0.224E-02    0.221E-02
DAV:  11    -0.136486031256E+04   -0.45025E-06   -0.43624E-05  2336   0.139E-02    0.170E-02
DAV:  12    -0.136486031035E+04    0.22117E-05   -0.43250E-05  2200   0.127E-02    0.139E-02
DAV:  13    -0.136486030902E+04    0.13364E-05   -0.20400E-05  2040   0.873E-03    0.843E-03
DAV:  14    -0.136486030839E+04    0.62260E-06   -0.51159E-06  1384   0.528E-03
  14 F= -.13648603E+04 E0= -.13648603E+04  d E =-.300279E+00
 BRION: g(F)=  0.996E-01 g(S)=  0.000E+00 retain N=  6 mean eig= 4.08
 eig:   7.115  7.115  3.527  3.527  1.587  1.587
 bond charge predicted
       N       E                     dE             d eps       ncg     rms          rms(c)
DAV:   1    -0.136491867477E+04   -0.58366E-01   -0.34904E+01  1368   0.838E+00    0.935E-01
DAV:   2    -0.136509423367E+04   -0.17556E+00   -0.18487E+00  2304   0.323E+00    0.481E-01
DAV:   3    -0.136510485887E+04   -0.10625E-01   -0.14695E-01  2608   0.628E-01    0.395E-01
DAV:   4    -0.136510316917E+04    0.16897E-02   -0.12376E-02  2616   0.264E-01    0.297E-01
DAV:   5    -0.136510072323E+04    0.24459E-02   -0.62062E-03  2320   0.163E-01    0.134E-01
DAV:   6    -0.136510065908E+04    0.64152E-04   -0.59510E-03  2232   0.145E-01    0.867E-02
DAV:   7    -0.136510073946E+04   -0.80384E-04   -0.30446E-03  2408   0.981E-02    0.800E-02
DAV:   8    -0.136510069890E+04    0.40561E-04   -0.74954E-04  2544   0.571E-02    0.478E-02
DAV:   9    -0.136510067536E+04    0.23543E-04   -0.33228E-04  2536   0.329E-02    0.247E-02
DAV:  10    -0.136510068245E+04   -0.70887E-05   -0.89305E-05  2568   0.192E-02    0.184E-02
DAV:  11    -0.136510068255E+04   -0.98022E-07   -0.34581E-05  2256   0.120E-02    0.138E-02
DAV:  12    -0.136510068105E+04    0.14909E-05   -0.28566E-05  2128   0.110E-02    0.113E-02
DAV:  13    -0.136510068020E+04    0.85791E-06   -0.15054E-05  1880   0.768E-03    0.695E-03
DAV:  14    -0.136510067967E+04    0.52502E-06   -0.30001E-06  1104   0.511E-03
  15 F= -.13651007E+04 E0= -.13651007E+04  d E =-.240371E+00
 BRION: g(F)=  0.884E-01 g(S)=  0.000E+00 retain N=  3 mean eig= 4.66
 eig:   6.041  6.041  1.908
 bond charge predicted
       N       E                     dE             d eps       ncg     rms          rms(c)
DAV:   1    -0.136511629978E+04   -0.15620E-01   -0.47928E+01  1368   0.985E+00    0.111E+00
DAV:   2    -0.136536151115E+04   -0.24521E+00   -0.25870E+00  2288   0.381E+00    0.567E-01
DAV:   3    -0.136537635228E+04   -0.14841E-01   -0.20736E-01  2584   0.755E-01    0.462E-01
DAV:   4    -0.136537383176E+04    0.25205E-02   -0.18420E-02  2600   0.322E-01    0.341E-01
DAV:   5    -0.136537061307E+04    0.32187E-02   -0.88032E-03  2392   0.191E-01    0.152E-01
DAV:   6    -0.136537053539E+04    0.77677E-04   -0.75975E-03  2264   0.161E-01    0.976E-02
DAV:   7    -0.136537062734E+04   -0.91948E-04   -0.37231E-03  2432   0.111E-01    0.877E-02
DAV:   8    -0.136537058803E+04    0.39310E-04   -0.10484E-03  2568   0.650E-02    0.535E-02
DAV:   9    -0.136537056197E+04    0.26062E-04   -0.37603E-04  2528   0.360E-02    0.298E-02
DAV:  10    -0.136537056868E+04   -0.67132E-05   -0.10892E-04  2544   0.206E-02    0.202E-02
DAV:  11    -0.136537056992E+04   -0.12376E-05   -0.33731E-05  2296   0.124E-02    0.152E-02
DAV:  12    -0.136537056785E+04    0.20653E-05   -0.36633E-05  2104   0.118E-02    0.120E-02
DAV:  13    -0.136537056697E+04    0.88698E-06   -0.18453E-05  1976   0.830E-03    0.746E-03
DAV:  14    -0.136537056659E+04    0.37682E-06   -0.64044E-06  1592   0.537E-03
  16 F= -.13653706E+04 E0= -.13653706E+04  d E =-.269887E+00
 BRION: g(F)=  0.785E-01 g(S)=  0.000E+00 retain N=  3 mean eig= 5.92
 eig:   7.758  7.758  2.235
 bond charge predicted
       N       E                     dE             d eps       ncg     rms          rms(c)
DAV:   1    -0.136544297396E+04   -0.72407E-01   -0.11933E+01  1376   0.491E+00    0.554E-01
DAV:   2    -0.136550426238E+04   -0.61288E-01   -0.64836E-01  2296   0.190E+00    0.287E-01
DAV:   3    -0.136550804786E+04   -0.37855E-02   -0.53118E-02  2568   0.378E-01    0.231E-01
DAV:   4    -0.136550732163E+04    0.72623E-03   -0.48560E-03  2576   0.166E-01    0.165E-01
DAV:   5    -0.136550662613E+04    0.69550E-03   -0.24469E-03  2376   0.965E-02    0.676E-02
DAV:   6    -0.136550665239E+04   -0.26259E-04   -0.15644E-03  2384   0.737E-02    0.492E-02
DAV:   7    -0.136550666091E+04   -0.85143E-05   -0.77295E-04  2440   0.509E-02    0.379E-02
DAV:   8    -0.136550665639E+04    0.45111E-05   -0.25338E-04  2560   0.316E-02    0.236E-02
DAV:   9    -0.136550665272E+04    0.36779E-05   -0.62260E-05  2488   0.159E-02    0.158E-02
DAV:  10    -0.136550665278E+04   -0.64058E-07   -0.22691E-05  2416   0.901E-03    0.893E-03
DAV:  11    -0.136550665288E+04   -0.10263E-06   -0.47599E-06  1272   0.651E-03
  17 F= -.13655067E+04 E0= -.13655067E+04  d E =-.136086E+00
 BRION: g(F)=  0.719E-01 g(S)=  0.000E+00 retain N=  3 mean eig= 4.64
 eig:   6.231  6.231  1.450
 bond charge predicted
       N       E                     dE             d eps       ncg     rms          rms(c)
DAV:   1    -0.136556501981E+04   -0.58367E-01   -0.22908E+01  1368   0.678E+00    0.764E-01
DAV:   2    -0.136568241724E+04   -0.11740E+00   -0.12375E+00  2304   0.261E+00    0.391E-01
DAV:   3    -0.136568963896E+04   -0.72217E-02   -0.10018E-01  2584   0.517E-01    0.314E-01
DAV:   4    -0.136568832658E+04    0.13124E-02   -0.87969E-03  2592   0.224E-01    0.227E-01
DAV:   5    -0.136568687597E+04    0.14506E-02   -0.41712E-03  2368   0.133E-01    0.964E-02
DAV:   6    -0.136568688618E+04   -0.10206E-04   -0.33362E-03  2320   0.107E-01    0.630E-02
DAV:   7    -0.136568691934E+04   -0.33159E-04   -0.14545E-03  2448   0.702E-02    0.533E-02
DAV:   8    -0.136568690886E+04    0.10477E-04   -0.43772E-04  2584   0.411E-02    0.307E-02
DAV:   9    -0.136568690060E+04    0.82611E-05   -0.13595E-04  2456   0.226E-02    0.190E-02
DAV:  10    -0.136568690262E+04   -0.20225E-05   -0.43740E-05  2488   0.131E-02    0.127E-02
DAV:  11    -0.136568690249E+04    0.13242E-06   -0.16899E-05  1944   0.881E-03    0.777E-03
DAV:  12    -0.136568690209E+04    0.39669E-06   -0.10037E-05  1744   0.742E-03    0.617E-03
DAV:  13    -0.136568690189E+04    0.19900E-06   -0.68534E-06  1576   0.566E-03
  18 F= -.13656869E+04 E0= -.13656869E+04  d E =-.180249E+00
 BRION: g(F)=  0.643E-01 g(S)=  0.000E+00 retain N=  2 mean eig= 3.10
 eig:   3.100  3.100
 bond charge predicted
       N       E                     dE             d eps       ncg     rms          rms(c)
DAV:   1    -0.136571768672E+04   -0.30785E-01   -0.31792E+01  1376   0.802E+00    0.901E-01
DAV:   2    -0.136588221703E+04   -0.16453E+00   -0.17398E+00  2296   0.311E+00    0.459E-01
DAV:   3    -0.136589292210E+04   -0.10705E-01   -0.14509E-01  2592   0.622E-01    0.371E-01
DAV:   4    -0.136589124481E+04    0.16773E-02   -0.12500E-02  2608   0.271E-01    0.272E-01
DAV:   5    -0.136588925627E+04    0.19885E-02   -0.63412E-03  2352   0.158E-01    0.115E-01
DAV:   6    -0.136588929473E+04   -0.38460E-04   -0.46094E-03  2336   0.125E-01    0.830E-02
DAV:   7    -0.136588932008E+04   -0.25342E-04   -0.22587E-03  2472   0.861E-02    0.649E-02
DAV:   8    -0.136588930403E+04    0.16046E-04   -0.69641E-04  2576   0.529E-02    0.397E-02
DAV:   9    -0.136588929159E+04    0.12443E-04   -0.19509E-04  2512   0.271E-02    0.246E-02
DAV:  10    -0.136588929377E+04   -0.21885E-05   -0.57826E-05  2536   0.149E-02    0.149E-02
DAV:  11    -0.136588929469E+04   -0.92050E-06   -0.20900E-05  2200   0.964E-03    0.106E-02
DAV:  12    -0.136588929356E+04    0.11385E-05   -0.15998E-05  1920   0.863E-03    0.768E-03
DAV:  13    -0.136588929344E+04    0.11371E-06   -0.97098E-06  1776   0.612E-03
  19 F= -.13658893E+04 E0= -.13658893E+04  d E =-.202392E+00
 BRION: g(F)=  0.566E-01 g(S)=  0.000E+00 retain N=  2 mean eig= 4.52
 eig:   4.518  4.518
 bond charge predicted
       N       E                     dE             d eps       ncg     rms          rms(c)
DAV:   1    -0.136594054792E+04   -0.51254E-01   -0.14729E+01  1376   0.547E+00    0.627E-01
DAV:   2    -0.136601687488E+04   -0.76327E-01   -0.80723E-01  2304   0.213E+00    0.321E-01
DAV:   3    -0.136602178267E+04   -0.49078E-02   -0.67125E-02  2592   0.420E-01    0.258E-01
DAV:   4    -0.136602091635E+04    0.86631E-03   -0.59862E-03  2584   0.187E-01    0.185E-01
DAV:   5    -0.136601999833E+04    0.91802E-03   -0.30902E-03  2344   0.112E-01    0.737E-02
DAV:   6    -0.136602005882E+04   -0.60487E-04   -0.21536E-03  2376   0.858E-02    0.563E-02
DAV:   7    -0.136602006298E+04   -0.41592E-05   -0.87772E-04  2432   0.550E-02    0.417E-02
DAV:   8    -0.136602005777E+04    0.52101E-05   -0.30539E-04  2576   0.339E-02    0.233E-02
DAV:   9    -0.136602005426E+04    0.35140E-05   -0.72326E-05  2424   0.176E-02    0.161E-02
DAV:  10    -0.136602005478E+04   -0.52839E-06   -0.25049E-05  2432   0.980E-03    0.979E-03
DAV:  11    -0.136602005466E+04    0.12892E-06   -0.88744E-06  1552   0.725E-03
  20 F= -.13660201E+04 E0= -.13660201E+04  d E =-.130761E+00
 BRION: g(F)=  0.524E-01 g(S)=  0.000E+00 retain N=  3 mean eig= 4.90
 eig:   6.472  6.472  1.769
