 running on  160 total cores
 distrk:  each k-point on  160 cores,    1 groups
 distr:  one band on   20 cores,    8 groups
 using from now: INCAR     
 vasp.5.4.4.18Apr17-6-g9f103f2a35 (build May 01 2020 14:22:42) gamma-only       
  
 POSCAR found type information on POSCAR  O  La Zr Li Al
 POSCAR found :  5 types and     188 ions
 scaLAPACK will be used
 LDA part: xc-table for Pade appr. of Perdew
 POSCAR, INCAR and KPOINTS ok, starting setup
 FFT: planning ...
 WAVECAR not read
 WARNING: random wavefunctions but no delay for mixing, default for NELMDL
 entering main loop
       N       E                     dE             d eps       ncg     rms          rms(c)
DAV:   1     0.253010543862E+05    0.25301E+05   -0.41962E+05  1600   0.253E+03
DAV:   2     0.944429893996E+04   -0.15857E+05   -0.14667E+05  1424   0.708E+02
DAV:   3     0.266559310305E+04   -0.67787E+04   -0.61830E+04  1528   0.355E+02
DAV:   4    -0.380231387791E+03   -0.30458E+04   -0.28498E+04  2064   0.222E+02
DAV:   5    -0.141015318213E+04   -0.10299E+04   -0.99708E+03  2528   0.138E+02    0.117E+02
DAV:   6    -0.129003210403E+04    0.12012E+03   -0.14126E+03  2440   0.658E+01    0.500E+01
DAV:   7    -0.131317075703E+04   -0.23139E+02   -0.38367E+02  2576   0.340E+01    0.248E+01
DAV:   8    -0.132084842344E+04   -0.76777E+01   -0.23703E+02  2552   0.257E+01    0.246E+01
DAV:   9    -0.131526557755E+04    0.55828E+01   -0.46083E+01  2520   0.143E+01    0.835E+00
DAV:  10    -0.131593636619E+04   -0.67079E+00   -0.18044E+01  2616   0.772E+00    0.689E+00
DAV:  11    -0.131630108616E+04   -0.36472E+00   -0.46058E+00  2624   0.406E+00    0.458E+00
DAV:  12    -0.131615519412E+04    0.14589E+00   -0.19717E+00  2576   0.317E+00    0.346E+00
DAV:  13    -0.131617722943E+04   -0.22035E-01   -0.74962E-01  2584   0.170E+00    0.189E+00
DAV:  14    -0.131617553396E+04    0.16955E-02   -0.18759E-01  2608   0.879E-01    0.147E+00
DAV:  15    -0.131617602252E+04   -0.48856E-03   -0.78074E-02  2568   0.543E-01    0.978E-01
DAV:  16    -0.131617640278E+04   -0.38026E-03   -0.25962E-02  2616   0.301E-01    0.673E-01
DAV:  17    -0.131617623961E+04    0.16317E-03   -0.14931E-02  2352   0.242E-01    0.422E-01
DAV:  18    -0.131617645772E+04   -0.21812E-03   -0.41723E-03  2456   0.126E-01    0.164E-01
DAV:  19    -0.131617637929E+04    0.78430E-04   -0.21198E-03  2568   0.916E-02    0.143E-01
DAV:  20    -0.131617639777E+04   -0.18471E-04   -0.85060E-04  2520   0.522E-02    0.541E-02
DAV:  21    -0.131617641759E+04   -0.19824E-04   -0.21321E-04  2624   0.287E-02    0.448E-02
DAV:  22    -0.131617642609E+04   -0.84978E-05   -0.78658E-05  2488   0.155E-02    0.201E-02
DAV:  23    -0.131617642854E+04   -0.24545E-05   -0.26979E-05  1600   0.946E-03    0.115E-02
DAV:  24    -0.131617643187E+04   -0.33251E-05   -0.95429E-06  1104   0.695E-03    0.428E-03
DAV:  25    -0.131617643183E+04    0.39814E-07   -0.47414E-06  1048   0.553E-03
   1 F= -.13161764E+04 E0= -.13161629E+04  d E =-.131618E+04
 BRION: g(F)=  0.846E+02 g(S)=  0.000E+00
 bond charge predicted
       N       E                     dE             d eps       ncg     rms          rms(c)
DAV:   1    -0.125426761541E+04    0.61909E+02   -0.96754E+03  1744   0.146E+02    0.387E+01
DAV:   2    -0.134023500416E+04   -0.85967E+02   -0.98187E+02  2584   0.686E+01    0.191E+01
DAV:   3    -0.133719293264E+04    0.30421E+01   -0.59370E+01  2608   0.186E+01    0.124E+01
DAV:   4    -0.133447901497E+04    0.27139E+01   -0.25956E+01  2432   0.103E+01    0.593E+00
DAV:   5    -0.133445053007E+04    0.28485E-01   -0.74077E+00  2568   0.556E+00    0.432E+00
DAV:   6    -0.133435903629E+04    0.91494E-01   -0.46359E+00  2568   0.363E+00    0.277E+00
DAV:   7    -0.133430755865E+04    0.51478E-01   -0.64969E-01  2544   0.214E+00    0.159E+00
DAV:   8    -0.133431045080E+04   -0.28921E-02   -0.86347E-01  2416   0.148E+00    0.103E+00
DAV:   9    -0.133431246357E+04   -0.20128E-02   -0.14758E-01  2536   0.760E-01    0.787E-01
DAV:  10    -0.133430617359E+04    0.62900E-02   -0.49274E-02  2624   0.411E-01    0.370E-01
DAV:  11    -0.133430675001E+04   -0.57642E-03   -0.34679E-02  2544   0.299E-01    0.197E-01
DAV:  12    -0.133430671706E+04    0.32947E-04   -0.53544E-03  2544   0.162E-01    0.835E-02
DAV:  13    -0.133430681819E+04   -0.10113E-03   -0.18030E-03  2624   0.749E-02    0.322E-02
DAV:  14    -0.133430685329E+04   -0.35102E-04   -0.38865E-04  2616   0.369E-02    0.203E-02
DAV:  15    -0.133430686426E+04   -0.10974E-04   -0.14165E-04  2616   0.189E-02    0.115E-02
DAV:  16    -0.133430686865E+04   -0.43837E-05   -0.42200E-05  2104   0.115E-02    0.571E-03
DAV:  17    -0.133430687068E+04   -0.20357E-05   -0.21680E-05  2032   0.738E-03    0.609E-03
DAV:  18    -0.133430687098E+04   -0.30156E-06   -0.50500E-06  1136   0.494E-03
   2 F= -.13343069E+04 E0= -.13343069E+04  d E =-.181304E+02
 BRION: g(F)=  0.110E+03 g(S)=  0.000E+00 retain N=  1 mean eig= 0.46
 eig:   0.458
 bond charge predicted
       N       E                     dE             d eps       ncg     rms          rms(c)
DAV:   1    -0.130708435584E+04    0.27223E+02   -0.42214E+03  1360   0.875E+01    0.237E+01
DAV:   2    -0.135373218660E+04   -0.46648E+02   -0.56433E+02  2504   0.422E+01    0.237E+01
DAV:   3    -0.135132349595E+04    0.24087E+01   -0.35290E+01  2544   0.144E+01    0.186E+01
DAV:   4    -0.134880750274E+04    0.25160E+01   -0.39670E+01  2136   0.877E+00    0.964E+00
DAV:   5    -0.134977761159E+04   -0.97011E+00   -0.11725E+01  2456   0.576E+00    0.106E+01
DAV:   6    -0.134779584265E+04    0.19818E+01   -0.12600E+01  2408   0.513E+00    0.226E+00
DAV:   7    -0.134794342560E+04   -0.14758E+00   -0.25780E+00  2392   0.317E+00    0.120E+00
DAV:   8    -0.134796380813E+04   -0.20383E-01   -0.40630E-01  2624   0.111E+00    0.102E+00
DAV:   9    -0.134794993088E+04    0.13877E-01   -0.12963E-01  2592   0.681E-01    0.495E-01
DAV:  10    -0.134795524205E+04   -0.53112E-02   -0.78520E-02  2544   0.471E-01    0.443E-01
DAV:  11    -0.134795189291E+04    0.33491E-02   -0.17560E-02  2520   0.289E-01    0.185E-01
DAV:  12    -0.134795238886E+04   -0.49595E-03   -0.13627E-02  2400   0.178E-01    0.126E-01
DAV:  13    -0.134795236440E+04    0.24457E-04   -0.16951E-03  2560   0.929E-02    0.929E-02
DAV:  14    -0.134795227234E+04    0.92060E-04   -0.97518E-04  2432   0.523E-02    0.306E-02
DAV:  15    -0.134795229104E+04   -0.18695E-04   -0.29584E-04  2480   0.314E-02    0.124E-02
DAV:  16    -0.134795229648E+04   -0.54495E-05   -0.62688E-05  2520   0.146E-02    0.858E-03
DAV:  17    -0.134795229654E+04   -0.56112E-07   -0.15327E-05  2032   0.944E-03    0.443E-03
DAV:  18    -0.134795229767E+04   -0.11253E-05   -0.14436E-05  1912   0.654E-03    0.475E-03
DAV:  19    -0.134795229756E+04    0.10274E-06   -0.19312E-06  1096   0.445E-03
   3 F= -.13479523E+04 E0= -.13479523E+04  d E =-.136454E+02
 BRION: g(F)=  0.109E+02 g(S)=  0.000E+00 retain N=  2 mean eig= 2.02
 eig:   0.329  3.711
 bond charge predicted
       N       E                     dE             d eps       ncg     rms          rms(c)
DAV:   1    -0.134917138576E+04   -0.12191E+01   -0.53237E+02  1352   0.323E+01    0.555E+00
DAV:   2    -0.135206495063E+04   -0.28936E+01   -0.32970E+01  2352   0.125E+01    0.305E+00
DAV:   3    -0.135213083162E+04   -0.65881E-01   -0.24351E+00  2600   0.337E+00    0.249E+00
DAV:   4    -0.135204440470E+04    0.86427E-01   -0.55114E-01  2584   0.152E+00    0.137E+00
DAV:   5    -0.135201895484E+04    0.25450E-01   -0.24943E-01  2344   0.101E+00    0.829E-01
DAV:   6    -0.135201604992E+04    0.29049E-02   -0.12422E-01  2552   0.701E-01    0.594E-01
DAV:   7    -0.135201521523E+04    0.83469E-03   -0.63456E-02  2504   0.451E-01    0.330E-01
DAV:   8    -0.135201501742E+04    0.19782E-03   -0.12121E-02  2608   0.225E-01    0.177E-01
DAV:   9    -0.135201500671E+04    0.10709E-04   -0.37031E-03  2608   0.124E-01    0.103E-01
DAV:  10    -0.135201510427E+04   -0.97564E-04   -0.15687E-03  2248   0.797E-02    0.931E-02
DAV:  11    -0.135201500388E+04    0.10039E-03   -0.10121E-03  2344   0.582E-02    0.326E-02
DAV:  12    -0.135201502557E+04   -0.21685E-04   -0.37338E-04  2536   0.364E-02    0.281E-02
DAV:  13    -0.135201502209E+04    0.34820E-05   -0.90931E-05  2600   0.204E-02    0.163E-02
DAV:  14    -0.135201502212E+04   -0.34110E-07   -0.41769E-05  2448   0.114E-02    0.689E-03
DAV:  15    -0.135201502330E+04   -0.11759E-05   -0.10871E-05  1912   0.712E-03    0.436E-03
DAV:  16    -0.135201502317E+04    0.13039E-06   -0.11094E-06  1016   0.417E-03
   4 F= -.13520150E+04 E0= -.13520150E+04  d E =-.406273E+01
 BRION: g(F)=  0.420E+01 g(S)=  0.000E+00 retain N=  3 mean eig= 2.17
 eig:   5.677  0.418  0.418
 bond charge predicted
       N       E                     dE             d eps       ncg     rms          rms(c)
DAV:   1    -0.135288496933E+04   -0.86995E+00   -0.23134E+02  1360   0.208E+01    0.402E+00
DAV:   2    -0.135397456539E+04   -0.10896E+01   -0.11820E+01  2272   0.747E+00    0.188E+00
DAV:   3    -0.135398118380E+04   -0.66184E-02   -0.78046E-01  2608   0.170E+00    0.152E+00
DAV:   4    -0.135394147482E+04    0.39709E-01   -0.27666E-01  2440   0.104E+00    0.692E-01
DAV:   5    -0.135394086755E+04    0.60728E-03   -0.81483E-02  2472   0.592E-01    0.541E-01
DAV:   6    -0.135393920977E+04    0.16578E-02   -0.61321E-02  2584   0.418E-01    0.223E-01
DAV:   7    -0.135393904427E+04    0.16550E-03   -0.98622E-03  2464   0.210E-01    0.178E-01
DAV:   8    -0.135393893905E+04    0.10522E-03   -0.50992E-03  2304   0.118E-01    0.846E-02
DAV:   9    -0.135393895757E+04   -0.18520E-04   -0.18524E-03  2576   0.731E-02    0.588E-02
DAV:  10    -0.135393894504E+04    0.12527E-04   -0.43603E-04  2544   0.428E-02    0.448E-02
DAV:  11    -0.135393893372E+04    0.11320E-04   -0.33930E-04  2576   0.314E-02    0.196E-02
DAV:  12    -0.135393893616E+04   -0.24384E-05   -0.75137E-05  2456   0.177E-02    0.123E-02
DAV:  13    -0.135393893721E+04   -0.10445E-05   -0.22074E-05  2432   0.948E-03    0.772E-03
DAV:  14    -0.135393893703E+04    0.17673E-06   -0.92680E-06  1728   0.598E-03
   5 F= -.13539389E+04 E0= -.13539389E+04  d E =-.192391E+01
 BRION: g(F)=  0.221E+01 g(S)=  0.000E+00 retain N=  4 mean eig= 1.78
 eig:   5.362  0.760  0.500  0.500
 bond charge predicted
       N       E                     dE             d eps       ncg     rms          rms(c)
DAV:   1    -0.135436840561E+04   -0.42947E+00   -0.25858E+02  1360   0.222E+01    0.339E+00
DAV:   2    -0.135560664826E+04   -0.12382E+01   -0.13058E+01  2256   0.815E+00    0.164E+00
DAV:   3    -0.135564814139E+04   -0.41493E-01   -0.89845E-01  2616   0.171E+00    0.134E+00
DAV:   4    -0.135561610017E+04    0.32041E-01   -0.16334E-01  2552   0.852E-01    0.734E-01
DAV:   5    -0.135560789349E+04    0.82067E-02   -0.74765E-02  2400   0.543E-01    0.380E-01
DAV:   6    -0.135560850351E+04   -0.61002E-03   -0.30042E-02  2560   0.333E-01    0.244E-01
DAV:   7    -0.135560827532E+04    0.22819E-03   -0.96152E-03  2544   0.188E-01    0.139E-01
DAV:   8    -0.135560827462E+04    0.70664E-06   -0.24509E-03  2600   0.999E-02    0.748E-02
DAV:   9    -0.135560826506E+04    0.95542E-05   -0.72455E-04  2608   0.566E-02    0.456E-02
DAV:  10    -0.135560827210E+04   -0.70380E-05   -0.29420E-04  2336   0.341E-02    0.275E-02
DAV:  11    -0.135560827310E+04   -0.10013E-05   -0.17410E-04  2544   0.235E-02    0.161E-02
DAV:  12    -0.135560827170E+04    0.14028E-05   -0.44004E-05  2472   0.142E-02    0.926E-03
DAV:  13    -0.135560827212E+04   -0.42045E-06   -0.19074E-05  2144   0.851E-03    0.583E-03
DAV:  14    -0.135560827194E+04    0.18359E-06   -0.27255E-06  1064   0.526E-03
   6 F= -.13556083E+04 E0= -.13556083E+04  d E =-.166933E+01
 BRION: g(F)=  0.102E+01 g(S)=  0.000E+00 retain N=  5 mean eig= 1.35
 eig:   4.853  0.684  0.684  0.456  0.089
 bond charge predicted
       N       E                     dE             d eps       ncg     rms          rms(c)
DAV:   1    -0.135591927081E+04   -0.31100E+00   -0.15679E+02  1352   0.178E+01    0.299E+00
DAV:   2    -0.135667020782E+04   -0.75094E+00   -0.79273E+00  2288   0.651E+00    0.139E+00
DAV:   3    -0.135669723076E+04   -0.27023E-01   -0.56035E-01  2600   0.136E+00    0.109E+00
DAV:   4    -0.135667768812E+04    0.19543E-01   -0.12873E-01  2480   0.752E-01    0.491E-01
DAV:   5    -0.135667845424E+04   -0.76612E-03   -0.45942E-02  2488   0.439E-01    0.368E-01
DAV:   6    -0.135667773121E+04    0.72302E-03   -0.25899E-02  2592   0.285E-01    0.158E-01
DAV:   7    -0.135667769201E+04    0.39207E-04   -0.44819E-03  2520   0.148E-01    0.112E-01
DAV:   8    -0.135667767054E+04    0.21470E-04   -0.15492E-03  2584   0.736E-02    0.510E-02
DAV:   9    -0.135667767372E+04   -0.31854E-05   -0.65352E-04  2616   0.475E-02    0.346E-02
DAV:  10    -0.135667768139E+04   -0.76651E-05   -0.17886E-04  2336   0.258E-02    0.248E-02
DAV:  11    -0.135667767680E+04    0.45885E-05   -0.88780E-05  2440   0.177E-02    0.128E-02
DAV:  12    -0.135667767676E+04    0.37617E-07   -0.32669E-05  2232   0.116E-02    0.903E-03
DAV:  13    -0.135667767681E+04   -0.47614E-07   -0.11740E-05  1856   0.732E-03    0.526E-03
DAV:  14    -0.135667767661E+04    0.19705E-06   -0.27495E-06  1088   0.514E-03
   7 F= -.13566777E+04 E0= -.13566777E+04  d E =-.106940E+01
 BRION: g(F)=  0.793E+00 g(S)=  0.000E+00 retain N=  6 mean eig= 2.25
 eig:   5.852  3.068  3.068  0.289  0.615  0.615
 bond charge predicted
       N       E                     dE             d eps       ncg     rms          rms(c)
DAV:   1    -0.135702392028E+04   -0.34624E+00   -0.68194E+01  1376   0.117E+01    0.170E+00
DAV:   2    -0.135737071223E+04   -0.34679E+00   -0.36925E+00  2280   0.445E+00    0.837E-01
DAV:   3    -0.135738726596E+04   -0.16554E-01   -0.27946E-01  2608   0.921E-01    0.675E-01
DAV:   4    -0.135737975205E+04    0.75139E-02   -0.37542E-02  2576   0.456E-01    0.387E-01
DAV:   5    -0.135737780369E+04    0.19484E-02   -0.23428E-02  2320   0.298E-01    0.184E-01
DAV:   6    -0.135737817133E+04   -0.36764E-03   -0.92376E-03  2520   0.186E-01    0.149E-01
DAV:   7    -0.135737810021E+04    0.71125E-04   -0.31502E-03  2568   0.108E-01    0.918E-02
DAV:   8    -0.135737802847E+04    0.71731E-04   -0.69588E-04  2600   0.554E-02    0.533E-02
DAV:   9    -0.135737803495E+04   -0.64728E-05   -0.25360E-04  2608   0.317E-02    0.253E-02
DAV:  10    -0.135737803765E+04   -0.26997E-05   -0.71558E-05  2600   0.183E-02    0.142E-02
DAV:  11    -0.135737803667E+04    0.97429E-06   -0.36709E-05  2400   0.121E-02    0.698E-03
DAV:  12    -0.135737803693E+04   -0.25553E-06   -0.10032E-05  1840   0.744E-03    0.498E-03
DAV:  13    -0.135737803661E+04    0.32215E-06   -0.41267E-06  1312   0.546E-03
   8 F= -.13573780E+04 E0= -.13573780E+04  d E =-.700360E+00
 BRION: g(F)=  0.508E+00 g(S)=  0.000E+00 retain N=  7 mean eig= 2.32
 eig:   5.610  4.303  4.303  0.314  0.531  0.531  0.621
 bond charge predicted
       N       E                     dE             d eps       ncg     rms          rms(c)
DAV:   1    -0.135771496793E+04   -0.33693E+00   -0.63371E+01  1384   0.114E+01    0.149E+00
DAV:   2    -0.135804927388E+04   -0.33431E+00   -0.35506E+00  2296   0.452E+00    0.761E-01
DAV:   3    -0.135806872898E+04   -0.19455E-01   -0.27999E-01  2584   0.910E-01    0.627E-01
DAV:   4    -0.135806390084E+04    0.48281E-02   -0.31195E-02  2592   0.418E-01    0.417E-01
DAV:   5    -0.135806096775E+04    0.29331E-02   -0.20348E-02  2304   0.271E-01    0.165E-01
DAV:   6    -0.135806169455E+04   -0.72680E-03   -0.89872E-03  2544   0.181E-01    0.165E-01
DAV:   7    -0.135806147252E+04    0.22202E-03   -0.39902E-03  2576   0.118E-01    0.965E-02
DAV:   8    -0.135806141357E+04    0.58954E-04   -0.13031E-03  2592   0.711E-02    0.479E-02
DAV:   9    -0.135806140962E+04    0.39527E-05   -0.19823E-04  2560   0.316E-02    0.330E-02
DAV:  10    -0.135806141798E+04   -0.83650E-05   -0.13792E-04  2472   0.213E-02    0.172E-02
DAV:  11    -0.135806141599E+04    0.19915E-05   -0.31956E-05  2440   0.142E-02    0.808E-03
DAV:  12    -0.135806141834E+04   -0.23517E-05   -0.26424E-05  2296   0.864E-03    0.946E-03
DAV:  13    -0.135806141665E+04    0.16890E-05   -0.52738E-06  1320   0.623E-03    0.438E-03
DAV:  14    -0.135806141729E+04   -0.63644E-06   -0.11569E-05  1648   0.657E-03    0.362E-03
DAV:  15    -0.135806141707E+04    0.22366E-06   -0.94289E-07   968   0.423E-03
   9 F= -.13580614E+04 E0= -.13580614E+04  d E =-.683380E+00
 BRION: g(F)=  0.368E+00 g(S)=  0.000E+00 retain N=  8 mean eig= 2.73
 eig:   6.186  5.729  5.729  1.301  1.301  0.173  0.721  0.721
 bond charge predicted
       N       E                     dE             d eps       ncg     rms          rms(c)
DAV:   1    -0.135840093244E+04   -0.33952E+00   -0.43667E+01  1384   0.949E+00    0.119E+00
DAV:   2    -0.135863405480E+04   -0.23312E+00   -0.24896E+00  2288   0.378E+00    0.606E-01
DAV:   3    -0.135864818462E+04   -0.14130E-01   -0.20099E-01  2600   0.771E-01    0.500E-01
DAV:   4    -0.135864503908E+04    0.31455E-02   -0.22020E-02  2616   0.353E-01    0.335E-01
DAV:   5    -0.135864274065E+04    0.22984E-02   -0.11576E-02  2304   0.216E-01    0.131E-01
DAV:   6    -0.135864316307E+04   -0.42243E-03   -0.64142E-03  2536   0.152E-01    0.120E-01
DAV:   7    -0.135864309097E+04    0.72100E-04   -0.25300E-03  2544   0.951E-02    0.771E-02
DAV:   8    -0.135864307415E+04    0.16818E-04   -0.97260E-04  2608   0.602E-02    0.395E-02
DAV:   9    -0.135864306998E+04    0.41693E-05   -0.15291E-04  2544   0.274E-02    0.293E-02
DAV:  10    -0.135864307257E+04   -0.25837E-05   -0.91015E-05  2488   0.177E-02    0.153E-02
DAV:  11    -0.135864307253E+04    0.40571E-07   -0.27736E-05  2440   0.123E-02    0.757E-03
DAV:  12    -0.135864307349E+04   -0.96780E-06   -0.13438E-05  1976   0.778E-03    0.767E-03
DAV:  13    -0.135864307258E+04    0.91468E-06   -0.31634E-06  1136   0.553E-03
  10 F= -.13586431E+04 E0= -.13586431E+04  d E =-.581656E+00
 BRION: g(F)=  0.310E+00 g(S)=  0.000E+00 retain N=  9 mean eig= 3.08
 eig:   6.063  6.977  6.977  2.606  2.606  0.125  0.868  0.868  0.667
 bond charge predicted
       N       E                     dE             d eps       ncg     rms          rms(c)
DAV:   1    -0.135897165164E+04   -0.32858E+00   -0.49119E+01  1392   0.100E+01    0.123E+00
DAV:   2    -0.135923665546E+04   -0.26500E+00   -0.28279E+00  2296   0.408E+00    0.615E-01
DAV:   3    -0.135925290945E+04   -0.16254E-01   -0.22871E-01  2592   0.795E-01    0.500E-01
DAV:   4    -0.135924942905E+04    0.34804E-02   -0.22421E-02  2600   0.363E-01    0.343E-01
DAV:   5    -0.135924661551E+04    0.28135E-02   -0.11941E-02  2312   0.215E-01    0.125E-01
DAV:   6    -0.135924705335E+04   -0.43784E-03   -0.66043E-03  2512   0.148E-01    0.110E-01
DAV:   7    -0.135924700959E+04    0.43762E-04   -0.24586E-03  2536   0.926E-02    0.715E-02
DAV:   8    -0.135924699813E+04    0.11460E-04   -0.85945E-04  2608   0.575E-02    0.393E-02
DAV:   9    -0.135924699224E+04    0.58894E-05   -0.15682E-04  2440   0.276E-02    0.292E-02
DAV:  10    -0.135924699520E+04   -0.29600E-05   -0.84914E-05  2488   0.173E-02    0.143E-02
DAV:  11    -0.135924699586E+04   -0.66419E-06   -0.28147E-05  2376   0.118E-02    0.702E-03
DAV:  12    -0.135924699644E+04   -0.57633E-06   -0.10043E-05  1872   0.761E-03    0.647E-03
DAV:  13    -0.135924699597E+04    0.47106E-06   -0.38445E-06  1224   0.524E-03
  11 F= -.13592470E+04 E0= -.13592470E+04  d E =-.603923E+00
 BRION: g(F)=  0.262E+00 g(S)=  0.000E+00 retain N=  8 mean eig= 2.65
 eig:   5.789  5.789  2.634  2.634  1.322  1.322  0.867  0.867
 bond charge predicted
       N       E                     dE             d eps       ncg     rms          rms(c)
DAV:   1    -0.135953557161E+04   -0.28858E+00   -0.64768E+01  1384   0.115E+01    0.143E+00
DAV:   2    -0.135989239911E+04   -0.35683E+00   -0.38171E+00  2304   0.473E+00    0.739E-01
DAV:   3    -0.135991461324E+04   -0.22214E-01   -0.31448E-01  2584   0.933E-01    0.607E-01
DAV:   4    -0.135990986574E+04    0.47475E-02   -0.33332E-02  2608   0.434E-01    0.411E-01
DAV:   5    -0.135990625919E+04    0.36065E-02   -0.15084E-02  2416   0.246E-01    0.163E-01
DAV:   6    -0.135990667996E+04   -0.42077E-03   -0.85745E-03  2456   0.170E-01    0.120E-01
DAV:   7    -0.135990664233E+04    0.37624E-04   -0.36405E-03  2472   0.114E-01    0.842E-02
DAV:   8    -0.135990665312E+04   -0.10790E-04   -0.14867E-03  2584   0.722E-02    0.528E-02
DAV:   9    -0.135990663771E+04    0.15418E-04   -0.28997E-04  2480   0.365E-02    0.380E-02
DAV:  10    -0.135990663860E+04   -0.89665E-06   -0.15707E-04  2584   0.227E-02    0.215E-02
DAV:  11    -0.135990664007E+04   -0.14714E-05   -0.52994E-05  2536   0.154E-02    0.126E-02
DAV:  12    -0.135990663937E+04    0.70280E-06   -0.24469E-05  2296   0.111E-02    0.902E-03
DAV:  13    -0.135990663924E+04    0.12798E-06   -0.16968E-05  2056   0.743E-03    0.478E-03
DAV:  14    -0.135990663902E+04    0.22525E-06   -0.21424E-06  1032   0.482E-03
  12 F= -.13599066E+04 E0= -.13599066E+04  d E =-.659643E+00
 BRION: g(F)=  0.219E+00 g(S)=  0.000E+00 retain N=  6 mean eig= 3.88
 eig:   7.775  7.775  2.665  2.665  1.202  1.202
 bond charge predicted
       N       E                     dE             d eps       ncg     rms          rms(c)
DAV:   1    -0.136014300824E+04   -0.23637E+00   -0.42902E+01  1384   0.935E+00    0.111E+00
DAV:   2    -0.136037611665E+04   -0.23311E+00   -0.24824E+00  2312   0.383E+00    0.580E-01
DAV:   3    -0.136038957713E+04   -0.13460E-01   -0.19716E-01  2576   0.733E-01    0.470E-01
DAV:   4    -0.136038634500E+04    0.32321E-02   -0.20349E-02  2600   0.337E-01    0.327E-01
DAV:   5    -0.136038344755E+04    0.28975E-02   -0.90880E-03  2376   0.197E-01    0.136E-01
DAV:   6    -0.136038353115E+04   -0.83600E-04   -0.67070E-03  2384   0.152E-01    0.912E-02
DAV:   7    -0.136038358458E+04   -0.53427E-04   -0.29192E-03  2376   0.993E-02    0.756E-02
DAV:   8    -0.136038356903E+04    0.15548E-04   -0.87671E-04  2616   0.576E-02    0.432E-02
DAV:   9    -0.136038355625E+04    0.12781E-04   -0.29102E-04  2592   0.334E-02    0.272E-02
DAV:  10    -0.136038356209E+04   -0.58388E-05   -0.98267E-05  2568   0.199E-02    0.209E-02
DAV:  11    -0.136038356023E+04    0.18547E-05   -0.53320E-05  2400   0.142E-02    0.114E-02
DAV:  12    -0.136038355986E+04    0.36904E-06   -0.23290E-05  2232   0.108E-02    0.930E-03
DAV:  13    -0.136038355931E+04    0.55569E-06   -0.13152E-05  1760   0.692E-03    0.482E-03
DAV:  14    -0.136038355918E+04    0.12512E-06   -0.41454E-06  1288   0.523E-03
  13 F= -.13603836E+04 E0= -.13603836E+04  d E =-.476920E+00
 BRION: g(F)=  0.194E+00 g(S)=  0.000E+00 retain N=  3 mean eig= 3.88
 eig:   5.037  5.037  1.553
 bond charge predicted
       N       E                     dE             d eps       ncg     rms          rms(c)
DAV:   1    -0.136059223872E+04   -0.20868E+00   -0.37717E+01  1384   0.879E+00    0.105E+00
DAV:   2    -0.136079861757E+04   -0.20638E+00   -0.22053E+00  2304   0.359E+00    0.547E-01
DAV:   3    -0.136081123568E+04   -0.12618E-01   -0.18083E-01  2576   0.697E-01    0.446E-01
DAV:   4    -0.136080862310E+04    0.26126E-02   -0.18461E-02  2608   0.325E-01    0.309E-01
DAV:   5    -0.136080628466E+04    0.23384E-02   -0.79737E-03  2416   0.183E-01    0.131E-01
DAV:   6    -0.136080632408E+04   -0.39422E-04   -0.53694E-03  2400   0.136E-01    0.856E-02
DAV:   7    -0.136080636427E+04   -0.40187E-04   -0.24225E-03  2472   0.919E-02    0.692E-02
DAV:   8    -0.136080635504E+04    0.92277E-05   -0.81904E-04  2584   0.554E-02    0.426E-02
DAV:   9    -0.136080634344E+04    0.11599E-04   -0.24425E-04  2536   0.307E-02    0.273E-02
DAV:  10    -0.136080634686E+04   -0.34246E-05   -0.88400E-05  2568   0.183E-02    0.186E-02
DAV:  11    -0.136080634697E+04   -0.10067E-06   -0.38180E-05  2392   0.128E-02    0.112E-02
DAV:  12    -0.136080634596E+04    0.10085E-05   -0.20142E-05  2184   0.992E-03    0.821E-03
DAV:  13    -0.136080634571E+04    0.24270E-06   -0.12275E-05  1776   0.670E-03    0.441E-03
DAV:  14    -0.136080634550E+04    0.21544E-06   -0.18068E-06   984   0.466E-03
  14 F= -.13608063E+04 E0= -.13608063E+04  d E =-.422786E+00
 BRION: g(F)=  0.171E+00 g(S)=  0.000E+00 retain N=  3 mean eig= 4.29
 eig:   5.661  5.661  1.561
 bond charge predicted
       N       E                     dE             d eps       ncg     rms          rms(c)
DAV:   1    -0.136097416450E+04   -0.16782E+00   -0.25817E+01  1384   0.728E+00    0.872E-01
DAV:   2    -0.136111372232E+04   -0.13956E+00   -0.14843E+00  2304   0.295E+00    0.462E-01
DAV:   3    -0.136112196835E+04   -0.82460E-02   -0.11995E-01  2560   0.577E-01    0.376E-01
DAV:   4    -0.136112013581E+04    0.18325E-02   -0.12653E-02  2576   0.265E-01    0.263E-01
DAV:   5    -0.136111848830E+04    0.16475E-02   -0.55798E-03  2424   0.153E-01    0.114E-01
DAV:   6    -0.136111849048E+04   -0.21801E-05   -0.39512E-03  2360   0.120E-01    0.716E-02
DAV:   7    -0.136111853195E+04   -0.41469E-04   -0.18341E-03  2424   0.798E-02    0.624E-02
DAV:   8    -0.136111851617E+04    0.15785E-04   -0.56779E-04  2608   0.463E-02    0.381E-02
DAV:   9    -0.136111850592E+04    0.10247E-04   -0.20162E-04  2544   0.271E-02    0.222E-02
DAV:  10    -0.136111850917E+04   -0.32473E-05   -0.63462E-05  2576   0.162E-02    0.164E-02
DAV:  11    -0.136111850845E+04    0.71739E-06   -0.26547E-05  2328   0.106E-02    0.918E-03
DAV:  12    -0.136111850786E+04    0.58752E-06   -0.15673E-05  1960   0.882E-03    0.676E-03
DAV:  13    -0.136111850772E+04    0.13922E-06   -0.81214E-06  1712   0.594E-03
  15 F= -.13611185E+04 E0= -.13611185E+04  d E =-.312162E+00
 BRION: g(F)=  0.149E+00 g(S)=  0.000E+00 retain N=  3 mean eig= 3.73
 eig:   4.936  4.936  1.330
 bond charge predicted
       N       E                     dE             d eps       ncg     rms          rms(c)
DAV:   1    -0.136126159711E+04   -0.14309E+00   -0.28279E+01  1384   0.760E+00    0.888E-01
DAV:   2    -0.136141286306E+04   -0.15127E+00   -0.16028E+00  2288   0.307E+00    0.459E-01
DAV:   3    -0.136142177148E+04   -0.89084E-02   -0.12820E-01  2568   0.591E-01    0.369E-01
DAV:   4    -0.136141986052E+04    0.19110E-02   -0.12513E-02  2576   0.268E-01    0.264E-01
DAV:   5    -0.136141795555E+04    0.19050E-02   -0.56980E-03  2344   0.158E-01    0.115E-01
DAV:   6    -0.136141792328E+04    0.32274E-04   -0.44866E-03  2304   0.127E-01    0.727E-02
DAV:   7    -0.136141798415E+04   -0.60874E-04   -0.21014E-03  2408   0.841E-02    0.647E-02
DAV:   8    -0.136141797072E+04    0.13431E-04   -0.58348E-04  2608   0.476E-02    0.410E-02
DAV:   9    -0.136141795219E+04    0.18534E-04   -0.24209E-04  2520   0.297E-02    0.220E-02
DAV:  10    -0.136141795822E+04   -0.60311E-05   -0.89449E-05  2528   0.182E-02    0.173E-02
DAV:  11    -0.136141795749E+04    0.73295E-06   -0.36393E-05  2296   0.123E-02    0.103E-02
DAV:  12    -0.136141795680E+04    0.68643E-06   -0.19966E-05  2136   0.989E-03    0.880E-03
DAV:  13    -0.136141795632E+04    0.47842E-06   -0.12135E-05  1816   0.664E-03    0.515E-03
DAV:  14    -0.136141795599E+04    0.33104E-06   -0.18543E-06   968   0.458E-03
  16 F= -.13614180E+04 E0= -.13614180E+04  d E =-.299448E+00
 BRION: g(F)=  0.130E+00 g(S)=  0.000E+00 retain N=  3 mean eig= 4.16
 eig:   5.550  5.550  1.366
 bond charge predicted
       N       E                     dE             d eps       ncg     rms          rms(c)
DAV:   1    -0.136154534685E+04   -0.12739E+00   -0.22802E+01  1376   0.681E+00    0.790E-01
DAV:   2    -0.136166664084E+04   -0.12129E+00   -0.12821E+00  2296   0.273E+00    0.408E-01
DAV:   3    -0.136167396581E+04   -0.73250E-02   -0.10352E-01  2576   0.527E-01    0.334E-01
DAV:   4    -0.136167263929E+04    0.13265E-02   -0.96008E-03  2584   0.237E-01    0.246E-01
DAV:   5    -0.136167104437E+04    0.15949E-02   -0.45535E-03  2344   0.139E-01    0.113E-01
DAV:   6    -0.136167095182E+04    0.92555E-04   -0.38896E-03  2264   0.119E-01    0.687E-02
DAV:   7    -0.136167101697E+04   -0.65156E-04   -0.20617E-03  2472   0.816E-02    0.653E-02
DAV:   8    -0.136167099704E+04    0.19933E-04   -0.51412E-04  2584   0.467E-02    0.439E-02
DAV:   9    -0.136167097460E+04    0.22443E-04   -0.25284E-04  2496   0.289E-02    0.212E-02
DAV:  10    -0.136167098014E+04   -0.55447E-05   -0.78371E-05  2480   0.177E-02    0.156E-02
DAV:  11    -0.136167098098E+04   -0.83941E-06   -0.22960E-05  2104   0.102E-02    0.112E-02
DAV:  12    -0.136167097956E+04    0.14208E-05   -0.23757E-05  1992   0.102E-02    0.878E-03
DAV:  13    -0.136167097937E+04    0.19002E-06   -0.12447E-05  1824   0.704E-03    0.664E-03
DAV:  14    -0.136167097873E+04    0.64394E-06   -0.21153E-06  1016   0.461E-03
  17 F= -.13616710E+04 E0= -.13616710E+04  d E =-.253023E+00
 BRION: g(F)=  0.119E+00 g(S)=  0.000E+00 retain N=  3 mean eig= 3.81
 eig:   5.023  5.023  1.379
 bond charge predicted
       N       E                     dE             d eps       ncg     rms          rms(c)
DAV:   1    -0.136178109112E+04   -0.11011E+00   -0.27286E+01  1376   0.747E+00    0.860E-01
DAV:   2    -0.136192597454E+04   -0.14488E+00   -0.15289E+00  2296   0.298E+00    0.450E-01
DAV:   3    -0.136193449445E+04   -0.85199E-02   -0.12215E-01  2576   0.575E-01    0.362E-01
DAV:   4    -0.136193278023E+04    0.17142E-02   -0.11664E-02  2584   0.259E-01    0.265E-01
DAV:   5    -0.136193086983E+04    0.19104E-02   -0.51607E-03  2352   0.153E-01    0.124E-01
DAV:   6    -0.136193069825E+04    0.17159E-03   -0.47016E-03  2224   0.135E-01    0.710E-02
DAV:   7    -0.136193081625E+04   -0.11800E-03   -0.27404E-03  2424   0.924E-02    0.739E-02
DAV:   8    -0.136193079633E+04    0.19923E-04   -0.54593E-04  2600   0.493E-02    0.538E-02
DAV:   9    -0.136193075590E+04    0.40427E-04   -0.34902E-04  2488   0.344E-02    0.238E-02
DAV:  10    -0.136193076618E+04   -0.10283E-04   -0.13840E-04  2456   0.226E-02    0.179E-02
DAV:  11    -0.136193076629E+04   -0.11027E-06   -0.31723E-05  2184   0.119E-02    0.119E-02
DAV:  12    -0.136193076502E+04    0.12681E-05   -0.38581E-05  2072   0.124E-02    0.105E-02
DAV:  13    -0.136193076458E+04    0.44567E-06   -0.18547E-05  2088   0.865E-03    0.865E-03
DAV:  14    -0.136193076362E+04    0.95757E-06   -0.43903E-06  1272   0.534E-03
  18 F= -.13619308E+04 E0= -.13619308E+04  d E =-.259785E+00
 BRION: g(F)=  0.109E+00 g(S)=  0.000E+00 retain N=  3 mean eig= 4.25
 eig:   5.586  5.586  1.581
 bond charge predicted
       N       E                     dE             d eps       ncg     rms          rms(c)
DAV:   1    -0.136203494716E+04   -0.10418E+00   -0.24324E+01  1384   0.702E+00    0.805E-01
DAV:   2    -0.136216318199E+04   -0.12823E+00   -0.13511E+00  2296   0.279E+00    0.415E-01
DAV:   3    -0.136217086531E+04   -0.76833E-02   -0.10850E-01  2584   0.531E-01    0.336E-01
DAV:   4    -0.136216944687E+04    0.14184E-02   -0.98187E-03  2576   0.240E-01    0.248E-01
DAV:   5    -0.136216775467E+04    0.16922E-02   -0.47545E-03  2352   0.142E-01    0.114E-01
DAV:   6    -0.136216766023E+04    0.94442E-04   -0.41406E-03  2248   0.122E-01    0.706E-02
DAV:   7    -0.136216772874E+04   -0.68510E-04   -0.21912E-03  2432   0.840E-02    0.664E-02
DAV:   8    -0.136216771131E+04    0.17424E-04   -0.54476E-04  2576   0.474E-02    0.449E-02
DAV:   9    -0.136216768553E+04    0.25782E-04   -0.26137E-04  2464   0.299E-02    0.217E-02
DAV:  10    -0.136216769247E+04   -0.69393E-05   -0.97368E-05  2464   0.189E-02    0.162E-02
DAV:  11    -0.136216769293E+04   -0.45497E-06   -0.26341E-05  2128   0.109E-02    0.113E-02
DAV:  12    -0.136216769175E+04    0.11799E-05   -0.25829E-05  1984   0.105E-02    0.967E-03
DAV:  13    -0.136216769119E+04    0.55805E-06   -0.14599E-05  1960   0.748E-03    0.664E-03
DAV:  14    -0.136216769064E+04    0.54510E-06   -0.22048E-06  1016   0.459E-03
  19 F= -.13621677E+04 E0= -.13621677E+04  d E =-.236927E+00
 BRION: g(F)=  0.102E+00 g(S)=  0.000E+00 retain N=  3 mean eig= 4.49
 eig:   5.961  5.961  1.543
 bond charge predicted
       N       E                     dE             d eps       ncg     rms          rms(c)
DAV:   1    -0.136226807981E+04   -0.10039E+00   -0.19590E+01  1376   0.629E+00    0.710E-01
DAV:   2    -0.136237183179E+04   -0.10375E+00   -0.10924E+00  2288   0.250E+00    0.372E-01
DAV:   3    -0.136237813610E+04   -0.63043E-02   -0.88512E-02  2576   0.483E-01    0.302E-01
DAV:   4    -0.136237706218E+04    0.10739E-02   -0.80626E-03  2584   0.215E-01    0.224E-01
DAV:   5    -0.136237573494E+04    0.13272E-02   -0.34857E-03  2384   0.124E-01    0.111E-01
DAV:   6    -0.136237554762E+04    0.18732E-03   -0.33532E-03  2192   0.113E-01    0.590E-02
DAV:   7    -0.136237564380E+04   -0.96182E-04   -0.20471E-03  2432   0.792E-02    0.636E-02
DAV:   8    -0.136237563288E+04    0.10923E-04   -0.40078E-04  2552   0.428E-02    0.492E-02
DAV:   9    -0.136237559668E+04    0.36198E-04   -0.24865E-04  2368   0.291E-02    0.222E-02
DAV:  10    -0.136237560429E+04   -0.76094E-05   -0.12057E-04  2344   0.202E-02    0.145E-02
DAV:  11    -0.136237560558E+04   -0.12957E-05   -0.23267E-05  1952   0.104E-02    0.105E-02
DAV:  12    -0.136237560407E+04    0.15106E-05   -0.27187E-05  2000   0.109E-02    0.893E-03
DAV:  13    -0.136237560380E+04    0.27605E-06   -0.14032E-05  1976   0.772E-03    0.778E-03
DAV:  14    -0.136237560294E+04    0.86179E-06   -0.20602E-06  1016   0.477E-03
  20 F= -.13623756E+04 E0= -.13623756E+04  d E =-.207912E+00
 BRION: g(F)=  0.950E-01 g(S)=  0.000E+00 retain N=  3 mean eig= 4.49
 eig:   6.013  6.013  1.454
