 running on  160 total cores
 distrk:  each k-point on  160 cores,    1 groups
 distr:  one band on   20 cores,    8 groups
 using from now: INCAR     
 vasp.5.4.4.18Apr17-6-g9f103f2a35 (build May 01 2020 14:22:42) gamma-only       
  
 POSCAR found type information on POSCAR  O  La Zr Li Al
 POSCAR found :  5 types and     188 ions
 scaLAPACK will be used
 LDA part: xc-table for Pade appr. of Perdew
 POSCAR, INCAR and KPOINTS ok, starting setup
 FFT: planning ...
 WAVECAR not read
 WARNING: random wavefunctions but no delay for mixing, default for NELMDL
 entering main loop
       N       E                     dE             d eps       ncg     rms          rms(c)
DAV:   1     0.252150136642E+05    0.25215E+05   -0.42099E+05  1616   0.253E+03
DAV:   2     0.940390344925E+04   -0.15811E+05   -0.14594E+05  1424   0.706E+02
DAV:   3     0.266442947764E+04   -0.67395E+04   -0.61463E+04  1496   0.357E+02
DAV:   4    -0.370168675693E+03   -0.30346E+04   -0.28361E+04  2040   0.224E+02
DAV:   5    -0.141142418708E+04   -0.10413E+04   -0.99856E+03  2528   0.139E+02    0.116E+02
DAV:   6    -0.130350714500E+04    0.10792E+03   -0.14748E+03  2448   0.663E+01    0.503E+01
DAV:   7    -0.132606542584E+04   -0.22558E+02   -0.39963E+02  2544   0.341E+01    0.257E+01
DAV:   8    -0.133273566230E+04   -0.66702E+01   -0.25724E+02  2520   0.270E+01    0.251E+01
DAV:   9    -0.132730877691E+04    0.54269E+01   -0.48744E+01  2536   0.146E+01    0.809E+00
DAV:  10    -0.132810770776E+04   -0.79893E+00   -0.16129E+01  2624   0.791E+00    0.722E+00
DAV:  11    -0.132841651852E+04   -0.30881E+00   -0.59440E+00  2624   0.432E+00    0.430E+00
DAV:  12    -0.132826300244E+04    0.15352E+00   -0.22290E+00  2560   0.343E+00    0.285E+00
DAV:  13    -0.132831129844E+04   -0.48296E-01   -0.87811E-01  2584   0.174E+00    0.184E+00
DAV:  14    -0.132830258649E+04    0.87119E-02   -0.23205E-01  2624   0.101E+00    0.111E+00
DAV:  15    -0.132830841442E+04   -0.58279E-02   -0.77681E-02  2568   0.537E-01    0.834E-01
DAV:  16    -0.132830860756E+04   -0.19314E-03   -0.24933E-02  2624   0.290E-01    0.498E-01
DAV:  17    -0.132830780315E+04    0.80440E-03   -0.20377E-02  2416   0.272E-01    0.275E-01
DAV:  18    -0.132830813429E+04   -0.33114E-03   -0.45006E-03  2368   0.141E-01    0.124E-01
DAV:  19    -0.132830813341E+04    0.88285E-06   -0.16928E-03  2528   0.844E-02    0.819E-02
DAV:  20    -0.132830817812E+04   -0.44714E-04   -0.48190E-04  2560   0.384E-02    0.295E-02
DAV:  21    -0.132830819200E+04   -0.13882E-04   -0.15655E-04  2592   0.227E-02    0.314E-02
DAV:  22    -0.132830820808E+04   -0.16080E-04   -0.49468E-05  2224   0.136E-02    0.118E-02
DAV:  23    -0.132830820270E+04    0.53804E-05   -0.33851E-05  2144   0.111E-02    0.127E-02
DAV:  24    -0.132830820878E+04   -0.60741E-05   -0.13414E-05  1696   0.868E-03    0.252E-03
DAV:  25    -0.132830820713E+04    0.16460E-05   -0.37665E-06   992   0.492E-03    0.633E-03
DAV:  26    -0.132830820925E+04   -0.21188E-05   -0.17421E-06   984   0.457E-03    0.243E-03
DAV:  27    -0.132830821056E+04   -0.13070E-05   -0.10361E-06   904   0.310E-03    0.154E-03
DAV:  28    -0.132830820956E+04    0.99713E-06   -0.59839E-07   896   0.394E-03
   1 F= -.13283082E+04 E0= -.13283082E+04  d E =-.132831E+04
 BRION: g(F)=  0.590E+02 g(S)=  0.000E+00
 bond charge predicted
       N       E                     dE             d eps       ncg     rms          rms(c)
DAV:   1    -0.128429080962E+04    0.44017E+02   -0.79281E+03  1704   0.132E+02    0.327E+01
DAV:   2    -0.134678689534E+04   -0.62496E+02   -0.72718E+02  2552   0.599E+01    0.153E+01
DAV:   3    -0.134461487259E+04    0.21720E+01   -0.44351E+01  2624   0.170E+01    0.101E+01
DAV:   4    -0.134245330328E+04    0.21616E+01   -0.16739E+01  2360   0.859E+00    0.472E+00
DAV:   5    -0.134237965539E+04    0.73648E-01   -0.49219E+00  2528   0.467E+00    0.354E+00
DAV:   6    -0.134227487096E+04    0.10478E+00   -0.31312E+00  2576   0.304E+00    0.188E+00
DAV:   7    -0.134225044092E+04    0.24430E-01   -0.39562E-01  2536   0.169E+00    0.116E+00
DAV:   8    -0.134225037484E+04    0.66082E-04   -0.45321E-01  2520   0.112E+00    0.748E-01
DAV:   9    -0.134225024543E+04    0.12941E-03   -0.67331E-02  2528   0.565E-01    0.550E-01
DAV:  10    -0.134224744467E+04    0.28008E-02   -0.31727E-02  2560   0.321E-01    0.227E-01
DAV:  11    -0.134224851764E+04   -0.10730E-02   -0.20226E-02  2616   0.236E-01    0.188E-01
DAV:  12    -0.134224822731E+04    0.29033E-03   -0.34793E-03  2544   0.132E-01    0.922E-02
DAV:  13    -0.134224825653E+04   -0.29225E-04   -0.19849E-03  2600   0.765E-02    0.234E-02
DAV:  14    -0.134224828044E+04   -0.23910E-04   -0.22694E-04  2624   0.339E-02    0.132E-02
DAV:  15    -0.134224828575E+04   -0.53065E-05   -0.57550E-05  2536   0.148E-02    0.622E-03
DAV:  16    -0.134224828767E+04   -0.19225E-05   -0.16764E-05  1784   0.894E-03    0.408E-03
DAV:  17    -0.134224828846E+04   -0.78815E-06   -0.59762E-06  1416   0.638E-03
   2 F= -.13422483E+04 E0= -.13422483E+04  d E =-.139401E+02
 BRION: g(F)=  0.124E+03 g(S)=  0.000E+00 retain N=  1 mean eig= 0.37
 eig:   0.374
 bond charge predicted
       N       E                     dE             d eps       ncg     rms          rms(c)
DAV:   1    -0.132484809246E+04    0.17400E+02   -0.24923E+03  1344   0.661E+01    0.220E+01
DAV:   2    -0.135599673925E+04   -0.31149E+02   -0.38851E+02  2536   0.333E+01    0.201E+01
DAV:   3    -0.135314813282E+04    0.28486E+01   -0.37879E+01  2544   0.126E+01    0.152E+01
DAV:   4    -0.135024943436E+04    0.28987E+01   -0.27874E+01  2208   0.581E+00    0.686E+00
DAV:   5    -0.135119342351E+04   -0.94399E+00   -0.10052E+01  2456   0.413E+00    0.778E+00
DAV:   6    -0.135015426122E+04    0.10392E+01   -0.12957E+01  2472   0.353E+00    0.212E+00
DAV:   7    -0.135018759601E+04   -0.33335E-01   -0.13491E+00  2448   0.271E+00    0.186E+00
DAV:   8    -0.135014337435E+04    0.44222E-01   -0.71932E-01  2376   0.130E+00    0.524E-01
DAV:   9    -0.135014874754E+04   -0.53732E-02   -0.93961E-02  2392   0.670E-01    0.352E-01
DAV:  10    -0.135015213400E+04   -0.33865E-02   -0.44392E-02  2440   0.330E-01    0.401E-01
DAV:  11    -0.135015048808E+04    0.16459E-02   -0.76666E-03  2616   0.205E-01    0.301E-01
DAV:  12    -0.135014916523E+04    0.13229E-02   -0.13102E-02  2368   0.167E-01    0.621E-02
DAV:  13    -0.135014942745E+04   -0.26221E-03   -0.28788E-03  2304   0.986E-02    0.556E-02
DAV:  14    -0.135014950789E+04   -0.80444E-04   -0.60293E-04  2560   0.372E-02    0.759E-02
DAV:  15    -0.135014940111E+04    0.10679E-03   -0.46296E-04  2552   0.370E-02    0.263E-02
DAV:  16    -0.135014940894E+04   -0.78301E-05   -0.16708E-04  2472   0.228E-02    0.614E-03
DAV:  17    -0.135014941057E+04   -0.16334E-05   -0.19524E-05  2416   0.942E-03    0.466E-03
DAV:  18    -0.135014941046E+04    0.11134E-06   -0.27623E-06  1160   0.522E-03
   3 F= -.13501494E+04 E0= -.13501494E+04  d E =-.790112E+01
 BRION: g(F)=  0.301E+02 g(S)=  0.000E+00 retain N=  2 mean eig= 1.31
 eig:   0.220  2.401
 bond charge predicted
       N       E                     dE             d eps       ncg     rms          rms(c)
DAV:   1    -0.134814020460E+04    0.20092E+01   -0.74361E+02  1368   0.307E+01    0.910E+00
DAV:   2    -0.135426894175E+04   -0.61287E+01   -0.73369E+01  2488   0.164E+01    0.564E+00
DAV:   3    -0.135389400045E+04    0.37494E+00   -0.50819E+00  2352   0.530E+00    0.458E+00
DAV:   4    -0.135359820533E+04    0.29580E+00   -0.41567E+00  2152   0.288E+00    0.199E+00
DAV:   5    -0.135363781106E+04   -0.39606E-01   -0.87694E-01  2336   0.173E+00    0.248E+00
DAV:   6    -0.135352848841E+04    0.10932E+00   -0.65181E-01  2400   0.143E+00    0.811E-01
DAV:   7    -0.135353820641E+04   -0.97180E-02   -0.32998E-01  2320   0.912E-01    0.725E-01
DAV:   8    -0.135353945261E+04   -0.12462E-02   -0.55246E-02  2528   0.403E-01    0.680E-01
DAV:   9    -0.135353210075E+04    0.73519E-02   -0.21122E-02  2424   0.257E-01    0.318E-01
DAV:  10    -0.135353208935E+04    0.11398E-04   -0.28739E-02  2328   0.239E-01    0.158E-01
DAV:  11    -0.135353176183E+04    0.32752E-03   -0.44367E-03  2496   0.128E-01    0.673E-02
DAV:  12    -0.135353182911E+04   -0.67274E-04   -0.80180E-04  2248   0.576E-02    0.357E-02
DAV:  13    -0.135353183293E+04   -0.38212E-05   -0.21113E-04  2392   0.230E-02    0.214E-02
DAV:  14    -0.135353183442E+04   -0.14880E-05   -0.55554E-05  2384   0.166E-02    0.145E-02
DAV:  15    -0.135353183433E+04    0.85187E-07   -0.40342E-05  2232   0.102E-02    0.576E-03
DAV:  16    -0.135353183439E+04   -0.57000E-07   -0.51787E-06  1384   0.627E-03
   4 F= -.13535318E+04 E0= -.13535318E+04  d E =-.338242E+01
 BRION: g(F)=  0.687E+01 g(S)=  0.000E+00 retain N=  2 mean eig= 0.30
 eig:   0.303  0.303
 bond charge predicted
       N       E                     dE             d eps       ncg     rms          rms(c)
DAV:   1    -0.135531339718E+04   -0.17816E+01   -0.24936E+02  1360   0.224E+01    0.399E+00
DAV:   2    -0.135659262155E+04   -0.12792E+01   -0.13954E+01  2272   0.825E+00    0.199E+00
DAV:   3    -0.135662892507E+04   -0.36304E-01   -0.10754E+00  2608   0.199E+00    0.168E+00
DAV:   4    -0.135659142253E+04    0.37503E-01   -0.24555E-01  2592   0.101E+00    0.859E-01
DAV:   5    -0.135658558558E+04    0.58369E-02   -0.87709E-02  2408   0.618E-01    0.508E-01
DAV:   6    -0.135658524360E+04    0.34198E-03   -0.50759E-02  2608   0.434E-01    0.323E-01
DAV:   7    -0.135658481258E+04    0.43102E-03   -0.20448E-02  2408   0.261E-01    0.212E-01
DAV:   8    -0.135658478793E+04    0.24655E-04   -0.54990E-03  2536   0.139E-01    0.120E-01
DAV:   9    -0.135658466013E+04    0.12780E-03   -0.15394E-03  2584   0.783E-02    0.687E-02
DAV:  10    -0.135658477773E+04   -0.11760E-03   -0.15253E-03  2376   0.627E-02    0.794E-02
DAV:  11    -0.135658468358E+04    0.94153E-04   -0.54623E-04  2528   0.471E-02    0.275E-02
DAV:  12    -0.135658469532E+04   -0.11743E-04   -0.22199E-04  2456   0.274E-02    0.193E-02
DAV:  13    -0.135658469436E+04    0.95625E-06   -0.48446E-05  2472   0.143E-02    0.853E-03
DAV:  14    -0.135658469486E+04   -0.49768E-06   -0.12644E-05  2008   0.725E-03    0.471E-03
DAV:  15    -0.135658469505E+04   -0.18453E-06   -0.18057E-06  1032   0.449E-03
   5 F= -.13565847E+04 E0= -.13565847E+04  d E =-.305286E+01
 BRION: g(F)=  0.312E+01 g(S)=  0.000E+00 retain N=  3 mean eig= 0.38
 eig:   0.220  0.220  0.706
 bond charge predicted
       N       E                     dE             d eps       ncg     rms          rms(c)
DAV:   1    -0.135732595799E+04   -0.74126E+00   -0.19717E+02  1376   0.189E+01    0.302E+00
DAV:   2    -0.135827859028E+04   -0.95263E+00   -0.10127E+01  2288   0.715E+00    0.149E+00
DAV:   3    -0.135828876480E+04   -0.10175E-01   -0.63543E-01  2608   0.144E+00    0.122E+00
DAV:   4    -0.135825376777E+04    0.34997E-01   -0.17084E-01  2504   0.832E-01    0.621E-01
DAV:   5    -0.135824842159E+04    0.53462E-02   -0.64813E-02  2464   0.503E-01    0.395E-01
DAV:   6    -0.135824790916E+04    0.51243E-03   -0.34901E-02  2560   0.340E-01    0.182E-01
DAV:   7    -0.135824787850E+04    0.30654E-04   -0.75157E-03  2384   0.180E-01    0.142E-01
DAV:   8    -0.135824789387E+04   -0.15362E-04   -0.37218E-03  2304   0.986E-02    0.838E-02
DAV:   9    -0.135824782707E+04    0.66797E-04   -0.12100E-03  2608   0.664E-02    0.471E-02
DAV:  10    -0.135824784871E+04   -0.21638E-04   -0.57052E-04  2552   0.437E-02    0.445E-02
DAV:  11    -0.135824782668E+04    0.22028E-04   -0.19840E-04  2520   0.292E-02    0.180E-02
DAV:  12    -0.135824783076E+04   -0.40856E-05   -0.87078E-05  2432   0.170E-02    0.909E-03
DAV:  13    -0.135824783094E+04   -0.17167E-06   -0.11930E-05  1896   0.842E-03    0.552E-03
DAV:  14    -0.135824783134E+04   -0.39949E-06   -0.83949E-06  1640   0.581E-03
   6 F= -.13582478E+04 E0= -.13582478E+04  d E =-.166314E+01
 BRION: g(F)=  0.181E+01 g(S)=  0.000E+00 retain N=  4 mean eig= 0.59
 eig:   0.479  0.127  0.880  0.880
 bond charge predicted
       N       E                     dE             d eps       ncg     rms          rms(c)
DAV:   1    -0.135799910501E+04    0.24873E+00   -0.40038E+02  1344   0.279E+01    0.405E+00
DAV:   2    -0.136004133477E+04   -0.20422E+01   -0.21453E+01  2280   0.101E+01    0.214E+00
DAV:   3    -0.136008183239E+04   -0.40498E-01   -0.14274E+00  2600   0.220E+00    0.176E+00
DAV:   4    -0.136002405972E+04    0.57773E-01   -0.30483E-01  2496   0.109E+00    0.932E-01
DAV:   5    -0.136000718675E+04    0.16873E-01   -0.11320E-01  2480   0.650E-01    0.495E-01
DAV:   6    -0.136000639178E+04    0.79497E-03   -0.45898E-02  2528   0.420E-01    0.313E-01
DAV:   7    -0.136000609041E+04    0.30137E-03   -0.19182E-02  2496   0.265E-01    0.188E-01
DAV:   8    -0.136000631061E+04   -0.22020E-03   -0.76811E-03  2528   0.152E-01    0.120E-01
DAV:   9    -0.136000616910E+04    0.14151E-03   -0.15012E-03  2584   0.803E-02    0.734E-02
DAV:  10    -0.136000622133E+04   -0.52231E-04   -0.13983E-03  2312   0.615E-02    0.562E-02
DAV:  11    -0.136000617929E+04    0.42043E-04   -0.44557E-04  2536   0.449E-02    0.204E-02
DAV:  12    -0.136000619225E+04   -0.12956E-04   -0.20017E-04  2512   0.259E-02    0.172E-02
DAV:  13    -0.136000619025E+04    0.19994E-05   -0.46168E-05  2464   0.136E-02    0.830E-03
DAV:  14    -0.136000619061E+04   -0.36579E-06   -0.14841E-05  1872   0.768E-03    0.474E-03
DAV:  15    -0.136000619111E+04   -0.49500E-06   -0.50659E-06  1360   0.521E-03
   7 F= -.13600062E+04 E0= -.13600062E+04  d E =-.175836E+01
 BRION: g(F)=  0.159E+01 g(S)=  0.000E+00 retain N=  5 mean eig= 0.73
 eig:   1.132  1.132  0.316  0.316  0.756
 bond charge predicted
       N       E                     dE             d eps       ncg     rms          rms(c)
DAV:   1    -0.136040668424E+04   -0.40049E+00   -0.46023E+01  1360   0.957E+00    0.159E+00
DAV:   2    -0.136062898988E+04   -0.22231E+00   -0.24188E+00  2272   0.367E+00    0.775E-01
DAV:   3    -0.136063573677E+04   -0.67469E-02   -0.18973E-01  2608   0.797E-01    0.611E-01
DAV:   4    -0.136062950706E+04    0.62297E-02   -0.32565E-02  2528   0.391E-01    0.327E-01
DAV:   5    -0.136062801427E+04    0.14928E-02   -0.14379E-02  2328   0.241E-01    0.163E-01
DAV:   6    -0.136062812836E+04   -0.11410E-03   -0.65272E-03  2552   0.159E-01    0.108E-01
DAV:   7    -0.136062812276E+04    0.56010E-05   -0.22676E-03  2464   0.887E-02    0.764E-02
DAV:   8    -0.136062810831E+04    0.14452E-04   -0.80701E-04  2560   0.515E-02    0.429E-02
DAV:   9    -0.136062809347E+04    0.14843E-04   -0.17432E-04  2552   0.301E-02    0.280E-02
DAV:  10    -0.136062810386E+04   -0.10394E-04   -0.24339E-04  2264   0.254E-02    0.272E-02
DAV:  11    -0.136062809333E+04    0.10532E-04   -0.72193E-05  2336   0.187E-02    0.108E-02
DAV:  12    -0.136062809524E+04   -0.19133E-05   -0.42127E-05  2216   0.111E-02    0.782E-03
DAV:  13    -0.136062809449E+04    0.75258E-06   -0.30219E-06  1128   0.601E-03
   8 F= -.13606281E+04 E0= -.13606281E+04  d E =-.621903E+00
 BRION: g(F)=  0.534E+00 g(S)=  0.000E+00 retain N=  6 mean eig= 1.41
 eig:   3.457  1.825  1.825  0.179  0.599  0.599
 bond charge predicted
       N       E                     dE             d eps       ncg     rms          rms(c)
DAV:   1    -0.136087701812E+04   -0.24892E+00   -0.97654E+01  1376   0.142E+01    0.180E+00
DAV:   2    -0.136136860713E+04   -0.49159E+00   -0.51691E+00  2288   0.539E+00    0.889E-01
DAV:   3    -0.136139295481E+04   -0.24348E-01   -0.38905E-01  2600   0.107E+00    0.690E-01
DAV:   4    -0.136138395079E+04    0.90040E-02   -0.46493E-02  2552   0.502E-01    0.413E-01
DAV:   5    -0.136138071614E+04    0.32347E-02   -0.22396E-02  2368   0.306E-01    0.168E-01
DAV:   6    -0.136138138291E+04   -0.66678E-03   -0.97139E-03  2568   0.190E-01    0.135E-01
DAV:   7    -0.136138133128E+04    0.51638E-04   -0.31406E-03  2584   0.114E-01    0.931E-02
DAV:   8    -0.136138132107E+04    0.10206E-04   -0.15466E-03  2616   0.719E-02    0.523E-02
DAV:   9    -0.136138130278E+04    0.18291E-04   -0.25210E-04  2552   0.379E-02    0.370E-02
DAV:  10    -0.136138130552E+04   -0.27360E-05   -0.26286E-04  2408   0.287E-02    0.229E-02
DAV:  11    -0.136138130241E+04    0.31013E-05   -0.62423E-05  2432   0.185E-02    0.107E-02
DAV:  12    -0.136138130482E+04   -0.24086E-05   -0.39036E-05  2256   0.107E-02    0.972E-03
DAV:  13    -0.136138130342E+04    0.13982E-05   -0.59710E-06  1360   0.664E-03    0.469E-03
DAV:  14    -0.136138130410E+04   -0.67856E-06   -0.12134E-05  1616   0.705E-03    0.382E-03
DAV:  15    -0.136138130383E+04    0.26902E-06   -0.11475E-06   984   0.458E-03
   9 F= -.13613813E+04 E0= -.13613813E+04  d E =-.753209E+00
 BRION: g(F)=  0.451E+00 g(S)=  0.000E+00 retain N=  7 mean eig= 1.71
 eig:   4.103  4.103  0.742  1.071  1.071  0.220  0.663
 bond charge predicted
       N       E                     dE             d eps       ncg     rms          rms(c)
DAV:   1    -0.136161196792E+04   -0.23066E+00   -0.55056E+01  1376   0.106E+01    0.135E+00
DAV:   2    -0.136189552757E+04   -0.28356E+00   -0.30143E+00  2288   0.417E+00    0.686E-01
DAV:   3    -0.136191157490E+04   -0.16047E-01   -0.24169E-01  2592   0.832E-01    0.558E-01
DAV:   4    -0.136190687994E+04    0.46950E-02   -0.27291E-02  2584   0.386E-01    0.350E-01
DAV:   5    -0.136190467365E+04    0.22063E-02   -0.14381E-02  2344   0.238E-01    0.137E-01
DAV:   6    -0.136190513273E+04   -0.45909E-03   -0.63082E-03  2568   0.152E-01    0.120E-01
DAV:   7    -0.136190507282E+04    0.59917E-04   -0.25310E-03  2584   0.963E-02    0.764E-02
DAV:   8    -0.136190504868E+04    0.24140E-04   -0.88307E-04  2576   0.587E-02    0.411E-02
DAV:   9    -0.136190504345E+04    0.52274E-05   -0.16228E-04  2568   0.286E-02    0.293E-02
DAV:  10    -0.136190504995E+04   -0.65005E-05   -0.13244E-04  2360   0.203E-02    0.192E-02
DAV:  11    -0.136190504631E+04    0.36435E-05   -0.35347E-05  2376   0.143E-02    0.853E-03
DAV:  12    -0.136190504808E+04   -0.17793E-05   -0.26463E-05  2200   0.912E-03    0.886E-03
DAV:  13    -0.136190504679E+04    0.12965E-05   -0.44078E-06  1264   0.611E-03    0.444E-03
DAV:  14    -0.136190504745E+04   -0.66056E-06   -0.12114E-05  1608   0.670E-03    0.388E-03
DAV:  15    -0.136190504709E+04    0.35540E-06   -0.99425E-07   976   0.456E-03
  10 F= -.13619050E+04 E0= -.13619050E+04  d E =-.523743E+00
 BRION: g(F)=  0.305E+00 g(S)=  0.000E+00 retain N=  7 mean eig= 1.71
 eig:   3.050  3.050  1.972  1.972  0.778  0.778  0.385
 bond charge predicted
       N       E                     dE             d eps       ncg     rms          rms(c)
DAV:   1    -0.136191120464E+04   -0.61572E-02   -0.11939E+02  1392   0.156E+01    0.186E+00
DAV:   2    -0.136253171972E+04   -0.62052E+00   -0.65672E+00  2296   0.617E+00    0.955E-01
DAV:   3    -0.136256719203E+04   -0.35472E-01   -0.51681E-01  2592   0.119E+00    0.771E-01
DAV:   4    -0.136255861793E+04    0.85741E-02   -0.50657E-02  2600   0.540E-01    0.532E-01
DAV:   5    -0.136255148204E+04    0.71359E-02   -0.25596E-02  2344   0.329E-01    0.203E-01
DAV:   6    -0.136255224044E+04   -0.75841E-03   -0.16710E-02  2448   0.239E-01    0.164E-01
DAV:   7    -0.136255223783E+04    0.26110E-05   -0.60406E-03  2480   0.149E-01    0.122E-01
DAV:   8    -0.136255217352E+04    0.64316E-04   -0.23688E-03  2600   0.921E-02    0.644E-02
DAV:   9    -0.136255214354E+04    0.29976E-04   -0.52819E-04  2384   0.484E-02    0.440E-02
DAV:  10    -0.136255215214E+04   -0.85979E-05   -0.23702E-04  2448   0.294E-02    0.263E-02
DAV:  11    -0.136255214959E+04    0.25441E-05   -0.84951E-05  2472   0.201E-02    0.127E-02
DAV:  12    -0.136255215195E+04   -0.23534E-05   -0.41486E-05  2304   0.133E-02    0.129E-02
DAV:  13    -0.136255215022E+04    0.17258E-05   -0.18458E-05  1896   0.823E-03    0.628E-03
DAV:  14    -0.136255215032E+04   -0.95402E-07   -0.86445E-06  1744   0.602E-03
  11 F= -.13625522E+04 E0= -.13625522E+04  d E =-.647103E+00
 BRION: g(F)=  0.214E+00 g(S)=  0.000E+00 retain N=  8 mean eig= 2.09
 eig:   6.255  2.373  2.569  2.569  0.852  0.852  0.358  0.880
 bond charge predicted
       N       E                     dE             d eps       ncg     rms          rms(c)
DAV:   1    -0.136269061191E+04   -0.13846E+00   -0.33022E+01  1376   0.818E+00    0.102E+00
DAV:   2    -0.136286112564E+04   -0.17051E+00   -0.18135E+00  2288   0.320E+00    0.514E-01
DAV:   3    -0.136287024737E+04   -0.91217E-02   -0.14372E-01  2616   0.630E-01    0.410E-01
DAV:   4    -0.136286722025E+04    0.30271E-02   -0.15556E-02  2584   0.295E-01    0.258E-01
DAV:   5    -0.136286565848E+04    0.15618E-02   -0.71767E-03  2376   0.171E-01    0.999E-02
DAV:   6    -0.136286585651E+04   -0.19803E-03   -0.37764E-03  2464   0.115E-01    0.764E-02
DAV:   7    -0.136286585399E+04    0.25203E-05   -0.13935E-03  2440   0.732E-02    0.553E-02
DAV:   8    -0.136286585707E+04   -0.30769E-05   -0.57690E-04  2544   0.435E-02    0.321E-02
DAV:   9    -0.136286585041E+04    0.66538E-05   -0.11626E-04  2464   0.239E-02    0.239E-02
DAV:  10    -0.136286585089E+04   -0.48072E-06   -0.91291E-05  2536   0.174E-02    0.146E-02
DAV:  11    -0.136286584997E+04    0.92702E-06   -0.32294E-05  2280   0.123E-02    0.625E-03
DAV:  12    -0.136286585055E+04   -0.58163E-06   -0.10164E-05  1776   0.773E-03    0.589E-03
DAV:  13    -0.136286585001E+04    0.53595E-06   -0.26927E-06  1104   0.508E-03
  12 F= -.13628659E+04 E0= -.13628659E+04  d E =-.313700E+00
 BRION: g(F)=  0.166E+00 g(S)=  0.000E+00 retain N=  5 mean eig= 2.52
 eig:   5.218  5.218  0.202  0.981  0.981
 bond charge predicted
       N       E                     dE             d eps       ncg     rms          rms(c)
DAV:   1    -0.136286477479E+04    0.10758E-02   -0.79675E+01  1376   0.127E+01    0.148E+00
DAV:   2    -0.136328468629E+04   -0.41991E+00   -0.44516E+00  2304   0.510E+00    0.759E-01
DAV:   3    -0.136330934326E+04   -0.24657E-01   -0.35158E-01  2592   0.958E-01    0.620E-01
DAV:   4    -0.136330444056E+04    0.49027E-02   -0.32082E-02  2584   0.430E-01    0.450E-01
DAV:   5    -0.136329911355E+04    0.53270E-02   -0.15680E-02  2352   0.254E-01    0.189E-01
DAV:   6    -0.136329923033E+04   -0.11678E-03   -0.12309E-02  2328   0.202E-01    0.124E-01
DAV:   7    -0.136329933999E+04   -0.10966E-03   -0.54762E-03  2440   0.135E-01    0.104E-01
DAV:   8    -0.136329930362E+04    0.36365E-04   -0.17291E-03  2584   0.814E-02    0.644E-02
DAV:   9    -0.136329926664E+04    0.36984E-04   -0.52429E-04  2488   0.447E-02    0.387E-02
DAV:  10    -0.136329927583E+04   -0.91959E-05   -0.19218E-04  2528   0.259E-02    0.243E-02
DAV:  11    -0.136329927799E+04   -0.21547E-05   -0.61902E-05  2456   0.165E-02    0.169E-02
DAV:  12    -0.136329927599E+04    0.19999E-05   -0.46667E-05  2288   0.141E-02    0.135E-02
DAV:  13    -0.136329927495E+04    0.10384E-05   -0.27947E-05  2232   0.962E-03    0.779E-03
DAV:  14    -0.136329927473E+04    0.22403E-06   -0.95802E-06  1768   0.580E-03
  13 F= -.13632993E+04 E0= -.13632993E+04  d E =-.433425E+00
 BRION: g(F)=  0.127E+00 g(S)=  0.000E+00 retain N=  4 mean eig= 4.40
 eig:   7.515  7.515  1.290  1.290
 bond charge predicted
       N       E                     dE             d eps       ncg     rms          rms(c)
DAV:   1    -0.136336318768E+04   -0.63913E-01   -0.40918E+01  1376   0.915E+00    0.105E+00
DAV:   2    -0.136357604908E+04   -0.21286E+00   -0.22559E+00  2304   0.366E+00    0.544E-01
DAV:   3    -0.136358831716E+04   -0.12268E-01   -0.17831E-01  2592   0.688E-01    0.438E-01
DAV:   4    -0.136358555851E+04    0.27587E-02   -0.16328E-02  2600   0.307E-01    0.316E-01
DAV:   5    -0.136358269885E+04    0.28597E-02   -0.83000E-03  2336   0.189E-01    0.129E-01
DAV:   6    -0.136358276176E+04   -0.62909E-04   -0.65770E-03  2304   0.155E-01    0.919E-02
DAV:   7    -0.136358284065E+04   -0.78893E-04   -0.31974E-03  2416   0.102E-01    0.770E-02
DAV:   8    -0.136358281567E+04    0.24981E-04   -0.83529E-04  2608   0.575E-02    0.443E-02
DAV:   9    -0.136358279789E+04    0.17775E-04   -0.29489E-04  2528   0.332E-02    0.263E-02
DAV:  10    -0.136358280502E+04   -0.71317E-05   -0.10026E-04  2528   0.199E-02    0.198E-02
DAV:  11    -0.136358280321E+04    0.18154E-05   -0.46961E-05  2368   0.141E-02    0.117E-02
DAV:  12    -0.136358280309E+04    0.11986E-06   -0.25637E-05  2256   0.109E-02    0.105E-02
DAV:  13    -0.136358280216E+04    0.92645E-06   -0.13076E-05  1768   0.702E-03    0.577E-03
DAV:  14    -0.136358280206E+04    0.10399E-06   -0.61388E-06  1504   0.539E-03
  14 F= -.13635828E+04 E0= -.13635828E+04  d E =-.283527E+00
 BRION: g(F)=  0.113E+00 g(S)=  0.000E+00 retain N=  3 mean eig= 3.34
 eig:   1.239  4.394  4.394
 bond charge predicted
       N       E                     dE             d eps       ncg     rms          rms(c)
DAV:   1    -0.136363436725E+04   -0.51565E-01   -0.34150E+01  1376   0.826E+00    0.964E-01
DAV:   2    -0.136381375262E+04   -0.17939E+00   -0.19012E+00  2304   0.333E+00    0.503E-01
DAV:   3    -0.136382424019E+04   -0.10488E-01   -0.15124E-01  2576   0.627E-01    0.405E-01
DAV:   4    -0.136382190817E+04    0.23320E-02   -0.14262E-02  2560   0.282E-01    0.285E-01
DAV:   5    -0.136381984726E+04    0.20609E-02   -0.70015E-03  2360   0.166E-01    0.113E-01
DAV:   6    -0.136381996696E+04   -0.11969E-03   -0.46237E-03  2360   0.125E-01    0.800E-02
DAV:   7    -0.136381999423E+04   -0.27276E-04   -0.20373E-03  2424   0.826E-02    0.612E-02
DAV:   8    -0.136381998669E+04    0.75445E-05   -0.68674E-04  2600   0.506E-02    0.373E-02
DAV:   9    -0.136381997787E+04    0.88190E-05   -0.17414E-04  2504   0.272E-02    0.256E-02
DAV:  10    -0.136381997935E+04   -0.14821E-05   -0.74620E-05  2544   0.160E-02    0.153E-02
DAV:  11    -0.136381997993E+04   -0.58043E-06   -0.27762E-05  2344   0.112E-02    0.945E-03
DAV:  12    -0.136381997951E+04    0.41972E-06   -0.15146E-05  2056   0.863E-03    0.761E-03
DAV:  13    -0.136381997916E+04    0.34955E-06   -0.88844E-06  1744   0.590E-03
  15 F= -.13638200E+04 E0= -.13638200E+04  d E =-.237177E+00
 BRION: g(F)=  0.978E-01 g(S)=  0.000E+00 retain N=  3 mean eig= 5.58
 eig:   7.488  7.488  1.752
 bond charge predicted
       N       E                     dE             d eps       ncg     rms          rms(c)
DAV:   1    -0.136389698169E+04   -0.77002E-01   -0.11675E+01  1368   0.483E+00    0.554E-01
DAV:   2    -0.136395630718E+04   -0.59325E-01   -0.62346E-01  2296   0.193E+00    0.286E-01
DAV:   3    -0.136395979839E+04   -0.34912E-02   -0.49195E-02  2592   0.358E-01    0.231E-01
DAV:   4    -0.136395904151E+04    0.75687E-03   -0.43027E-03  2592   0.156E-01    0.164E-01
DAV:   5    -0.136395831779E+04    0.72373E-03   -0.24483E-03  2280   0.985E-02    0.605E-02
DAV:   6    -0.136395839956E+04   -0.81772E-04   -0.16394E-03  2392   0.728E-02    0.519E-02
DAV:   7    -0.136395839492E+04    0.46438E-05   -0.63579E-04  2400   0.459E-02    0.366E-02
DAV:   8    -0.136395838934E+04    0.55761E-05   -0.21289E-04  2544   0.282E-02    0.203E-02
DAV:   9    -0.136395838644E+04    0.29002E-05   -0.46314E-05  2336   0.145E-02    0.144E-02
DAV:  10    -0.136395838698E+04   -0.53928E-06   -0.25551E-05  2192   0.934E-03    0.786E-03
DAV:  11    -0.136395838648E+04    0.49832E-06   -0.40368E-06  1224   0.681E-03
  16 F= -.13639584E+04 E0= -.13639584E+04  d E =-.138407E+00
 BRION: g(F)=  0.913E-01 g(S)=  0.000E+00 retain N=  3 mean eig= 3.14
 eig:   4.110  4.110  1.203
 bond charge predicted
       N       E                     dE             d eps       ncg     rms          rms(c)
DAV:   1    -0.136403719007E+04   -0.78803E-01   -0.11097E+01  1368   0.471E+00    0.527E-01
DAV:   2    -0.136409284578E+04   -0.55656E-01   -0.58533E-01  2312   0.184E+00    0.276E-01
DAV:   3    -0.136409609582E+04   -0.32500E-02   -0.46319E-02  2592   0.346E-01    0.221E-01
DAV:   4    -0.136409538702E+04    0.70880E-03   -0.40816E-03  2592   0.150E-01    0.156E-01
DAV:   5    -0.136409468279E+04    0.70424E-03   -0.21531E-03  2280   0.946E-02    0.600E-02
DAV:   6    -0.136409473443E+04   -0.51645E-04   -0.15773E-03  2360   0.725E-02    0.460E-02
DAV:   7    -0.136409474074E+04   -0.63090E-05   -0.62103E-04  2368   0.453E-02    0.344E-02
DAV:   8    -0.136409473796E+04    0.27787E-05   -0.19157E-04  2568   0.265E-02    0.191E-02
DAV:   9    -0.136409473518E+04    0.27868E-05   -0.49995E-05  2440   0.147E-02    0.131E-02
DAV:  10    -0.136409473592E+04   -0.74715E-06   -0.19068E-05  2208   0.853E-03    0.840E-03
DAV:  11    -0.136409473534E+04    0.58256E-06   -0.53478E-06  1320   0.640E-03
  17 F= -.13640947E+04 E0= -.13640947E+04  d E =-.136349E+00
 BRION: g(F)=  0.869E-01 g(S)=  0.000E+00 retain N=  3 mean eig= 2.94
 eig:   3.773  3.773  1.269
 bond charge predicted
       N       E                     dE             d eps       ncg     rms          rms(c)
DAV:   1    -0.136415945432E+04   -0.64718E-01   -0.29269E+01  1368   0.761E+00    0.844E-01
DAV:   2    -0.136430599720E+04   -0.14654E+00   -0.15347E+00  2296   0.298E+00    0.438E-01
DAV:   3    -0.136431486994E+04   -0.88727E-02   -0.12155E-01  2584   0.558E-01    0.352E-01
DAV:   4    -0.136431329766E+04    0.15723E-02   -0.10152E-02  2584   0.237E-01    0.256E-01
DAV:   5    -0.136431152003E+04    0.17776E-02   -0.54804E-03  2248   0.146E-01    0.982E-02
DAV:   6    -0.136431166897E+04   -0.14894E-03   -0.38430E-03  2384   0.107E-01    0.756E-02
DAV:   7    -0.136431166948E+04   -0.50970E-06   -0.14511E-03  2448   0.693E-02    0.545E-02
DAV:   8    -0.136431165528E+04    0.14200E-04   -0.48850E-04  2560   0.435E-02    0.321E-02
DAV:   9    -0.136431164908E+04    0.61932E-05   -0.11026E-04  2408   0.219E-02    0.221E-02
DAV:  10    -0.136431164964E+04   -0.55636E-06   -0.52870E-05  2456   0.134E-02    0.103E-02
DAV:  11    -0.136431165024E+04   -0.60145E-06   -0.11204E-05  1904   0.849E-03    0.549E-03
DAV:  12    -0.136431165059E+04   -0.34945E-06   -0.92336E-06  1576   0.604E-03
  18 F= -.13643117E+04 E0= -.13643117E+04  d E =-.216915E+00
 BRION: g(F)=  0.806E-01 g(S)=  0.000E+00 retain N=  3 mean eig= 3.55
 eig:   4.697  4.697  1.250
 bond charge predicted
       N       E                     dE             d eps       ncg     rms          rms(c)
DAV:   1    -0.136439020093E+04   -0.78551E-01   -0.13230E+01  1368   0.511E+00    0.567E-01
DAV:   2    -0.136445611193E+04   -0.65911E-01   -0.68910E-01  2312   0.199E+00    0.293E-01
DAV:   3    -0.136445968176E+04   -0.35698E-02   -0.51419E-02  2592   0.379E-01    0.230E-01
DAV:   4    -0.136445881733E+04    0.86443E-03   -0.47566E-03  2576   0.160E-01    0.157E-01
DAV:   5    -0.136445814766E+04    0.66967E-03   -0.25020E-03  2296   0.100E-01    0.572E-02
DAV:   6    -0.136445823602E+04   -0.88364E-04   -0.15021E-03  2448   0.696E-02    0.476E-02
DAV:   7    -0.136445823383E+04    0.21924E-05   -0.51170E-04  2456   0.428E-02    0.338E-02
DAV:   8    -0.136445823049E+04    0.33390E-05   -0.18420E-04  2560   0.259E-02    0.184E-02
DAV:   9    -0.136445822889E+04    0.15965E-05   -0.38806E-05  2376   0.133E-02    0.134E-02
DAV:  10    -0.136445822922E+04   -0.32247E-06   -0.22268E-05  2168   0.904E-03    0.722E-03
DAV:  11    -0.136445822875E+04    0.47009E-06   -0.34742E-06  1168   0.646E-03
  19 F= -.13644582E+04 E0= -.13644582E+04  d E =-.146578E+00
 BRION: g(F)=  0.770E-01 g(S)=  0.000E+00 retain N=  3 mean eig= 3.06
 eig:   1.222  3.983  3.983
 bond charge predicted
       N       E                     dE             d eps       ncg     rms          rms(c)
DAV:   1    -0.136453587234E+04   -0.77643E-01   -0.92275E+00  1360   0.428E+00    0.468E-01
DAV:   2    -0.136458158628E+04   -0.45714E-01   -0.47763E-01  2312   0.164E+00    0.240E-01
DAV:   3    -0.136458416981E+04   -0.25835E-02   -0.35960E-02  2592   0.317E-01    0.190E-01
DAV:   4    -0.136458365816E+04    0.51166E-03   -0.31536E-03  2592   0.131E-01    0.134E-01
DAV:   5    -0.136458316500E+04    0.49316E-03   -0.17588E-03  2256   0.822E-02    0.484E-02
DAV:   6    -0.136458322693E+04   -0.61931E-04   -0.10470E-03  2424   0.559E-02    0.414E-02
DAV:   7    -0.136458322354E+04    0.33920E-05   -0.36467E-04  2472   0.355E-02    0.280E-02
DAV:   8    -0.136458322053E+04    0.30056E-05   -0.13022E-04  2544   0.222E-02    0.164E-02
DAV:   9    -0.136458321953E+04    0.99835E-06   -0.25998E-05  2328   0.110E-02    0.117E-02
DAV:  10    -0.136458321943E+04    0.10872E-06   -0.12040E-05  1704   0.714E-03    0.504E-03
DAV:  11    -0.136458321946E+04   -0.36249E-07   -0.17596E-06  1000   0.551E-03
  20 F= -.13645832E+04 E0= -.13645832E+04  d E =-.124991E+00
 BRION: g(F)=  0.746E-01 g(S)=  0.000E+00 retain N=  3 mean eig= 4.10
 eig:   5.410  5.410  1.466
