 running on  160 total cores
 distrk:  each k-point on  160 cores,    1 groups
 distr:  one band on   20 cores,    8 groups
 using from now: INCAR     
 vasp.5.4.4.18Apr17-6-g9f103f2a35 (build May 01 2020 14:22:42) gamma-only       
  
 POSCAR found type information on POSCAR  O  La Zr Li Al
 POSCAR found :  5 types and     188 ions
 scaLAPACK will be used
 LDA part: xc-table for Pade appr. of Perdew
 POSCAR, INCAR and KPOINTS ok, starting setup
 FFT: planning ...
 WAVECAR not read
 WARNING: random wavefunctions but no delay for mixing, default for NELMDL
 entering main loop
       N       E                     dE             d eps       ncg     rms          rms(c)
DAV:   1     0.253614010061E+05    0.25361E+05   -0.42116E+05  1600   0.253E+03
DAV:   2     0.939734909733E+04   -0.15964E+05   -0.14737E+05  1424   0.706E+02
DAV:   3     0.267432232546E+04   -0.67230E+04   -0.61331E+04  1504   0.357E+02
DAV:   4    -0.374213854034E+03   -0.30485E+04   -0.28434E+04  2064   0.223E+02
DAV:   5    -0.141169069784E+04   -0.10375E+04   -0.10029E+04  2528   0.141E+02    0.117E+02
DAV:   6    -0.129511065586E+04    0.11658E+03   -0.14247E+03  2440   0.661E+01    0.500E+01
DAV:   7    -0.131820276473E+04   -0.23092E+02   -0.38572E+02  2568   0.338E+01    0.252E+01
DAV:   8    -0.132622252968E+04   -0.80198E+01   -0.25858E+02  2528   0.270E+01    0.256E+01
DAV:   9    -0.132016966967E+04    0.60529E+01   -0.49388E+01  2520   0.146E+01    0.876E+00
DAV:  10    -0.132080689699E+04   -0.63723E+00   -0.18216E+01  2616   0.794E+00    0.734E+00
DAV:  11    -0.132118004583E+04   -0.37315E+00   -0.56018E+00  2624   0.420E+00    0.461E+00
DAV:  12    -0.132105957640E+04    0.12047E+00   -0.21858E+00  2560   0.331E+00    0.339E+00
DAV:  13    -0.132106861544E+04   -0.90390E-02   -0.10643E+00  2576   0.186E+00    0.200E+00
DAV:  14    -0.132106430244E+04    0.43130E-02   -0.21122E-01  2616   0.100E+00    0.140E+00
DAV:  15    -0.132106803092E+04   -0.37285E-02   -0.87109E-02  2560   0.558E-01    0.945E-01
DAV:  16    -0.132106837428E+04   -0.34336E-03   -0.33464E-02  2568   0.340E-01    0.619E-01
DAV:  17    -0.132106853268E+04   -0.15841E-03   -0.18395E-02  2464   0.275E-01    0.326E-01
DAV:  18    -0.132106860666E+04   -0.73977E-04   -0.45272E-03  2456   0.142E-01    0.151E-01
DAV:  19    -0.132106863232E+04   -0.25662E-04   -0.28713E-03  2568   0.102E-01    0.116E-01
DAV:  20    -0.132106867349E+04   -0.41164E-04   -0.60897E-04  2544   0.455E-02    0.534E-02
DAV:  21    -0.132106868846E+04   -0.14977E-04   -0.26572E-04  2568   0.318E-02    0.474E-02
DAV:  22    -0.132106870703E+04   -0.18565E-04   -0.89786E-05  2568   0.176E-02    0.166E-02
DAV:  23    -0.132106870361E+04    0.34200E-05   -0.32336E-05  2232   0.115E-02    0.142E-02
DAV:  24    -0.132106870823E+04   -0.46259E-05   -0.15900E-05  1752   0.782E-03    0.374E-03
DAV:  25    -0.132106870774E+04    0.49718E-06   -0.39354E-06  1016   0.530E-03
   1 F= -.13210687E+04 E0= -.13210676E+04  d E =-.132107E+04
 BRION: g(F)=  0.643E+02 g(S)=  0.000E+00
 bond charge predicted
       N       E                     dE             d eps       ncg     rms          rms(c)
DAV:   1    -0.127021052040E+04    0.50858E+02   -0.86592E+03  1688   0.135E+02    0.360E+01
DAV:   2    -0.134579804497E+04   -0.75588E+02   -0.87083E+02  2560   0.639E+01    0.174E+01
DAV:   3    -0.134359695712E+04    0.22011E+01   -0.50760E+01  2624   0.173E+01    0.113E+01
DAV:   4    -0.134137532220E+04    0.22216E+01   -0.21153E+01  2368   0.910E+00    0.526E+00
DAV:   5    -0.134136200474E+04    0.13317E-01   -0.53880E+00  2560   0.480E+00    0.402E+00
DAV:   6    -0.134122878129E+04    0.13322E+00   -0.37056E+00  2592   0.331E+00    0.210E+00
DAV:   7    -0.134121797199E+04    0.10809E-01   -0.45403E-01  2520   0.172E+00    0.132E+00
DAV:   8    -0.134121013370E+04    0.78383E-02   -0.39612E-01  2552   0.106E+00    0.642E-01
DAV:   9    -0.134121569889E+04   -0.55652E-02   -0.83019E-02  2560   0.540E-01    0.563E-01
DAV:  10    -0.134121211820E+04    0.35807E-02   -0.24559E-02  2616   0.335E-01    0.274E-01
DAV:  11    -0.134121273279E+04   -0.61458E-03   -0.18142E-02  2552   0.231E-01    0.140E-01
DAV:  12    -0.134121306174E+04   -0.32895E-03   -0.33658E-03  2616   0.124E-01    0.105E-01
DAV:  13    -0.134121292189E+04    0.13985E-03   -0.10520E-03  2624   0.731E-02    0.404E-02
DAV:  14    -0.134121295860E+04   -0.36716E-04   -0.48787E-04  2592   0.404E-02    0.160E-02
DAV:  15    -0.134121296790E+04   -0.92932E-05   -0.93291E-05  2616   0.216E-02    0.125E-02
DAV:  16    -0.134121296823E+04   -0.33205E-06   -0.33083E-05  2568   0.124E-02    0.892E-03
DAV:  17    -0.134121296962E+04   -0.13898E-05   -0.21507E-05  2320   0.884E-03    0.447E-03
DAV:  18    -0.134121296970E+04   -0.75597E-07   -0.22080E-06  1080   0.448E-03
   2 F= -.13412130E+04 E0= -.13412130E+04  d E =-.201443E+02
 BRION: g(F)=  0.570E+02 g(S)=  0.000E+00 retain N=  1 mean eig= 0.52
 eig:   0.521
 bond charge predicted
       N       E                     dE             d eps       ncg     rms          rms(c)
DAV:   1    -0.132062764360E+04    0.20585E+02   -0.33546E+03  1368   0.777E+01    0.197E+01
DAV:   2    -0.135063624547E+04   -0.30009E+02   -0.34997E+02  2496   0.368E+01    0.204E+01
DAV:   3    -0.135134318620E+04   -0.70694E+00   -0.24149E+01  2568   0.111E+01    0.164E+01
DAV:   4    -0.135045135073E+04    0.89184E+00   -0.14310E+01  2216   0.614E+00    0.937E+00
DAV:   5    -0.135053812031E+04   -0.86770E-01   -0.44870E+00  2320   0.405E+00    0.660E+00
DAV:   6    -0.134990891972E+04    0.62920E+00   -0.45797E+00  2392   0.379E+00    0.224E+00
DAV:   7    -0.134994559463E+04   -0.36675E-01   -0.13824E+00  2416   0.202E+00    0.108E+00
DAV:   8    -0.134994546561E+04    0.12903E-03   -0.19574E-01  2616   0.851E-01    0.614E-01
DAV:   9    -0.134994840223E+04   -0.29366E-02   -0.66798E-02  2608   0.427E-01    0.440E-01
DAV:  10    -0.134994859357E+04   -0.19134E-03   -0.16870E-02  2600   0.233E-01    0.240E-01
DAV:  11    -0.134994872564E+04   -0.13207E-03   -0.12795E-02  2576   0.177E-01    0.134E-01
DAV:  12    -0.134994897758E+04   -0.25194E-03   -0.37771E-03  2616   0.106E-01    0.130E-01
DAV:  13    -0.134994876642E+04    0.21117E-03   -0.23496E-03  2376   0.782E-02    0.460E-02
DAV:  14    -0.134994881061E+04   -0.44197E-04   -0.68773E-04  2368   0.482E-02    0.291E-02
DAV:  15    -0.134994880992E+04    0.69365E-06   -0.19675E-04  2568   0.237E-02    0.150E-02
DAV:  16    -0.134994881718E+04   -0.72612E-05   -0.88928E-05  2504   0.148E-02    0.151E-02
DAV:  17    -0.134994881641E+04    0.76824E-06   -0.17890E-05  1664   0.801E-03    0.964E-03
DAV:  18    -0.134994881747E+04   -0.10531E-05   -0.25669E-05  1800   0.794E-03    0.476E-03
DAV:  19    -0.134994881754E+04   -0.74186E-07   -0.29609E-06  1104   0.468E-03
   3 F= -.13499488E+04 E0= -.13499488E+04  d E =-.873585E+01
 BRION: g(F)=  0.928E+01 g(S)=  0.000E+00 retain N=  2 mean eig= 1.67
 eig:   0.378  2.970
 bond charge predicted
       N       E                     dE             d eps       ncg     rms          rms(c)
DAV:   1    -0.135114799020E+04   -0.11992E+01   -0.50248E+02  1376   0.309E+01    0.656E+00
DAV:   2    -0.135382199409E+04   -0.26740E+01   -0.30325E+01  2336   0.126E+01    0.299E+00
DAV:   3    -0.135385629491E+04   -0.34301E-01   -0.22295E+00  2608   0.299E+00    0.237E+00
DAV:   4    -0.135377136934E+04    0.84926E-01   -0.60991E-01  2512   0.161E+00    0.118E+00
DAV:   5    -0.135376481962E+04    0.65497E-02   -0.20577E-01  2448   0.957E-01    0.773E-01
DAV:   6    -0.135376314402E+04    0.16756E-02   -0.13164E-01  2576   0.665E-01    0.401E-01
DAV:   7    -0.135376346012E+04   -0.31610E-03   -0.28898E-02  2536   0.344E-01    0.305E-01
DAV:   8    -0.135376311340E+04    0.34672E-03   -0.96634E-03  2624   0.185E-01    0.155E-01
DAV:   9    -0.135376311796E+04   -0.45582E-05   -0.46153E-03  2616   0.129E-01    0.945E-02
DAV:  10    -0.135376313710E+04   -0.19139E-04   -0.11995E-03  2392   0.747E-02    0.747E-02
DAV:  11    -0.135376310925E+04    0.27846E-04   -0.88161E-04  2488   0.501E-02    0.346E-02
DAV:  12    -0.135376311173E+04   -0.24783E-05   -0.21237E-04  2544   0.291E-02    0.183E-02
DAV:  13    -0.135376311419E+04   -0.24615E-05   -0.69183E-05  2568   0.167E-02    0.988E-03
DAV:  14    -0.135376311469E+04   -0.49923E-06   -0.20559E-05  2448   0.965E-03    0.490E-03
DAV:  15    -0.135376311509E+04   -0.40076E-06   -0.63173E-06  1544   0.597E-03
   4 F= -.13537631E+04 E0= -.13537631E+04  d E =-.381430E+01
 BRION: g(F)=  0.351E+01 g(S)=  0.000E+00 retain N=  3 mean eig= 1.83
 eig:   4.810  0.397  0.286
 bond charge predicted
       N       E                     dE             d eps       ncg     rms          rms(c)
DAV:   1    -0.135488445567E+04   -0.11213E+01   -0.20613E+02  1376   0.201E+01    0.350E+00
DAV:   2    -0.135589561375E+04   -0.10112E+01   -0.11081E+01  2280   0.754E+00    0.166E+00
DAV:   3    -0.135592527207E+04   -0.29658E-01   -0.88213E-01  2584   0.175E+00    0.138E+00
DAV:   4    -0.135589271581E+04    0.32556E-01   -0.20318E-01  2520   0.921E-01    0.703E-01
DAV:   5    -0.135588737997E+04    0.53358E-02   -0.75077E-02  2400   0.546E-01    0.458E-01
DAV:   6    -0.135588629279E+04    0.10872E-02   -0.42610E-02  2584   0.392E-01    0.238E-01
DAV:   7    -0.135588650411E+04   -0.21133E-03   -0.15552E-02  2440   0.228E-01    0.176E-01
DAV:   8    -0.135588645959E+04    0.44524E-04   -0.39420E-03  2520   0.118E-01    0.976E-02
DAV:   9    -0.135588641497E+04    0.44616E-04   -0.15941E-03  2624   0.734E-02    0.639E-02
DAV:  10    -0.135588645869E+04   -0.43715E-04   -0.75734E-04  2528   0.512E-02    0.644E-02
DAV:  11    -0.135588640951E+04    0.49183E-04   -0.50133E-04  2456   0.397E-02    0.214E-02
DAV:  12    -0.135588641475E+04   -0.52484E-05   -0.12509E-04  2472   0.228E-02    0.120E-02
DAV:  13    -0.135588641670E+04   -0.19484E-05   -0.31651E-05  2448   0.105E-02    0.732E-03
DAV:  14    -0.135588641687E+04   -0.17115E-06   -0.98856E-06  1744   0.628E-03
   5 F= -.13558864E+04 E0= -.13558864E+04  d E =-.212330E+01
 BRION: g(F)=  0.159E+01 g(S)=  0.000E+00 retain N=  4 mean eig= 2.09
 eig:   3.563  3.563  0.620  0.620
 bond charge predicted
       N       E                     dE             d eps       ncg     rms          rms(c)
DAV:   1    -0.135655382566E+04   -0.66741E+00   -0.24055E+02  1368   0.222E+01    0.373E+00
DAV:   2    -0.135774734560E+04   -0.11935E+01   -0.12638E+01  2264   0.811E+00    0.170E+00
DAV:   3    -0.135780305359E+04   -0.55708E-01   -0.99144E-01  2608   0.181E+00    0.133E+00
DAV:   4    -0.135777659630E+04    0.26457E-01   -0.20037E-01  2512   0.962E-01    0.639E-01
DAV:   5    -0.135777576615E+04    0.83015E-03   -0.62407E-02  2480   0.535E-01    0.408E-01
DAV:   6    -0.135777602399E+04   -0.25784E-03   -0.35317E-02  2608   0.332E-01    0.196E-01
DAV:   7    -0.135777591922E+04    0.10477E-03   -0.58813E-03  2512   0.177E-01    0.138E-01
DAV:   8    -0.135777599089E+04   -0.71672E-04   -0.30825E-03  2504   0.975E-02    0.737E-02
DAV:   9    -0.135777594425E+04    0.46641E-04   -0.76137E-04  2624   0.612E-02    0.400E-02
DAV:  10    -0.135777597117E+04   -0.26923E-04   -0.41218E-04  2560   0.367E-02    0.330E-02
DAV:  11    -0.135777596191E+04    0.92647E-05   -0.13362E-04  2584   0.247E-02    0.148E-02
DAV:  12    -0.135777596387E+04   -0.19614E-05   -0.51610E-05  2512   0.140E-02    0.105E-02
DAV:  13    -0.135777596416E+04   -0.29650E-06   -0.17769E-05  2208   0.861E-03    0.622E-03
DAV:  14    -0.135777596400E+04    0.16693E-06   -0.30549E-06  1112   0.534E-03
   6 F= -.13577760E+04 E0= -.13577760E+04  d E =-.188955E+01
 BRION: g(F)=  0.928E+00 g(S)=  0.000E+00 retain N=  5 mean eig= 1.85
 eig:   3.384  3.384  0.655  0.909  0.909
 bond charge predicted
       N       E                     dE             d eps       ncg     rms          rms(c)
DAV:   1    -0.135835976263E+04   -0.58380E+00   -0.75921E+01  1368   0.125E+01    0.198E+00
DAV:   2    -0.135873725835E+04   -0.37750E+00   -0.40599E+00  2288   0.472E+00    0.950E-01
DAV:   3    -0.135875463307E+04   -0.17375E-01   -0.32439E-01  2616   0.102E+00    0.764E-01
DAV:   4    -0.135874600610E+04    0.86270E-02   -0.59511E-02  2568   0.531E-01    0.391E-01
DAV:   5    -0.135874506317E+04    0.94293E-03   -0.20420E-02  2496   0.310E-01    0.223E-01
DAV:   6    -0.135874523232E+04   -0.16915E-03   -0.11149E-02  2624   0.199E-01    0.126E-01
DAV:   7    -0.135874517596E+04    0.56352E-04   -0.27106E-03  2464   0.109E-01    0.901E-02
DAV:   8    -0.135874519560E+04   -0.19634E-04   -0.12897E-03  2528   0.637E-02    0.551E-02
DAV:   9    -0.135874516189E+04    0.33706E-04   -0.29756E-04  2584   0.390E-02    0.308E-02
DAV:  10    -0.135874517488E+04   -0.12986E-04   -0.26666E-04  2456   0.279E-02    0.272E-02
DAV:  11    -0.135874516766E+04    0.72187E-05   -0.80036E-05  2472   0.190E-02    0.102E-02
DAV:  12    -0.135874516899E+04   -0.13252E-05   -0.29398E-05  2224   0.105E-02    0.753E-03
DAV:  13    -0.135874516889E+04    0.95082E-07   -0.69961E-06  1576   0.640E-03
   7 F= -.13587452E+04 E0= -.13587452E+04  d E =-.969205E+00
 BRION: g(F)=  0.687E+00 g(S)=  0.000E+00 retain N=  6 mean eig= 1.99
 eig:   3.487  3.487  1.757  1.757  0.713  0.713
 bond charge predicted
       N       E                     dE             d eps       ncg     rms          rms(c)
DAV:   1    -0.135926764936E+04   -0.52248E+00   -0.12887E+02  1384   0.162E+01    0.201E+00
DAV:   2    -0.135992736498E+04   -0.65972E+00   -0.69968E+00  2280   0.622E+00    0.101E+00
DAV:   3    -0.135996418902E+04   -0.36824E-01   -0.56250E-01  2616   0.128E+00    0.826E-01
DAV:   4    -0.135995418897E+04    0.10000E-01   -0.63487E-02  2608   0.588E-01    0.535E-01
DAV:   5    -0.135994787954E+04    0.63094E-02   -0.27345E-02  2416   0.337E-01    0.223E-01
DAV:   6    -0.135994839004E+04   -0.51049E-03   -0.15105E-02  2464   0.238E-01    0.162E-01
DAV:   7    -0.135994838476E+04    0.52747E-05   -0.63837E-03  2440   0.156E-01    0.120E-01
DAV:   8    -0.135994839652E+04   -0.11763E-04   -0.29214E-03  2608   0.983E-02    0.730E-02
DAV:   9    -0.135994836705E+04    0.29473E-04   -0.55632E-04  2560   0.512E-02    0.519E-02
DAV:  10    -0.135994836588E+04    0.11746E-05   -0.30387E-04  2616   0.317E-02    0.302E-02
DAV:  11    -0.135994836668E+04   -0.80054E-06   -0.13232E-04  2472   0.235E-02    0.164E-02
DAV:  12    -0.135994836496E+04    0.17140E-05   -0.42253E-05  2376   0.156E-02    0.128E-02
DAV:  13    -0.135994836477E+04    0.19006E-06   -0.36720E-05  2208   0.101E-02    0.659E-03
DAV:  14    -0.135994836450E+04    0.27353E-06   -0.39295E-06  1216   0.550E-03
   8 F= -.13599484E+04 E0= -.13599484E+04  d E =-.120320E+01
 BRION: g(F)=  0.519E+00 g(S)=  0.000E+00 retain N=  7 mean eig= 2.41
 eig:   3.411  3.411  3.798  3.798  0.782  0.782  0.858
 bond charge predicted
       N       E                     dE             d eps       ncg     rms          rms(c)
DAV:   1    -0.136036604171E+04   -0.41768E+00   -0.95521E+01  1376   0.140E+01    0.175E+00
DAV:   2    -0.136085547051E+04   -0.48943E+00   -0.51966E+00  2288   0.533E+00    0.893E-01
DAV:   3    -0.136088154306E+04   -0.26073E-01   -0.40920E-01  2600   0.111E+00    0.714E-01
DAV:   4    -0.136087341132E+04    0.81317E-02   -0.50448E-02  2568   0.516E-01    0.442E-01
DAV:   5    -0.136086970812E+04    0.37032E-02   -0.21150E-02  2456   0.294E-01    0.186E-01
DAV:   6    -0.136087014905E+04   -0.44094E-03   -0.92939E-03  2512   0.186E-01    0.132E-01
DAV:   7    -0.136087012424E+04    0.24817E-04   -0.37240E-03  2488   0.123E-01    0.919E-02
DAV:   8    -0.136087015707E+04   -0.32836E-04   -0.19459E-03  2600   0.791E-02    0.604E-02
DAV:   9    -0.136087013253E+04    0.24545E-04   -0.32151E-04  2528   0.406E-02    0.438E-02
DAV:  10    -0.136087012802E+04    0.45097E-05   -0.26802E-04  2592   0.290E-02    0.233E-02
DAV:  11    -0.136087012707E+04    0.94602E-06   -0.89392E-05  2456   0.194E-02    0.992E-03
DAV:  12    -0.136087012794E+04   -0.86188E-06   -0.22481E-05  2112   0.115E-02    0.840E-03
DAV:  13    -0.136087012766E+04    0.27815E-06   -0.13472E-05  1760   0.677E-03    0.461E-03
DAV:  14    -0.136087012754E+04    0.12178E-06   -0.20076E-06  1024   0.493E-03
   9 F= -.13608701E+04 E0= -.13608701E+04  d E =-.921763E+00
 BRION: g(F)=  0.388E+00 g(S)=  0.000E+00 retain N=  8 mean eig= 3.25
 eig:   7.402  7.402  3.610  3.610  1.184  1.184  0.796  0.796
 bond charge predicted
       N       E                     dE             d eps       ncg     rms          rms(c)
DAV:   1    -0.136108083194E+04   -0.21070E+00   -0.15861E+02  1384   0.179E+01    0.216E+00
DAV:   2    -0.136188979848E+04   -0.80897E+00   -0.85811E+00  2272   0.692E+00    0.111E+00
DAV:   3    -0.136193300480E+04   -0.43206E-01   -0.68113E-01  2584   0.141E+00    0.887E-01
DAV:   4    -0.136192031544E+04    0.12689E-01   -0.78144E-02  2568   0.639E-01    0.577E-01
DAV:   5    -0.136191233517E+04    0.79803E-02   -0.30557E-02  2440   0.364E-01    0.252E-01
DAV:   6    -0.136191233187E+04    0.32963E-05   -0.18132E-02  2368   0.265E-01    0.154E-01
DAV:   7    -0.136191255489E+04   -0.22302E-03   -0.80415E-03  2376   0.172E-01    0.131E-01
DAV:   8    -0.136191252978E+04    0.25113E-04   -0.27920E-03  2616   0.984E-02    0.825E-02
DAV:   9    -0.136191249400E+04    0.35779E-04   -0.85465E-04  2576   0.579E-02    0.519E-02
DAV:  10    -0.136191250410E+04   -0.10095E-04   -0.33728E-04  2584   0.360E-02    0.356E-02
DAV:  11    -0.136191249788E+04    0.62131E-05   -0.13070E-04  2536   0.238E-02    0.171E-02
DAV:  12    -0.136191249823E+04   -0.35248E-06   -0.70756E-05  2280   0.167E-02    0.137E-02
DAV:  13    -0.136191249715E+04    0.10888E-05   -0.29625E-05  2200   0.105E-02    0.728E-03
DAV:  14    -0.136191249756E+04   -0.41636E-06   -0.14610E-05  1792   0.696E-03    0.428E-03
DAV:  15    -0.136191249739E+04    0.17490E-06   -0.11709E-06   992   0.444E-03
  10 F= -.13619125E+04 E0= -.13619125E+04  d E =-.104237E+01
 BRION: g(F)=  0.278E+00 g(S)=  0.000E+00 retain N=  7 mean eig= 3.38
 eig:   7.441  7.441  2.532  2.532  1.288  1.288  1.149
 bond charge predicted
       N       E                     dE             d eps       ncg     rms          rms(c)
DAV:   1    -0.136215000994E+04   -0.23751E+00   -0.62227E+01  1376   0.113E+01    0.138E+00
DAV:   2    -0.136246563820E+04   -0.31563E+00   -0.33509E+00  2296   0.440E+00    0.694E-01
DAV:   3    -0.136248240911E+04   -0.16771E-01   -0.26208E-01  2592   0.871E-01    0.559E-01
DAV:   4    -0.136247723477E+04    0.51743E-02   -0.29843E-02  2552   0.395E-01    0.363E-01
DAV:   5    -0.136247394192E+04    0.32928E-02   -0.13785E-02  2328   0.241E-01    0.148E-01
DAV:   6    -0.136247427815E+04   -0.33623E-03   -0.78544E-03  2440   0.172E-01    0.120E-01
DAV:   7    -0.136247423328E+04    0.44867E-04   -0.33424E-03  2400   0.111E-01    0.854E-02
DAV:   8    -0.136247423506E+04   -0.17793E-05   -0.14661E-03  2600   0.698E-02    0.506E-02
DAV:   9    -0.136247422273E+04    0.12335E-04   -0.26894E-04  2560   0.357E-02    0.370E-02
DAV:  10    -0.136247422173E+04    0.99889E-06   -0.17137E-04  2544   0.235E-02    0.215E-02
DAV:  11    -0.136247422096E+04    0.77182E-06   -0.61708E-05  2464   0.172E-02    0.108E-02
DAV:  12    -0.136247422149E+04   -0.53908E-06   -0.24821E-05  2288   0.110E-02    0.990E-03
DAV:  13    -0.136247422066E+04    0.83924E-06   -0.13271E-05  1744   0.707E-03    0.452E-03
DAV:  14    -0.136247422060E+04    0.57524E-07   -0.32842E-06  1152   0.531E-03
  11 F= -.13624742E+04 E0= -.13624742E+04  d E =-.561723E+00
 BRION: g(F)=  0.230E+00 g(S)=  0.000E+00 retain N=  7 mean eig= 3.57
 eig:   7.591  7.591  3.159  3.159  0.995  1.260  1.260
 bond charge predicted
       N       E                     dE             d eps       ncg     rms          rms(c)
DAV:   1    -0.136266733436E+04   -0.19311E+00   -0.39354E+01  1376   0.895E+00    0.109E+00
DAV:   2    -0.136286619493E+04   -0.19886E+00   -0.21011E+00  2296   0.349E+00    0.550E-01
DAV:   3    -0.136287653057E+04   -0.10336E-01   -0.16121E-01  2584   0.691E-01    0.445E-01
DAV:   4    -0.136287336610E+04    0.31645E-02   -0.17969E-02  2592   0.307E-01    0.294E-01
DAV:   5    -0.136287125288E+04    0.21132E-02   -0.92111E-03  2304   0.192E-01    0.115E-01
DAV:   6    -0.136287151984E+04   -0.26696E-03   -0.48546E-03  2456   0.132E-01    0.979E-02
DAV:   7    -0.136287146973E+04    0.50108E-04   -0.19648E-03  2448   0.846E-02    0.653E-02
DAV:   8    -0.136287146977E+04   -0.37078E-07   -0.86238E-04  2600   0.549E-02    0.393E-02
DAV:   9    -0.136287146189E+04    0.78790E-05   -0.14504E-04  2512   0.266E-02    0.284E-02
DAV:  10    -0.136287146202E+04   -0.12497E-06   -0.99679E-05  2528   0.177E-02    0.153E-02
DAV:  11    -0.136287146163E+04    0.38728E-06   -0.29793E-05  2336   0.121E-02    0.728E-03
DAV:  12    -0.136287146204E+04   -0.41601E-06   -0.11084E-05  1784   0.779E-03    0.644E-03
DAV:  13    -0.136287146156E+04    0.48624E-06   -0.39438E-06  1264   0.537E-03
  12 F= -.13628715E+04 E0= -.13628715E+04  d E =-.397241E+00
 BRION: g(F)=  0.197E+00 g(S)=  0.000E+00 retain N=  4 mean eig= 4.61
 eig:   7.566  7.566  1.646  1.646
 bond charge predicted
       N       E                     dE             d eps       ncg     rms          rms(c)
DAV:   1    -0.136303411724E+04   -0.16266E+00   -0.54603E+01  1360   0.105E+01    0.121E+00
DAV:   2    -0.136330685505E+04   -0.27274E+00   -0.28627E+00  2280   0.405E+00    0.617E-01
DAV:   3    -0.136332204182E+04   -0.15187E-01   -0.21894E-01  2576   0.785E-01    0.500E-01
DAV:   4    -0.136331876170E+04    0.32801E-02   -0.20975E-02  2616   0.332E-01    0.357E-01
DAV:   5    -0.136331502148E+04    0.37402E-02   -0.11542E-02  2264   0.226E-01    0.137E-01
DAV:   6    -0.136331541741E+04   -0.39593E-03   -0.85879E-03  2416   0.168E-01    0.118E-01
DAV:   7    -0.136331537224E+04    0.45175E-04   -0.26238E-03  2464   0.976E-02    0.860E-02
DAV:   8    -0.136331533174E+04    0.40499E-04   -0.10825E-03  2552   0.622E-02    0.446E-02
DAV:   9    -0.136331531755E+04    0.14189E-04   -0.24027E-04  2296   0.323E-02    0.290E-02
DAV:  10    -0.136331532183E+04   -0.42767E-05   -0.97184E-05  2392   0.190E-02    0.164E-02
DAV:  11    -0.136331532110E+04    0.72269E-06   -0.23554E-05  2400   0.115E-02    0.839E-03
DAV:  12    -0.136331532200E+04   -0.89250E-06   -0.17354E-05  1992   0.787E-03    0.755E-03
DAV:  13    -0.136331532112E+04    0.87183E-06   -0.21388E-06  1000   0.534E-03
  13 F= -.13633153E+04 E0= -.13633153E+04  d E =-.443860E+00
 BRION: g(F)=  0.173E+00 g(S)=  0.000E+00 retain N=  4 mean eig= 4.32
 eig:   6.618  6.618  2.022  2.022
 bond charge predicted
       N       E                     dE             d eps       ncg     rms          rms(c)
DAV:   1    -0.136349812476E+04   -0.18280E+00   -0.35088E+01  1376   0.845E+00    0.985E-01
DAV:   2    -0.136367533704E+04   -0.17721E+00   -0.18693E+00  2280   0.329E+00    0.500E-01
DAV:   3    -0.136368532467E+04   -0.99876E-02   -0.14682E-01  2568   0.641E-01    0.405E-01
DAV:   4    -0.136368294195E+04    0.23827E-02   -0.14678E-02  2600   0.281E-01    0.282E-01
DAV:   5    -0.136368067859E+04    0.22634E-02   -0.77586E-03  2256   0.182E-01    0.108E-01
DAV:   6    -0.136368089933E+04   -0.22074E-03   -0.51533E-03  2392   0.132E-01    0.932E-02
DAV:   7    -0.136368087564E+04    0.23692E-04   -0.18287E-03  2424   0.805E-02    0.664E-02
DAV:   8    -0.136368085451E+04    0.21129E-04   -0.71365E-04  2568   0.511E-02    0.352E-02
DAV:   9    -0.136368084932E+04    0.51922E-05   -0.16007E-04  2424   0.261E-02    0.241E-02
DAV:  10    -0.136368085133E+04   -0.20098E-05   -0.61156E-05  2496   0.154E-02    0.145E-02
DAV:  11    -0.136368085069E+04    0.63829E-06   -0.23142E-05  2328   0.107E-02    0.727E-03
DAV:  12    -0.136368085101E+04   -0.31825E-06   -0.10420E-05  1760   0.724E-03    0.655E-03
DAV:  13    -0.136368085059E+04    0.42150E-06   -0.44637E-06  1344   0.517E-03
  14 F= -.13636809E+04 E0= -.13636809E+04  d E =-.365529E+00
 BRION: g(F)=  0.158E+00 g(S)=  0.000E+00 retain N=  4 mean eig= 4.45
 eig:   7.213  7.213  1.684  1.684
 bond charge predicted
       N       E                     dE             d eps       ncg     rms          rms(c)
DAV:   1    -0.136383906482E+04   -0.15821E+00   -0.17125E+01  1376   0.590E+00    0.715E-01
DAV:   2    -0.136392669342E+04   -0.87629E-01   -0.92481E-01  2304   0.230E+00    0.358E-01
DAV:   3    -0.136393167697E+04   -0.49836E-02   -0.72282E-02  2592   0.450E-01    0.289E-01
DAV:   4    -0.136393044614E+04    0.12308E-02   -0.69997E-03  2600   0.200E-01    0.200E-01
DAV:   5    -0.136392942808E+04    0.10181E-02   -0.46168E-03  2264   0.137E-01    0.712E-02
DAV:   6    -0.136392960393E+04   -0.17585E-03   -0.24013E-03  2512   0.918E-02    0.741E-02
DAV:   7    -0.136392957336E+04    0.30569E-04   -0.85268E-04  2576   0.553E-02    0.449E-02
DAV:   8    -0.136392955607E+04    0.17285E-04   -0.26521E-04  2528   0.330E-02    0.226E-02
DAV:   9    -0.136392955665E+04   -0.57585E-06   -0.48961E-05  2552   0.156E-02    0.153E-02
DAV:  10    -0.136392955770E+04   -0.10519E-05   -0.21786E-05  2408   0.938E-03    0.691E-03
DAV:  11    -0.136392955723E+04    0.47477E-06   -0.20888E-06  1032   0.605E-03
  15 F= -.13639296E+04 E0= -.13639296E+04  d E =-.248707E+00
 BRION: g(F)=  0.150E+00 g(S)=  0.000E+00 retain N=  4 mean eig= 3.73
 eig:   6.159  6.159  1.300  1.300
 bond charge predicted
       N       E                     dE             d eps       ncg     rms          rms(c)
DAV:   1    -0.136409397145E+04   -0.16441E+00   -0.14629E+01  1368   0.544E+00    0.626E-01
DAV:   2    -0.136416834456E+04   -0.74373E-01   -0.78476E-01  2296   0.211E+00    0.321E-01
DAV:   3    -0.136417272094E+04   -0.43764E-02   -0.62192E-02  2584   0.422E-01    0.261E-01
DAV:   4    -0.136417184578E+04    0.87517E-03   -0.58634E-03  2608   0.180E-01    0.187E-01
DAV:   5    -0.136417085065E+04    0.99513E-03   -0.33974E-03  2272   0.120E-01    0.717E-02
DAV:   6    -0.136417095543E+04   -0.10478E-03   -0.22783E-03  2400   0.878E-02    0.649E-02
DAV:   7    -0.136417093598E+04    0.19448E-04   -0.75345E-04  2480   0.522E-02    0.439E-02
DAV:   8    -0.136417092688E+04    0.91041E-05   -0.32069E-04  2528   0.339E-02    0.230E-02
DAV:   9    -0.136417092507E+04    0.18095E-05   -0.62450E-05  2376   0.167E-02    0.157E-02
DAV:  10    -0.136417092561E+04   -0.54187E-06   -0.21574E-05  2320   0.953E-03    0.844E-03
DAV:  11    -0.136417092522E+04    0.39139E-06   -0.27393E-06  1112   0.610E-03
  16 F= -.13641709E+04 E0= -.13641709E+04  d E =-.241368E+00
 BRION: g(F)=  0.141E+00 g(S)=  0.000E+00 retain N=  4 mean eig= 4.35
 eig:   7.304  7.304  1.403  1.403
 bond charge predicted
       N       E                     dE             d eps       ncg     rms          rms(c)
DAV:   1    -0.136435086757E+04   -0.17994E+00   -0.21178E+01  1368   0.657E+00    0.754E-01
DAV:   2    -0.136445901593E+04   -0.10815E+00   -0.11377E+00  2304   0.254E+00    0.376E-01
DAV:   3    -0.136446533672E+04   -0.63208E-02   -0.89014E-02  2568   0.504E-01    0.301E-01
DAV:   4    -0.136446404581E+04    0.12909E-02   -0.82219E-03  2600   0.214E-01    0.218E-01
DAV:   5    -0.136446254122E+04    0.15046E-02   -0.50933E-03  2264   0.149E-01    0.776E-02
DAV:   6    -0.136446274068E+04   -0.19946E-03   -0.34136E-03  2472   0.105E-01    0.770E-02
DAV:   7    -0.136446271497E+04    0.25702E-04   -0.91540E-04  2536   0.595E-02    0.522E-02
DAV:   8    -0.136446269380E+04    0.21176E-04   -0.36516E-04  2536   0.365E-02    0.251E-02
DAV:   9    -0.136446269224E+04    0.15542E-05   -0.71904E-05  2320   0.185E-02    0.166E-02
DAV:  10    -0.136446269309E+04   -0.84995E-06   -0.19124E-05  2240   0.984E-03    0.829E-03
DAV:  11    -0.136446269301E+04    0.82568E-07   -0.77053E-06  1576   0.636E-03
  17 F= -.13644627E+04 E0= -.13644627E+04  d E =-.291768E+00
 BRION: g(F)=  0.136E+00 g(S)=  0.000E+00 retain N=  4 mean eig= 3.74
 eig:   6.045  6.045  1.437  1.437
 bond charge predicted
       N       E                     dE             d eps       ncg     rms          rms(c)
DAV:   1    -0.136462301719E+04   -0.16032E+00   -0.13354E+01  1368   0.519E+00    0.619E-01
DAV:   2    -0.136469193753E+04   -0.68920E-01   -0.72968E-01  2296   0.204E+00    0.308E-01
DAV:   3    -0.136469631432E+04   -0.43768E-02   -0.60537E-02  2568   0.401E-01    0.253E-01
DAV:   4    -0.136469553015E+04    0.78417E-03   -0.56314E-03  2600   0.177E-01    0.184E-01
DAV:   5    -0.136469461486E+04    0.91529E-03   -0.33934E-03  2272   0.118E-01    0.712E-02
DAV:   6    -0.136469471206E+04   -0.97195E-04   -0.21352E-03  2392   0.863E-02    0.671E-02
DAV:   7    -0.136469468678E+04    0.25281E-04   -0.88609E-04  2464   0.563E-02    0.431E-02
DAV:   8    -0.136469467820E+04    0.85810E-05   -0.32202E-04  2504   0.351E-02    0.240E-02
DAV:   9    -0.136469467659E+04    0.16092E-05   -0.62928E-05  2488   0.168E-02    0.160E-02
DAV:  10    -0.136469467686E+04   -0.27730E-06   -0.21871E-05  2368   0.925E-03    0.809E-03
DAV:  11    -0.136469467684E+04    0.28318E-07   -0.27025E-06  1112   0.624E-03
  18 F= -.13646947E+04 E0= -.13646947E+04  d E =-.231984E+00
 BRION: g(F)=  0.131E+00 g(S)=  0.000E+00 retain N=  4 mean eig= 3.52
 eig:   5.760  5.760  1.279  1.279
 bond charge predicted
       N       E                     dE             d eps       ncg     rms          rms(c)
DAV:   1    -0.136486848547E+04   -0.17381E+00   -0.18186E+01  1368   0.604E+00    0.693E-01
DAV:   2    -0.136496159567E+04   -0.93110E-01   -0.97938E-01  2304   0.235E+00    0.350E-01
DAV:   3    -0.136496722976E+04   -0.56341E-02   -0.78504E-02  2560   0.456E-01    0.282E-01
DAV:   4    -0.136496620707E+04    0.10227E-02   -0.71997E-03  2600   0.199E-01    0.206E-01
DAV:   5    -0.136496486460E+04    0.13425E-02   -0.37990E-03  2296   0.131E-01    0.827E-02
DAV:   6    -0.136496494041E+04   -0.75809E-04   -0.30295E-03  2360   0.996E-02    0.645E-02
DAV:   7    -0.136496493656E+04    0.38506E-05   -0.97945E-04  2448   0.600E-02    0.483E-02
DAV:   8    -0.136496492548E+04    0.11078E-04   -0.37041E-04  2544   0.365E-02    0.266E-02
DAV:   9    -0.136496492085E+04    0.46338E-05   -0.95536E-05  2384   0.197E-02    0.165E-02
DAV:  10    -0.136496492232E+04   -0.14685E-05   -0.31225E-05  2424   0.112E-02    0.104E-02
DAV:  11    -0.136496492166E+04    0.65668E-06   -0.57410E-06  1384   0.717E-03
  19 F= -.13649649E+04 E0= -.13649649E+04  d E =-.270245E+00
 BRION: g(F)=  0.126E+00 g(S)=  0.000E+00 retain N=  4 mean eig= 4.14
 eig:   6.905  6.905  1.375  1.375
 bond charge predicted
       N       E                     dE             d eps       ncg     rms          rms(c)
DAV:   1    -0.136514185681E+04   -0.17693E+00   -0.23399E+01  1368   0.685E+00    0.793E-01
DAV:   2    -0.136526159585E+04   -0.11974E+00   -0.12611E+00  2296   0.267E+00    0.401E-01
DAV:   3    -0.136526871678E+04   -0.71209E-02   -0.10141E-01  2560   0.523E-01    0.325E-01
DAV:   4    -0.136526728515E+04    0.14316E-02   -0.95737E-03  2584   0.228E-01    0.235E-01
DAV:   5    -0.136526558134E+04    0.17038E-02   -0.50191E-03  2288   0.147E-01    0.944E-02
DAV:   6    -0.136526566992E+04   -0.88584E-04   -0.37792E-03  2312   0.111E-01    0.735E-02
DAV:   7    -0.136526566743E+04    0.24851E-05   -0.13586E-03  2424   0.697E-02    0.557E-02
DAV:   8    -0.136526565279E+04    0.14646E-04   -0.51754E-04  2560   0.431E-02    0.311E-02
DAV:   9    -0.136526564818E+04    0.46096E-05   -0.12832E-04  2488   0.228E-02    0.198E-02
DAV:  10    -0.136526564947E+04   -0.12882E-05   -0.38940E-05  2528   0.126E-02    0.123E-02
DAV:  11    -0.136526564915E+04    0.32026E-06   -0.11175E-05  1808   0.822E-03    0.696E-03
DAV:  12    -0.136526564926E+04   -0.10886E-06   -0.11560E-05  1760   0.708E-03    0.543E-03
DAV:  13    -0.136526564891E+04    0.35070E-06   -0.19343E-06  1000   0.477E-03
  20 F= -.13652656E+04 E0= -.13652656E+04  d E =-.300727E+00
 BRION: g(F)=  0.119E+00 g(S)=  0.000E+00 retain N=  3 mean eig= 3.79
 eig:   4.987  4.987  1.398
