 running on  160 total cores
 distrk:  each k-point on  160 cores,    1 groups
 distr:  one band on   20 cores,    8 groups
 using from now: INCAR     
 vasp.5.4.4.18Apr17-6-g9f103f2a35 (build May 01 2020 14:22:42) gamma-only       
  
 POSCAR found type information on POSCAR  O  La Zr Li Al
 POSCAR found :  5 types and     188 ions
 scaLAPACK will be used
 LDA part: xc-table for Pade appr. of Perdew
 POSCAR, INCAR and KPOINTS ok, starting setup
 FFT: planning ...
 WAVECAR not read
 WARNING: random wavefunctions but no delay for mixing, default for NELMDL
 entering main loop
       N       E                     dE             d eps       ncg     rms          rms(c)
DAV:   1     0.252440734571E+05    0.25244E+05   -0.42271E+05  1648   0.253E+03
DAV:   2     0.953017856952E+04   -0.15714E+05   -0.14444E+05  1440   0.715E+02
DAV:   3     0.275466400759E+04   -0.67755E+04   -0.61771E+04  1512   0.356E+02
DAV:   4    -0.313680346983E+03   -0.30683E+04   -0.28558E+04  2016   0.222E+02
DAV:   5    -0.138127802133E+04   -0.10676E+04   -0.10182E+04  2544   0.142E+02    0.115E+02
DAV:   6    -0.129543487724E+04    0.85843E+02   -0.15657E+03  2432   0.670E+01    0.507E+01
DAV:   7    -0.131853390903E+04   -0.23099E+02   -0.44803E+02  2552   0.351E+01    0.278E+01
DAV:   8    -0.131987160158E+04   -0.13377E+01   -0.24293E+02  2512   0.281E+01    0.223E+01
DAV:   9    -0.131807600327E+04    0.17956E+01   -0.35257E+01  2560   0.133E+01    0.754E+00
DAV:  10    -0.131855298366E+04   -0.47698E+00   -0.11993E+01  2624   0.680E+00    0.649E+00
DAV:  11    -0.131878559266E+04   -0.23261E+00   -0.52680E+00  2624   0.401E+00    0.363E+00
DAV:  12    -0.131875261104E+04    0.32982E-01   -0.16353E+00  2552   0.297E+00    0.222E+00
DAV:  13    -0.131875787050E+04   -0.52595E-02   -0.80960E-01  2544   0.160E+00    0.133E+00
DAV:  14    -0.131875663131E+04    0.12392E-02   -0.18952E-01  2616   0.913E-01    0.938E-01
DAV:  15    -0.131876145406E+04   -0.48227E-02   -0.62232E-02  2568   0.455E-01    0.586E-01
DAV:  16    -0.131876168916E+04   -0.23509E-03   -0.25254E-02  2576   0.286E-01    0.340E-01
DAV:  17    -0.131876203717E+04   -0.34801E-03   -0.14168E-02  2568   0.219E-01    0.176E-01
DAV:  18    -0.131876217570E+04   -0.13853E-03   -0.34462E-03  2568   0.119E-01    0.115E-01
DAV:  19    -0.131876218966E+04   -0.13956E-04   -0.20873E-03  2512   0.838E-02    0.641E-02
DAV:  20    -0.131876223139E+04   -0.41732E-04   -0.48897E-04  2528   0.392E-02    0.295E-02
DAV:  21    -0.131876226251E+04   -0.31118E-04   -0.22165E-04  2568   0.281E-02    0.313E-02
DAV:  22    -0.131876227058E+04   -0.80706E-05   -0.69044E-05  2360   0.147E-02    0.152E-02
DAV:  23    -0.131876226813E+04    0.24469E-05   -0.46764E-05  2168   0.120E-02    0.842E-03
DAV:  24    -0.131876227309E+04   -0.49595E-05   -0.10411E-05  1264   0.774E-03    0.290E-03
DAV:  25    -0.131876227236E+04    0.73195E-06   -0.56385E-06  1128   0.566E-03
   1 F= -.13187623E+04 E0= -.13187623E+04  d E =-.131876E+04
 BRION: g(F)=  0.744E+02 g(S)=  0.000E+00
 bond charge predicted
       N       E                     dE             d eps       ncg     rms          rms(c)
DAV:   1    -0.127784913090E+04    0.40913E+02   -0.86308E+03  1736   0.141E+02    0.300E+01
DAV:   2    -0.134504684002E+04   -0.67198E+02   -0.76886E+02  2576   0.627E+01    0.164E+01
DAV:   3    -0.134258400186E+04    0.24628E+01   -0.44172E+01  2608   0.171E+01    0.111E+01
DAV:   4    -0.133990025254E+04    0.26837E+01   -0.18026E+01  2408   0.848E+00    0.531E+00
DAV:   5    -0.133962070809E+04    0.27954E+00   -0.50572E+00  2560   0.499E+00    0.385E+00
DAV:   6    -0.133946236336E+04    0.15834E+00   -0.37909E+00  2600   0.347E+00    0.191E+00
DAV:   7    -0.133943928305E+04    0.23080E-01   -0.59505E-01  2520   0.194E+00    0.129E+00
DAV:   8    -0.133943483190E+04    0.44512E-02   -0.46864E-01  2592   0.116E+00    0.710E-01
DAV:   9    -0.133943741757E+04   -0.25857E-02   -0.76476E-02  2552   0.591E-01    0.596E-01
DAV:  10    -0.133943288980E+04    0.45278E-02   -0.41339E-02  2600   0.388E-01    0.251E-01
DAV:  11    -0.133943410633E+04   -0.12165E-02   -0.25957E-02  2544   0.282E-01    0.213E-01
DAV:  12    -0.133943397018E+04    0.13615E-03   -0.37704E-03  2568   0.134E-01    0.135E-01
DAV:  13    -0.133943376645E+04    0.20373E-03   -0.26659E-03  2352   0.910E-02    0.285E-02
DAV:  14    -0.133943382278E+04   -0.56323E-04   -0.52592E-04  2424   0.489E-02    0.164E-02
DAV:  15    -0.133943383812E+04   -0.15340E-04   -0.11862E-04  2624   0.212E-02    0.193E-02
DAV:  16    -0.133943383317E+04    0.49457E-05   -0.40584E-05  2592   0.143E-02    0.109E-02
DAV:  17    -0.133943383456E+04   -0.13878E-05   -0.37277E-05  2504   0.110E-02    0.480E-03
DAV:  18    -0.133943383441E+04    0.15278E-06   -0.24655E-06  1144   0.510E-03
   2 F= -.13394338E+04 E0= -.13394338E+04  d E =-.206716E+02
 BRION: g(F)=  0.973E+02 g(S)=  0.000E+00 retain N=  1 mean eig= 0.45
 eig:   0.453
 bond charge predicted
       N       E                     dE             d eps       ncg     rms          rms(c)
DAV:   1    -0.131987273629E+04    0.19561E+02   -0.29028E+03  1376   0.697E+01    0.214E+01
DAV:   2    -0.135364538194E+04   -0.33773E+02   -0.42929E+02  2544   0.354E+01    0.191E+01
DAV:   3    -0.134997445710E+04    0.36709E+01   -0.37487E+01  2392   0.130E+01    0.138E+01
DAV:   4    -0.134741995641E+04    0.25545E+01   -0.33061E+01  2168   0.735E+00    0.612E+00
DAV:   5    -0.134815838788E+04   -0.73843E+00   -0.82570E+00  2416   0.474E+00    0.797E+00
DAV:   6    -0.134701146142E+04    0.11469E+01   -0.85839E+00  2464   0.385E+00    0.136E+00
DAV:   7    -0.134712243206E+04   -0.11097E+00   -0.14684E+00  2352   0.263E+00    0.147E+00
DAV:   8    -0.134709881654E+04    0.23616E-01   -0.28766E-01  2568   0.101E+00    0.873E-01
DAV:   9    -0.134709335424E+04    0.54623E-02   -0.10422E-01  2520   0.576E-01    0.348E-01
DAV:  10    -0.134709379710E+04   -0.44286E-03   -0.25197E-02  2528   0.300E-01    0.190E-01
DAV:  11    -0.134709392314E+04   -0.12605E-03   -0.69511E-03  2624   0.179E-01    0.133E-01
DAV:  12    -0.134709384793E+04    0.75213E-04   -0.35871E-03  2624   0.104E-01    0.567E-02
DAV:  13    -0.134709392613E+04   -0.78203E-04   -0.99329E-04  2624   0.686E-02    0.641E-02
DAV:  14    -0.134709388964E+04    0.36494E-04   -0.33589E-04  2584   0.347E-02    0.350E-02
DAV:  15    -0.134709388208E+04    0.75589E-05   -0.19853E-04  2616   0.256E-02    0.973E-03
DAV:  16    -0.134709388476E+04   -0.26800E-05   -0.34311E-05  2568   0.124E-02    0.442E-03
DAV:  17    -0.134709388517E+04   -0.41201E-06   -0.40764E-06  1320   0.630E-03
   3 F= -.13470939E+04 E0= -.13470939E+04  d E =-.766005E+01
 BRION: g(F)=  0.264E+02 g(S)=  0.000E+00 retain N=  2 mean eig= 0.78
 eig:   0.247  1.313
 bond charge predicted
       N       E                     dE             d eps       ncg     rms          rms(c)
DAV:   1    -0.134637652521E+04    0.71736E+00   -0.69777E+02  1328   0.288E+01    0.885E+00
DAV:   2    -0.135144469721E+04   -0.50682E+01   -0.61028E+01  2424   0.140E+01    0.546E+00
DAV:   3    -0.135111890248E+04    0.32579E+00   -0.38904E+00  2432   0.440E+00    0.414E+00
DAV:   4    -0.135091323619E+04    0.20567E+00   -0.32638E+00  2168   0.242E+00    0.191E+00
DAV:   5    -0.135091438920E+04   -0.11530E-02   -0.51741E-01  2328   0.145E+00    0.185E+00
DAV:   6    -0.135086368566E+04    0.50704E-01   -0.36317E-01  2320   0.102E+00    0.663E-01
DAV:   7    -0.135086732308E+04   -0.36374E-02   -0.20169E-01  2368   0.694E-01    0.564E-01
DAV:   8    -0.135086807777E+04   -0.75470E-03   -0.43995E-02  2504   0.348E-01    0.506E-01
DAV:   9    -0.135086387667E+04    0.42011E-02   -0.18253E-02  2456   0.221E-01    0.193E-01
DAV:  10    -0.135086419969E+04   -0.32302E-03   -0.10389E-02  2520   0.143E-01    0.872E-02
DAV:  11    -0.135086415399E+04    0.45692E-04   -0.10063E-03  2600   0.705E-02    0.567E-02
DAV:  12    -0.135086414747E+04    0.65285E-05   -0.40518E-04  2432   0.323E-02    0.246E-02
DAV:  13    -0.135086415478E+04   -0.73119E-05   -0.14879E-04  2584   0.202E-02    0.175E-02
DAV:  14    -0.135086415348E+04    0.12948E-05   -0.38854E-05  2464   0.125E-02    0.138E-02
DAV:  15    -0.135086415280E+04    0.68652E-06   -0.23520E-05  2064   0.824E-03    0.760E-03
DAV:  16    -0.135086415196E+04    0.83324E-06   -0.38979E-06  1200   0.544E-03
   4 F= -.13508642E+04 E0= -.13508642E+04  d E =-.377027E+01
 BRION: g(F)=  0.724E+01 g(S)=  0.000E+00 retain N=  3 mean eig= 1.87
 eig:   4.856  0.379  0.379
 bond charge predicted
       N       E                     dE             d eps       ncg     rms          rms(c)
DAV:   1    -0.135207301349E+04   -0.12089E+01   -0.32738E+02  1360   0.243E+01    0.489E+00
DAV:   2    -0.135372479141E+04   -0.16518E+01   -0.17992E+01  2288   0.907E+00    0.236E+00
DAV:   3    -0.135374182651E+04   -0.17035E-01   -0.12574E+00  2600   0.205E+00    0.195E+00
DAV:   4    -0.135368638842E+04    0.55438E-01   -0.34616E-01  2504   0.115E+00    0.913E-01
DAV:   5    -0.135368202619E+04    0.43622E-02   -0.10670E-01  2472   0.692E-01    0.573E-01
DAV:   6    -0.135368119955E+04    0.82664E-03   -0.70876E-02  2592   0.473E-01    0.316E-01
DAV:   7    -0.135368081243E+04    0.38712E-03   -0.15213E-02  2488   0.246E-01    0.239E-01
DAV:   8    -0.135368055803E+04    0.25439E-03   -0.61025E-03  2568   0.136E-01    0.120E-01
DAV:   9    -0.135368046800E+04    0.90034E-04   -0.21199E-03  2616   0.855E-02    0.634E-02
DAV:  10    -0.135368051760E+04   -0.49596E-04   -0.83171E-04  2272   0.533E-02    0.640E-02
DAV:  11    -0.135368047119E+04    0.46404E-04   -0.38247E-04  2552   0.359E-02    0.250E-02
DAV:  12    -0.135368047751E+04   -0.63138E-05   -0.19224E-04  2552   0.243E-02    0.180E-02
DAV:  13    -0.135368047813E+04   -0.62080E-06   -0.39035E-05  2480   0.130E-02    0.127E-02
DAV:  14    -0.135368047654E+04    0.15823E-05   -0.16168E-05  1864   0.724E-03    0.598E-03
DAV:  15    -0.135368047655E+04   -0.10783E-07   -0.53935E-06  1344   0.550E-03
   5 F= -.13536805E+04 E0= -.13536805E+04  d E =-.281632E+01
 BRION: g(F)=  0.316E+01 g(S)=  0.000E+00 retain N=  4 mean eig= 1.65
 eig:   5.662  0.422  0.422  0.112
 bond charge predicted
       N       E                     dE             d eps       ncg     rms          rms(c)
DAV:   1    -0.135445386375E+04   -0.77339E+00   -0.15042E+02  1376   0.163E+01    0.257E+00
DAV:   2    -0.135515261236E+04   -0.69875E+00   -0.75063E+00  2288   0.603E+00    0.133E+00
DAV:   3    -0.135516317113E+04   -0.10559E-01   -0.49217E-01  2624   0.124E+00    0.110E+00
DAV:   4    -0.135513753928E+04    0.25632E-01   -0.11659E-01  2528   0.683E-01    0.528E-01
DAV:   5    -0.135513434404E+04    0.31952E-02   -0.46244E-02  2456   0.420E-01    0.336E-01
DAV:   6    -0.135513405719E+04    0.28684E-03   -0.28544E-02  2544   0.307E-01    0.173E-01
DAV:   7    -0.135513408818E+04   -0.30989E-04   -0.69110E-03  2368   0.159E-01    0.145E-01
DAV:   8    -0.135513400290E+04    0.85278E-04   -0.21883E-03  2392   0.804E-02    0.715E-02
DAV:   9    -0.135513399010E+04    0.12808E-04   -0.10600E-03  2496   0.545E-02    0.475E-02
DAV:  10    -0.135513400419E+04   -0.14090E-04   -0.32968E-04  2384   0.363E-02    0.443E-02
DAV:  11    -0.135513398175E+04    0.22434E-04   -0.21020E-04  2368   0.260E-02    0.172E-02
DAV:  12    -0.135513398567E+04   -0.39173E-05   -0.11425E-04  2256   0.188E-02    0.123E-02
DAV:  13    -0.135513398457E+04    0.10967E-05   -0.19403E-05  1920   0.103E-02    0.833E-03
DAV:  14    -0.135513398448E+04    0.91895E-07   -0.14873E-05  1664   0.678E-03    0.367E-03
DAV:  15    -0.135513398438E+04    0.10326E-06   -0.15882E-06  1024   0.476E-03
   6 F= -.13551340E+04 E0= -.13551340E+04  d E =-.145351E+01
 BRION: g(F)=  0.186E+01 g(S)=  0.000E+00 retain N=  5 mean eig= 1.67
 eig:   3.702  2.852  0.648  0.648  0.480
 bond charge predicted
       N       E                     dE             d eps       ncg     rms          rms(c)
DAV:   1    -0.135524802610E+04   -0.11404E+00   -0.31076E+02  1360   0.238E+01    0.343E+00
DAV:   2    -0.135676195742E+04   -0.15139E+01   -0.15838E+01  2280   0.868E+00    0.174E+00
DAV:   3    -0.135680432679E+04   -0.42369E-01   -0.10485E+00  2624   0.180E+00    0.142E+00
DAV:   4    -0.135676287425E+04    0.41453E-01   -0.18748E-01  2528   0.908E-01    0.759E-01
DAV:   5    -0.135675210441E+04    0.10770E-01   -0.73755E-02  2472   0.532E-01    0.366E-01
DAV:   6    -0.135675274552E+04   -0.64110E-03   -0.29843E-02  2584   0.318E-01    0.202E-01
DAV:   7    -0.135675257584E+04    0.16967E-03   -0.80203E-03  2416   0.185E-01    0.133E-01
DAV:   8    -0.135675272321E+04   -0.14737E-03   -0.39157E-03  2448   0.101E-01    0.818E-02
DAV:   9    -0.135675265615E+04    0.67063E-04   -0.71086E-04  2576   0.571E-02    0.539E-02
DAV:  10    -0.135675265605E+04    0.92885E-07   -0.73541E-04  2440   0.478E-02    0.331E-02
DAV:  11    -0.135675265250E+04    0.35558E-05   -0.20706E-04  2496   0.305E-02    0.152E-02
DAV:  12    -0.135675265767E+04   -0.51711E-05   -0.77391E-05  2472   0.162E-02    0.101E-02
DAV:  13    -0.135675265766E+04    0.73633E-08   -0.15359E-05  2152   0.905E-03    0.641E-03
DAV:  14    -0.135675265768E+04   -0.20824E-07   -0.72890E-06  1568   0.589E-03
   7 F= -.13567527E+04 E0= -.13567527E+04  d E =-.161867E+01
 BRION: g(F)=  0.102E+01 g(S)=  0.000E+00 retain N=  6 mean eig= 1.47
 eig:   3.787  2.039  0.952  0.952  0.544  0.544
 bond charge predicted
       N       E                     dE             d eps       ncg     rms          rms(c)
DAV:   1    -0.135703299182E+04   -0.28033E+00   -0.10455E+02  1376   0.142E+01    0.184E+00
DAV:   2    -0.135755738359E+04   -0.52439E+00   -0.55170E+00  2280   0.530E+00    0.964E-01
DAV:   3    -0.135758031387E+04   -0.22930E-01   -0.40561E-01  2616   0.107E+00    0.783E-01
DAV:   4    -0.135756964855E+04    0.10665E-01   -0.49217E-02  2576   0.516E-01    0.490E-01
DAV:   5    -0.135756373954E+04    0.59090E-02   -0.25075E-02  2328   0.326E-01    0.194E-01
DAV:   6    -0.135756443372E+04   -0.69418E-03   -0.14854E-02  2456   0.229E-01    0.168E-01
DAV:   7    -0.135756433369E+04    0.10003E-03   -0.50912E-03  2464   0.137E-01    0.120E-01
DAV:   8    -0.135756430331E+04    0.30385E-04   -0.22200E-03  2584   0.826E-02    0.627E-02
DAV:   9    -0.135756426320E+04    0.40109E-04   -0.42319E-04  2480   0.440E-02    0.435E-02
DAV:  10    -0.135756426713E+04   -0.39344E-05   -0.29566E-04  2432   0.310E-02    0.274E-02
DAV:  11    -0.135756426167E+04    0.54667E-05   -0.95657E-05  2456   0.224E-02    0.118E-02
DAV:  12    -0.135756426646E+04   -0.47918E-05   -0.57463E-05  2336   0.139E-02    0.148E-02
DAV:  13    -0.135756426330E+04    0.31547E-05   -0.22068E-05  2064   0.945E-03    0.610E-03
DAV:  14    -0.135756426333E+04   -0.22861E-07   -0.47149E-06  1248   0.560E-03
   8 F= -.13575643E+04 E0= -.13575643E+04  d E =-.811606E+00
 BRION: g(F)=  0.666E+00 g(S)=  0.000E+00 retain N=  6 mean eig= 1.16
 eig:   2.423  2.423  0.497  0.254  0.671  0.671
 bond charge predicted
       N       E                     dE             d eps       ncg     rms          rms(c)
DAV:   1    -0.135787366671E+04   -0.30940E+00   -0.68945E+01  1384   0.117E+01    0.159E+00
DAV:   2    -0.135822530443E+04   -0.35164E+00   -0.37352E+00  2288   0.450E+00    0.794E-01
DAV:   3    -0.135824397083E+04   -0.18666E-01   -0.29248E-01  2616   0.898E-01    0.649E-01
DAV:   4    -0.135823784116E+04    0.61297E-02   -0.33225E-02  2576   0.434E-01    0.406E-01
DAV:   5    -0.135823508848E+04    0.27527E-02   -0.19355E-02  2344   0.264E-01    0.161E-01
DAV:   6    -0.135823565554E+04   -0.56706E-03   -0.77201E-03  2528   0.166E-01    0.140E-01
DAV:   7    -0.135823556220E+04    0.93343E-04   -0.32946E-03  2608   0.108E-01    0.845E-02
DAV:   8    -0.135823552188E+04    0.40311E-04   -0.85700E-04  2576   0.604E-02    0.468E-02
DAV:   9    -0.135823551683E+04    0.50553E-05   -0.21112E-04  2592   0.300E-02    0.294E-02
DAV:  10    -0.135823552587E+04   -0.90411E-05   -0.10377E-04  2432   0.191E-02    0.172E-02
DAV:  11    -0.135823552339E+04    0.24817E-05   -0.30195E-05  2352   0.126E-02    0.776E-03
DAV:  12    -0.135823552460E+04   -0.12130E-05   -0.16557E-05  2008   0.819E-03    0.745E-03
DAV:  13    -0.135823552381E+04    0.79101E-06   -0.18273E-06  1024   0.531E-03
   9 F= -.13582355E+04 E0= -.13582355E+04  d E =-.671260E+00
 BRION: g(F)=  0.443E+00 g(S)=  0.000E+00 retain N=  7 mean eig= 1.34
 eig:   3.474  3.474  0.617  0.617  0.283  0.193  0.701
 bond charge predicted
       N       E                     dE             d eps       ncg     rms          rms(c)
DAV:   1    -0.135846423631E+04   -0.22871E+00   -0.91726E+01  1368   0.137E+01    0.169E+00
DAV:   2    -0.135893381700E+04   -0.46958E+00   -0.49648E+00  2280   0.520E+00    0.858E-01
DAV:   3    -0.135896220035E+04   -0.28383E-01   -0.40599E-01  2608   0.109E+00    0.705E-01
DAV:   4    -0.135895580869E+04    0.63917E-02   -0.41009E-02  2608   0.487E-01    0.483E-01
DAV:   5    -0.135895063091E+04    0.51778E-02   -0.21798E-02  2344   0.306E-01    0.194E-01
DAV:   6    -0.135895133871E+04   -0.70780E-03   -0.13883E-02  2448   0.223E-01    0.168E-01
DAV:   7    -0.135895123430E+04    0.10441E-03   -0.54234E-03  2448   0.140E-01    0.118E-01
DAV:   8    -0.135895119236E+04    0.41944E-04   -0.22741E-03  2600   0.883E-02    0.621E-02
DAV:   9    -0.135895115726E+04    0.35093E-04   -0.43430E-04  2408   0.448E-02    0.421E-02
DAV:  10    -0.135895116278E+04   -0.55190E-05   -0.25234E-04  2440   0.289E-02    0.235E-02
DAV:  11    -0.135895116195E+04    0.83339E-06   -0.78800E-05  2448   0.198E-02    0.120E-02
DAV:  12    -0.135895116475E+04   -0.28009E-05   -0.37788E-05  2344   0.128E-02    0.141E-02
DAV:  13    -0.135895116212E+04    0.26342E-05   -0.21767E-05  1880   0.899E-03    0.603E-03
DAV:  14    -0.135895116220E+04   -0.82990E-07   -0.73967E-06  1592   0.617E-03
  10 F= -.13589512E+04 E0= -.13589512E+04  d E =-.715638E+00
 BRION: g(F)=  0.301E+00 g(S)=  0.000E+00 retain N=  8 mean eig= 1.62
 eig:   4.003  4.003  1.446  1.446  0.358  0.751  0.751  0.222
 bond charge predicted
       N       E                     dE             d eps       ncg     rms          rms(c)
DAV:   1    -0.135915017117E+04   -0.19901E+00   -0.68123E+01  1376   0.117E+01    0.140E+00
DAV:   2    -0.135950192140E+04   -0.35175E+00   -0.37297E+00  2296   0.447E+00    0.725E-01
DAV:   3    -0.135952374507E+04   -0.21824E-01   -0.30801E-01  2584   0.919E-01    0.595E-01
DAV:   4    -0.135951944313E+04    0.43019E-02   -0.31127E-02  2584   0.417E-01    0.412E-01
DAV:   5    -0.135951562346E+04    0.38197E-02   -0.14407E-02  2352   0.253E-01    0.171E-01
DAV:   6    -0.135951588005E+04   -0.25659E-03   -0.10033E-02  2408   0.193E-01    0.128E-01
DAV:   7    -0.135951592155E+04   -0.41502E-04   -0.43334E-03  2432   0.124E-01    0.995E-02
DAV:   8    -0.135951588753E+04    0.34028E-04   -0.15903E-03  2616   0.758E-02    0.538E-02
DAV:   9    -0.135951586488E+04    0.22644E-04   -0.38476E-04  2496   0.399E-02    0.353E-02
DAV:  10    -0.135951587016E+04   -0.52812E-05   -0.16295E-04  2496   0.242E-02    0.219E-02
DAV:  11    -0.135951587007E+04    0.91342E-07   -0.60298E-05  2408   0.167E-02    0.123E-02
DAV:  12    -0.135951587057E+04   -0.49622E-06   -0.29230E-05  2312   0.118E-02    0.119E-02
DAV:  13    -0.135951586909E+04    0.14815E-05   -0.18833E-05  1904   0.815E-03    0.546E-03
DAV:  14    -0.135951586900E+04    0.85711E-07   -0.47138E-06  1360   0.558E-03
  11 F= -.13595159E+04 E0= -.13595159E+04  d E =-.564707E+00
 BRION: g(F)=  0.214E+00 g(S)=  0.000E+00 retain N=  9 mean eig= 2.12
 eig:   4.145  4.145  3.689  3.689  0.539  0.926  0.926  0.327  0.679
 bond charge predicted
       N       E                     dE             d eps       ncg     rms          rms(c)
DAV:   1    -0.135970958398E+04   -0.19371E+00   -0.37594E+01  1384   0.877E+00    0.103E+00
DAV:   2    -0.135990336311E+04   -0.19378E+00   -0.20561E+00  2296   0.335E+00    0.535E-01
DAV:   3    -0.135991554756E+04   -0.12184E-01   -0.17171E-01  2592   0.692E-01    0.439E-01
DAV:   4    -0.135991315700E+04    0.23906E-02   -0.17346E-02  2592   0.312E-01    0.302E-01
DAV:   5    -0.135991112703E+04    0.20300E-02   -0.80313E-03  2392   0.179E-01    0.128E-01
DAV:   6    -0.135991124258E+04   -0.11555E-03   -0.50304E-03  2408   0.135E-01    0.915E-02
DAV:   7    -0.135991125506E+04   -0.12475E-04   -0.22824E-03  2440   0.903E-02    0.699E-02
DAV:   8    -0.135991124584E+04    0.92175E-05   -0.89434E-04  2592   0.564E-02    0.415E-02
DAV:   9    -0.135991123473E+04    0.11109E-04   -0.19228E-04  2528   0.289E-02    0.285E-02
DAV:  10    -0.135991123586E+04   -0.11282E-05   -0.89338E-05  2560   0.173E-02    0.166E-02
DAV:  11    -0.135991123652E+04   -0.65446E-06   -0.32779E-05  2336   0.121E-02    0.104E-02
DAV:  12    -0.135991123570E+04    0.81830E-06   -0.14596E-05  1960   0.904E-03    0.804E-03
DAV:  13    -0.135991123541E+04    0.28640E-06   -0.11462E-05  1776   0.638E-03    0.402E-03
DAV:  14    -0.135991123527E+04    0.13720E-06   -0.16820E-06   968   0.430E-03
  12 F= -.13599112E+04 E0= -.13599112E+04  d E =-.395366E+00
 BRION: g(F)=  0.182E+00 g(S)=  0.000E+00 retain N= 10 mean eig= 2.52
 eig:   5.486  5.486  4.151  4.151  1.782  1.782  0.609  0.390  0.575  0.785
 bond charge predicted
       N       E                     dE             d eps       ncg     rms          rms(c)
DAV:   1    -0.136009762893E+04   -0.18639E+00   -0.30125E+01  1384   0.781E+00    0.903E-01
DAV:   2    -0.136025081390E+04   -0.15318E+00   -0.16147E+00  2288   0.299E+00    0.455E-01
DAV:   3    -0.136026034980E+04   -0.95359E-02   -0.13112E-01  2584   0.607E-01    0.372E-01
DAV:   4    -0.136025863531E+04    0.17145E-02   -0.12483E-02  2592   0.265E-01    0.263E-01
DAV:   5    -0.136025691060E+04    0.17247E-02   -0.60037E-03  2360   0.155E-01    0.107E-01
DAV:   6    -0.136025702751E+04   -0.11691E-03   -0.39972E-03  2440   0.116E-01    0.766E-02
DAV:   7    -0.136025703108E+04   -0.35773E-05   -0.16275E-03  2432   0.759E-02    0.569E-02
DAV:   8    -0.136025702513E+04    0.59589E-05   -0.61278E-04  2568   0.473E-02    0.335E-02
DAV:   9    -0.136025702011E+04    0.50145E-05   -0.12731E-04  2512   0.239E-02    0.237E-02
DAV:  10    -0.136025702015E+04   -0.36438E-07   -0.47109E-05  2536   0.130E-02    0.131E-02
DAV:  11    -0.136025702092E+04   -0.76817E-06   -0.17635E-05  2184   0.903E-03    0.768E-03
DAV:  12    -0.136025702062E+04    0.29943E-06   -0.84784E-06  1720   0.696E-03
  13 F= -.13602570E+04 E0= -.13602570E+04  d E =-.345785E+00
 BRION: g(F)=  0.165E+00 g(S)=  0.000E+00 retain N= 11 mean eig= 2.74
 eig:   6.583  6.583  4.157  4.157  2.588  2.588  0.585  0.892  0.892  0.343
 bond charge predicted
       N       E                     dE             d eps       ncg     rms          rms(c)
DAV:   1    -0.136044816594E+04   -0.19115E+00   -0.25076E+01  1384   0.714E+00    0.829E-01
DAV:   2    -0.136057760491E+04   -0.12944E+00   -0.13640E+00  2288   0.274E+00    0.413E-01
DAV:   3    -0.136058586672E+04   -0.82618E-02   -0.11153E-01  2592   0.557E-01    0.336E-01
DAV:   4    -0.136058450395E+04    0.13628E-02   -0.10661E-02  2600   0.246E-01    0.237E-01
DAV:   5    -0.136058315272E+04    0.13512E-02   -0.47975E-03  2368   0.139E-01    0.978E-02
DAV:   6    -0.136058322220E+04   -0.69476E-04   -0.31612E-03  2400   0.105E-01    0.656E-02
DAV:   7    -0.136058324498E+04   -0.22789E-04   -0.13748E-03  2472   0.689E-02    0.512E-02
DAV:   8    -0.136058323807E+04    0.69172E-05   -0.45657E-04  2584   0.423E-02    0.305E-02
DAV:   9    -0.136058323415E+04    0.39135E-05   -0.10750E-04  2488   0.214E-02    0.210E-02
DAV:  10    -0.136058323489E+04   -0.73318E-06   -0.42511E-05  2528   0.124E-02    0.121E-02
DAV:  11    -0.136058323517E+04   -0.28255E-06   -0.13363E-05  1896   0.853E-03    0.713E-03
DAV:  12    -0.136058323510E+04    0.69995E-07   -0.94715E-06  1648   0.704E-03
  14 F= -.13605832E+04 E0= -.13605832E+04  d E =-.326214E+00
 BRION: g(F)=  0.156E+00 g(S)=  0.000E+00 retain N= 12 mean eig= 3.19
 eig:   7.970  7.970  4.277  4.277  4.532  4.532  0.575  0.936  0.936  0.325
 bond charge predicted
       N       E                     dE             d eps       ncg     rms          rms(c)
DAV:   1    -0.136078384135E+04   -0.20061E+00   -0.26837E+01  1384   0.739E+00    0.857E-01
DAV:   2    -0.136092300327E+04   -0.13916E+00   -0.14676E+00  2296   0.287E+00    0.425E-01
DAV:   3    -0.136093195387E+04   -0.89506E-02   -0.12023E-01  2584   0.579E-01    0.345E-01
DAV:   4    -0.136093053500E+04    0.14189E-02   -0.11567E-02  2592   0.254E-01    0.244E-01
DAV:   5    -0.136092915617E+04    0.13788E-02   -0.50065E-03  2392   0.141E-01    0.101E-01
DAV:   6    -0.136092921123E+04   -0.55061E-04   -0.31385E-03  2416   0.104E-01    0.642E-02
DAV:   7    -0.136092924650E+04   -0.35278E-04   -0.14267E-03  2456   0.703E-02    0.508E-02
DAV:   8    -0.136092924015E+04    0.63591E-05   -0.43510E-04  2600   0.423E-02    0.319E-02
DAV:   9    -0.136092923600E+04    0.41428E-05   -0.11278E-04  2520   0.218E-02    0.214E-02
DAV:  10    -0.136092923724E+04   -0.12336E-05   -0.41583E-05  2568   0.124E-02    0.123E-02
DAV:  11    -0.136092923745E+04   -0.21129E-06   -0.11230E-05  1784   0.823E-03    0.717E-03
DAV:  12    -0.136092923768E+04   -0.23229E-06   -0.12658E-05  1704   0.731E-03    0.607E-03
DAV:  13    -0.136092923714E+04    0.54431E-06   -0.20169E-06   992   0.527E-03
  15 F= -.13609292E+04 E0= -.13609292E+04  d E =-.346002E+00
 BRION: g(F)=  0.150E+00 g(S)=  0.000E+00 retain N=  9 mean eig= 3.35
 eig:   7.295  7.295  4.389  4.389  1.767  1.767  1.036  1.036  1.189
 bond charge predicted
       N       E                     dE             d eps       ncg     rms          rms(c)
DAV:   1    -0.136111634449E+04   -0.18711E+00   -0.22557E+01  1376   0.680E+00    0.785E-01
DAV:   2    -0.136123353687E+04   -0.11719E+00   -0.12341E+00  2288   0.264E+00    0.390E-01
DAV:   3    -0.136124100782E+04   -0.74710E-02   -0.10040E-01  2592   0.530E-01    0.313E-01
DAV:   4    -0.136123976784E+04    0.12400E-02   -0.93942E-03  2616   0.231E-01    0.222E-01
DAV:   5    -0.136123853716E+04    0.12307E-02   -0.40450E-03  2376   0.129E-01    0.918E-02
DAV:   6    -0.136123856967E+04   -0.32506E-04   -0.27630E-03  2392   0.973E-02    0.583E-02
DAV:   7    -0.136123860206E+04   -0.32394E-04   -0.12045E-03  2440   0.648E-02    0.474E-02
DAV:   8    -0.136123859368E+04    0.83846E-05   -0.35515E-04  2616   0.381E-02    0.288E-02
DAV:   9    -0.136123859005E+04    0.36224E-05   -0.10418E-04  2552   0.204E-02    0.183E-02
DAV:  10    -0.136123859159E+04   -0.15365E-05   -0.37271E-05  2560   0.119E-02    0.115E-02
DAV:  11    -0.136123859122E+04    0.37183E-06   -0.10347E-05  1672   0.797E-03    0.662E-03
DAV:  12    -0.136123859150E+04   -0.28212E-06   -0.12001E-05  1688   0.731E-03    0.589E-03
DAV:  13    -0.136123859097E+04    0.53496E-06   -0.17873E-06   984   0.489E-03
  16 F= -.13612386E+04 E0= -.13612386E+04  d E =-.309354E+00
 BRION: g(F)=  0.143E+00 g(S)=  0.000E+00 retain N=  8 mean eig= 3.34
 eig:   6.870  6.870  2.799  2.799  2.635  1.628  1.574  1.574
 bond charge predicted
       N       E                     dE             d eps       ncg     rms          rms(c)
DAV:   1    -0.136142887108E+04   -0.19028E+00   -0.40353E+01  1376   0.905E+00    0.105E+00
DAV:   2    -0.136163993462E+04   -0.21106E+00   -0.22270E+00  2288   0.353E+00    0.522E-01
DAV:   3    -0.136165345219E+04   -0.13518E-01   -0.18234E-01  2576   0.714E-01    0.422E-01
DAV:   4    -0.136165135350E+04    0.20987E-02   -0.17498E-02  2592   0.313E-01    0.302E-01
DAV:   5    -0.136164911899E+04    0.22345E-02   -0.72258E-03  2416   0.173E-01    0.130E-01
DAV:   6    -0.136164909894E+04    0.20050E-04   -0.52200E-03  2352   0.135E-01    0.783E-02
DAV:   7    -0.136164917746E+04   -0.78516E-04   -0.24132E-03  2472   0.915E-02    0.683E-02
DAV:   8    -0.136164915865E+04    0.18812E-04   -0.69669E-04  2608   0.533E-02    0.422E-02
DAV:   9    -0.136164914944E+04    0.92127E-05   -0.23134E-04  2552   0.295E-02    0.257E-02
DAV:  10    -0.136164915343E+04   -0.39902E-05   -0.73558E-05  2576   0.170E-02    0.177E-02
DAV:  11    -0.136164915287E+04    0.55859E-06   -0.27590E-05  2360   0.111E-02    0.103E-02
DAV:  12    -0.136164915218E+04    0.68494E-06   -0.19018E-05  2088   0.921E-03    0.729E-03
DAV:  13    -0.136164915206E+04    0.12080E-06   -0.93587E-06  1760   0.621E-03
  17 F= -.13616492E+04 E0= -.13616492E+04  d E =-.410561E+00
 BRION: g(F)=  0.131E+00 g(S)=  0.000E+00 retain N=  7 mean eig= 4.04
 eig:   7.684  7.684  3.388  2.742  2.742  2.293  1.717
 bond charge predicted
       N       E                     dE             d eps       ncg     rms          rms(c)
DAV:   1    -0.136180470598E+04   -0.15555E+00   -0.50511E+01  1368   0.102E+01    0.118E+00
DAV:   2    -0.136207024662E+04   -0.26554E+00   -0.28054E+00  2288   0.395E+00    0.588E-01
DAV:   3    -0.136208696711E+04   -0.16720E-01   -0.22947E-01  2584   0.794E-01    0.472E-01
DAV:   4    -0.136208408398E+04    0.28831E-02   -0.21732E-02  2592   0.355E-01    0.337E-01
DAV:   5    -0.136208122346E+04    0.28605E-02   -0.90980E-03  2424   0.192E-01    0.149E-01
DAV:   6    -0.136208107751E+04    0.14595E-03   -0.63726E-03  2288   0.151E-01    0.866E-02
DAV:   7    -0.136208122205E+04   -0.14454E-03   -0.35091E-03  2448   0.106E-01    0.816E-02
DAV:   8    -0.136208118656E+04    0.35496E-04   -0.86298E-04  2608   0.612E-02    0.535E-02
DAV:   9    -0.136208116588E+04    0.20682E-04   -0.39746E-04  2576   0.366E-02    0.288E-02
DAV:  10    -0.136208117330E+04   -0.74228E-05   -0.11246E-04  2560   0.215E-02    0.218E-02
DAV:  11    -0.136208117197E+04    0.13264E-05   -0.37126E-05  2472   0.128E-02    0.128E-02
DAV:  12    -0.136208117040E+04    0.15716E-05   -0.36269E-05  2112   0.118E-02    0.864E-03
DAV:  13    -0.136208117049E+04   -0.93540E-07   -0.13992E-05  1832   0.766E-03    0.641E-03
DAV:  14    -0.136208117012E+04    0.37244E-06   -0.48795E-06  1408   0.512E-03
  18 F= -.13620812E+04 E0= -.13620812E+04  d E =-.432018E+00
 BRION: g(F)=  0.117E+00 g(S)=  0.000E+00 retain N=  3 mean eig= 5.99
 eig:   7.963  7.963  2.055
 bond charge predicted
       N       E                     dE             d eps       ncg     rms          rms(c)
DAV:   1    -0.136216571307E+04   -0.84543E-01   -0.70927E+01  1368   0.120E+01    0.139E+00
DAV:   2    -0.136253719362E+04   -0.37148E+00   -0.39281E+00  2288   0.463E+00    0.707E-01
DAV:   3    -0.136255919029E+04   -0.21997E-01   -0.31416E-01  2576   0.961E-01    0.563E-01
DAV:   4    -0.136255483898E+04    0.43513E-02   -0.32442E-02  2576   0.422E-01    0.390E-01
DAV:   5    -0.136255110208E+04    0.37369E-02   -0.12285E-02  2440   0.227E-01    0.177E-01
DAV:   6    -0.136255082881E+04    0.27327E-03   -0.83899E-03  2288   0.175E-01    0.940E-02
DAV:   7    -0.136255102663E+04   -0.19782E-03   -0.42797E-03  2456   0.120E-01    0.907E-02
DAV:   8    -0.136255099107E+04    0.35560E-04   -0.10912E-03  2624   0.674E-02    0.596E-02
DAV:   9    -0.136255097008E+04    0.20992E-04   -0.50796E-04  2576   0.420E-02    0.331E-02
DAV:  10    -0.136255097911E+04   -0.90287E-05   -0.14893E-04  2520   0.249E-02    0.255E-02
DAV:  11    -0.136255097481E+04    0.42992E-05   -0.55274E-05  2520   0.150E-02    0.120E-02
DAV:  12    -0.136255097404E+04    0.76897E-06   -0.41593E-05  2024   0.125E-02    0.791E-03
DAV:  13    -0.136255097438E+04   -0.33413E-06   -0.13894E-05  1840   0.789E-03    0.639E-03
DAV:  14    -0.136255097405E+04    0.32992E-06   -0.54141E-06  1432   0.525E-03
  19 F= -.13625510E+04 E0= -.13625510E+04  d E =-.469804E+00
 BRION: g(F)=  0.989E-01 g(S)=  0.000E+00 retain N=  2 mean eig= 5.46
 eig:   5.456  5.456
 bond charge predicted
       N       E                     dE             d eps       ncg     rms          rms(c)
DAV:   1    -0.136265396696E+04   -0.10299E+00   -0.31577E+01  1368   0.800E+00    0.942E-01
DAV:   2    -0.136281876248E+04   -0.16480E+00   -0.17445E+00  2288   0.308E+00    0.476E-01
DAV:   3    -0.136282844384E+04   -0.96814E-02   -0.14146E-01  2584   0.627E-01    0.379E-01
DAV:   4    -0.136282630088E+04    0.21430E-02   -0.14075E-02  2576   0.284E-01    0.265E-01
DAV:   5    -0.136282442741E+04    0.18735E-02   -0.60176E-03  2400   0.157E-01    0.118E-01
DAV:   6    -0.136282429450E+04    0.13292E-03   -0.41737E-03  2296   0.126E-01    0.703E-02
DAV:   7    -0.136282438752E+04   -0.93020E-04   -0.22814E-03  2456   0.862E-02    0.666E-02
DAV:   8    -0.136282436914E+04    0.18373E-04   -0.56551E-04  2616   0.478E-02    0.451E-02
DAV:   9    -0.136282435142E+04    0.17720E-04   -0.28310E-04  2536   0.309E-02    0.239E-02
DAV:  10    -0.136282435706E+04   -0.56413E-05   -0.96869E-05  2496   0.196E-02    0.191E-02
DAV:  11    -0.136282435494E+04    0.21280E-05   -0.31062E-05  2304   0.115E-02    0.992E-03
DAV:  12    -0.136282435426E+04    0.67658E-06   -0.26933E-05  1928   0.104E-02    0.747E-03
DAV:  13    -0.136282435427E+04   -0.13315E-07   -0.10355E-05  1760   0.667E-03    0.579E-03
DAV:  14    -0.136282435390E+04    0.37593E-06   -0.39356E-06  1272   0.497E-03
  20 F= -.13628244E+04 E0= -.13628244E+04  d E =-.273380E+00
 BRION: g(F)=  0.854E-01 g(S)=  0.000E+00 retain N=  2 mean eig= 4.28
 eig:   4.279  4.279
