 running on  160 total cores
 distrk:  each k-point on  160 cores,    1 groups
 distr:  one band on   20 cores,    8 groups
 using from now: INCAR     
 vasp.5.4.4.18Apr17-6-g9f103f2a35 (build May 01 2020 14:22:42) gamma-only       
  
 POSCAR found type information on POSCAR  O  La Zr Li Al
 POSCAR found :  5 types and     188 ions
 scaLAPACK will be used
 LDA part: xc-table for Pade appr. of Perdew
 POSCAR, INCAR and KPOINTS ok, starting setup
 FFT: planning ...
 WAVECAR not read
 WARNING: random wavefunctions but no delay for mixing, default for NELMDL
 entering main loop
       N       E                     dE             d eps       ncg     rms          rms(c)
DAV:   1     0.252787928393E+05    0.25279E+05   -0.42235E+05  1624   0.253E+03
DAV:   2     0.943540990078E+04   -0.15843E+05   -0.14589E+05  1432   0.707E+02
DAV:   3     0.273139283222E+04   -0.67040E+04   -0.61006E+04  1480   0.356E+02
DAV:   4    -0.337336566640E+03   -0.30687E+04   -0.28614E+04  2032   0.222E+02
DAV:   5    -0.139640971588E+04   -0.10591E+04   -0.10189E+04  2536   0.143E+02    0.116E+02
DAV:   6    -0.129895358701E+04    0.97456E+02   -0.15142E+03  2448   0.660E+01    0.502E+01
DAV:   7    -0.132161671013E+04   -0.22663E+02   -0.40828E+02  2568   0.345E+01    0.262E+01
DAV:   8    -0.132977173976E+04   -0.81550E+01   -0.28868E+02  2480   0.287E+01    0.268E+01
DAV:   9    -0.132241705296E+04    0.73547E+01   -0.55469E+01  2496   0.153E+01    0.825E+00
DAV:  10    -0.132322744970E+04   -0.81040E+00   -0.15462E+01  2624   0.801E+00    0.724E+00
DAV:  11    -0.132347371302E+04   -0.24626E+00   -0.66468E+00  2624   0.445E+00    0.415E+00
DAV:  12    -0.132336102292E+04    0.11269E+00   -0.21885E+00  2584   0.346E+00    0.264E+00
DAV:  13    -0.132339751375E+04   -0.36491E-01   -0.76955E-01  2576   0.167E+00    0.149E+00
DAV:  14    -0.132339569739E+04    0.18164E-02   -0.22992E-01  2624   0.980E-01    0.104E+00
DAV:  15    -0.132340163894E+04   -0.59415E-02   -0.72952E-02  2552   0.536E-01    0.785E-01
DAV:  16    -0.132340151486E+04    0.12407E-03   -0.24793E-02  2616   0.296E-01    0.474E-01
DAV:  17    -0.132340032911E+04    0.11858E-02   -0.17919E-02  2424   0.257E-01    0.239E-01
DAV:  18    -0.132340065233E+04   -0.32322E-03   -0.37635E-03  2504   0.126E-01    0.837E-02
DAV:  19    -0.132340072032E+04   -0.67987E-04   -0.12384E-03  2600   0.704E-02    0.728E-02
DAV:  20    -0.132340076002E+04   -0.39703E-04   -0.36371E-04  2624   0.362E-02    0.150E-02
DAV:  21    -0.132340076814E+04   -0.81117E-05   -0.13351E-04  2592   0.211E-02    0.255E-02
DAV:  22    -0.132340078484E+04   -0.16706E-04   -0.50135E-05  2360   0.143E-02    0.102E-02
DAV:  23    -0.132340078126E+04    0.35852E-05   -0.18746E-05  1456   0.852E-03    0.917E-03
DAV:  24    -0.132340078642E+04   -0.51669E-05   -0.12608E-05  1704   0.746E-03    0.327E-03
DAV:  25    -0.132340078518E+04    0.12439E-05   -0.28596E-06  1016   0.413E-03    0.237E-03
DAV:  26    -0.132340078640E+04   -0.12182E-05   -0.14576E-06  1008   0.419E-03    0.128E-03
DAV:  27    -0.132340078659E+04   -0.19647E-06   -0.64736E-07   944   0.294E-03
   1 F= -.13234008E+04 E0= -.13233996E+04  d E =-.132340E+04
 BRION: g(F)=  0.690E+02 g(S)=  0.000E+00
 bond charge predicted
       N       E                     dE             d eps       ncg     rms          rms(c)
DAV:   1    -0.127299505072E+04    0.50406E+02   -0.85105E+03  1696   0.136E+02    0.374E+01
DAV:   2    -0.134792487490E+04   -0.74930E+02   -0.85627E+02  2560   0.644E+01    0.167E+01
DAV:   3    -0.134567668646E+04    0.22482E+01   -0.52753E+01  2616   0.177E+01    0.111E+01
DAV:   4    -0.134344741594E+04    0.22293E+01   -0.19838E+01  2408   0.905E+00    0.532E+00
DAV:   5    -0.134338834125E+04    0.59075E-01   -0.57108E+00  2584   0.501E+00    0.376E+00
DAV:   6    -0.134334171420E+04    0.46627E-01   -0.39239E+00  2536   0.339E+00    0.250E+00
DAV:   7    -0.134328855476E+04    0.53159E-01   -0.58549E-01  2536   0.199E+00    0.144E+00
DAV:   8    -0.134329037844E+04   -0.18237E-02   -0.68375E-01  2496   0.132E+00    0.823E-01
DAV:   9    -0.134329128555E+04   -0.90711E-03   -0.96534E-02  2536   0.677E-01    0.607E-01
DAV:  10    -0.134328764238E+04    0.36432E-02   -0.40619E-02  2624   0.367E-01    0.250E-01
DAV:  11    -0.134328872747E+04   -0.10851E-02   -0.18334E-02  2616   0.239E-01    0.165E-01
DAV:  12    -0.134328874340E+04   -0.15933E-04   -0.24999E-03  2624   0.118E-01    0.979E-02
DAV:  13    -0.134328871558E+04    0.27822E-04   -0.17131E-03  2608   0.700E-02    0.286E-02
DAV:  14    -0.134328874645E+04   -0.30872E-04   -0.29354E-04  2592   0.362E-02    0.160E-02
DAV:  15    -0.134328875428E+04   -0.78296E-05   -0.96499E-05  2608   0.188E-02    0.843E-03
DAV:  16    -0.134328875769E+04   -0.34102E-05   -0.37311E-05  2384   0.123E-02    0.699E-03
DAV:  17    -0.134328875891E+04   -0.12122E-05   -0.10152E-05  1504   0.684E-03    0.550E-03
DAV:  18    -0.134328875907E+04   -0.16893E-06   -0.38615E-06  1104   0.567E-03
   2 F= -.13432888E+04 E0= -.13432888E+04  d E =-.198880E+02
 BRION: g(F)=  0.563E+02 g(S)=  0.000E+00 retain N=  1 mean eig= 0.53
 eig:   0.533
 bond charge predicted
       N       E                     dE             d eps       ncg     rms          rms(c)
DAV:   1    -0.132414759573E+04    0.19141E+02   -0.35957E+03  1408   0.822E+01    0.200E+01
DAV:   2    -0.135451225504E+04   -0.30365E+02   -0.35569E+02  2512   0.364E+01    0.202E+01
DAV:   3    -0.135469607481E+04   -0.18382E+00   -0.22225E+01  2576   0.110E+01    0.162E+01
DAV:   4    -0.135346313447E+04    0.12329E+01   -0.13340E+01  2192   0.595E+00    0.836E+00
DAV:   5    -0.135341866233E+04    0.44472E-01   -0.38642E+00  2320   0.412E+00    0.600E+00
DAV:   6    -0.135291593532E+04    0.50273E+00   -0.68400E+00  2256   0.435E+00    0.178E+00
DAV:   7    -0.135293847053E+04   -0.22535E-01   -0.11583E+00  2408   0.241E+00    0.958E-01
DAV:   8    -0.135295523336E+04   -0.16763E-01   -0.34343E-01  2528   0.985E-01    0.679E-01
DAV:   9    -0.135295197099E+04    0.32624E-02   -0.46661E-02  2624   0.504E-01    0.365E-01
DAV:  10    -0.135295332328E+04   -0.13523E-02   -0.34167E-02  2440   0.315E-01    0.227E-01
DAV:  11    -0.135295318383E+04    0.13945E-03   -0.79424E-03  2496   0.192E-01    0.182E-01
DAV:  12    -0.135295308862E+04    0.95212E-04   -0.47525E-03  2560   0.108E-01    0.671E-02
DAV:  13    -0.135295312741E+04   -0.38793E-04   -0.11630E-03  2608   0.636E-02    0.496E-02
DAV:  14    -0.135295310209E+04    0.25323E-04   -0.33033E-04  2544   0.382E-02    0.253E-02
DAV:  15    -0.135295310860E+04   -0.65127E-05   -0.17939E-04  2568   0.238E-02    0.127E-02
DAV:  16    -0.135295311098E+04   -0.23800E-05   -0.34796E-05  2488   0.112E-02    0.761E-03
DAV:  17    -0.135295311170E+04   -0.71952E-06   -0.69149E-06  1272   0.653E-03
   3 F= -.13529531E+04 E0= -.13529531E+04  d E =-.966435E+01
 BRION: g(F)=  0.729E+01 g(S)=  0.000E+00 retain N=  2 mean eig= 1.91
 eig:   0.410  3.403
 bond charge predicted
       N       E                     dE             d eps       ncg     rms          rms(c)
DAV:   1    -0.135446519325E+04   -0.15121E+01   -0.40374E+02  1392   0.287E+01    0.588E+00
DAV:   2    -0.135656986388E+04   -0.21047E+01   -0.24277E+01  2320   0.113E+01    0.264E+00
DAV:   3    -0.135663071205E+04   -0.60848E-01   -0.19173E+00  2512   0.270E+00    0.226E+00
DAV:   4    -0.135656715482E+04    0.63557E-01   -0.50671E-01  2560   0.146E+00    0.117E+00
DAV:   5    -0.135655887460E+04    0.82802E-02   -0.20634E-01  2328   0.909E-01    0.809E-01
DAV:   6    -0.135655486531E+04    0.40093E-02   -0.99083E-02  2576   0.630E-01    0.542E-01
DAV:   7    -0.135655400042E+04    0.86489E-03   -0.53210E-02  2496   0.409E-01    0.303E-01
DAV:   8    -0.135655380899E+04    0.19143E-03   -0.10079E-02  2592   0.204E-01    0.164E-01
DAV:   9    -0.135655376954E+04    0.39449E-04   -0.30597E-03  2616   0.108E-01    0.953E-02
DAV:  10    -0.135655385068E+04   -0.81141E-04   -0.13360E-03  2376   0.714E-02    0.839E-02
DAV:  11    -0.135655378280E+04    0.67883E-04   -0.81262E-04  2480   0.522E-02    0.345E-02
DAV:  12    -0.135655379378E+04   -0.10980E-04   -0.35430E-04  2512   0.349E-02    0.246E-02
DAV:  13    -0.135655379099E+04    0.27883E-05   -0.71236E-05  2488   0.186E-02    0.131E-02
DAV:  14    -0.135655379218E+04   -0.11919E-05   -0.29898E-05  2400   0.987E-03    0.433E-03
DAV:  15    -0.135655379250E+04   -0.31784E-06   -0.29537E-06  1152   0.532E-03
   4 F= -.13565538E+04 E0= -.13565538E+04  d E =-.360068E+01
 BRION: g(F)=  0.268E+01 g(S)=  0.000E+00 retain N=  3 mean eig= 1.69
 eig:   4.328  0.543  0.214
 bond charge predicted
       N       E                     dE             d eps       ncg     rms          rms(c)
DAV:   1    -0.135751046720E+04   -0.95668E+00   -0.18429E+02  1384   0.192E+01    0.313E+00
DAV:   2    -0.135840306484E+04   -0.89260E+00   -0.95959E+00  2304   0.710E+00    0.153E+00
DAV:   3    -0.135842656094E+04   -0.23496E-01   -0.67932E-01  2608   0.149E+00    0.123E+00
DAV:   4    -0.135839962109E+04    0.26940E-01   -0.14780E-01  2544   0.813E-01    0.613E-01
DAV:   5    -0.135839590174E+04    0.37193E-02   -0.56790E-02  2432   0.505E-01    0.375E-01
DAV:   6    -0.135839593185E+04   -0.30105E-04   -0.33436E-02  2568   0.338E-01    0.216E-01
DAV:   7    -0.135839585330E+04    0.78545E-04   -0.80483E-03  2512   0.178E-01    0.157E-01
DAV:   8    -0.135839576328E+04    0.90025E-04   -0.25595E-03  2568   0.926E-02    0.808E-02
DAV:   9    -0.135839572990E+04    0.33380E-04   -0.92956E-04  2600   0.603E-02    0.510E-02
DAV:  10    -0.135839574445E+04   -0.14551E-04   -0.40942E-04  2288   0.391E-02    0.450E-02
DAV:  11    -0.135839572831E+04    0.16136E-04   -0.27253E-04  2368   0.287E-02    0.208E-02
DAV:  12    -0.135839572724E+04    0.10710E-05   -0.11233E-04  2416   0.201E-02    0.126E-02
DAV:  13    -0.135839572825E+04   -0.10051E-05   -0.33769E-05  2288   0.121E-02    0.988E-03
DAV:  14    -0.135839572773E+04    0.51805E-06   -0.12851E-05  1760   0.650E-03    0.405E-03
DAV:  15    -0.135839572758E+04    0.14479E-06   -0.20147E-06  1024   0.488E-03
   5 F= -.13583957E+04 E0= -.13583957E+04  d E =-.184194E+01
 BRION: g(F)=  0.151E+01 g(S)=  0.000E+00 retain N=  4 mean eig= 1.65
 eig:   2.683  2.683  0.618  0.618
 bond charge predicted
       N       E                     dE             d eps       ncg     rms          rms(c)
DAV:   1    -0.135902740952E+04   -0.63168E+00   -0.26498E+02  1384   0.230E+01    0.353E+00
DAV:   2    -0.136030615122E+04   -0.12787E+01   -0.13441E+01  2304   0.865E+00    0.170E+00
DAV:   3    -0.136035141379E+04   -0.45263E-01   -0.94870E-01  2608   0.167E+00    0.136E+00
DAV:   4    -0.136031940132E+04    0.32012E-01   -0.20211E-01  2488   0.918E-01    0.635E-01
DAV:   5    -0.136031779899E+04    0.16023E-02   -0.63262E-02  2496   0.533E-01    0.414E-01
DAV:   6    -0.136031779497E+04    0.40230E-05   -0.34436E-02  2592   0.328E-01    0.188E-01
DAV:   7    -0.136031764729E+04    0.14768E-03   -0.70002E-03  2344   0.177E-01    0.131E-01
DAV:   8    -0.136031774269E+04   -0.95398E-04   -0.28432E-03  2456   0.935E-02    0.714E-02
DAV:   9    -0.136031770058E+04    0.42109E-04   -0.69756E-04  2624   0.569E-02    0.394E-02
DAV:  10    -0.136031772895E+04   -0.28373E-04   -0.47251E-04  2560   0.379E-02    0.337E-02
DAV:  11    -0.136031771854E+04    0.10416E-04   -0.13403E-04  2552   0.252E-02    0.148E-02
DAV:  12    -0.136031772039E+04   -0.18499E-05   -0.56541E-05  2240   0.141E-02    0.971E-03
DAV:  13    -0.136031772071E+04   -0.32595E-06   -0.15268E-05  2040   0.832E-03    0.636E-03
DAV:  14    -0.136031772064E+04    0.69194E-07   -0.61776E-06  1520   0.561E-03
   6 F= -.13603177E+04 E0= -.13603177E+04  d E =-.192199E+01
 BRION: g(F)=  0.940E+00 g(S)=  0.000E+00 retain N=  5 mean eig= 1.28
 eig:   1.896  1.770  1.770  0.270  0.698
 bond charge predicted
       N       E                     dE             d eps       ncg     rms          rms(c)
DAV:   1    -0.136085285971E+04   -0.53514E+00   -0.86375E+01  1376   0.134E+01    0.188E+00
DAV:   2    -0.136128352257E+04   -0.43066E+00   -0.46186E+00  2280   0.511E+00    0.963E-01
DAV:   3    -0.136130618477E+04   -0.22662E-01   -0.37356E-01  2616   0.106E+00    0.769E-01
DAV:   4    -0.136129763898E+04    0.85458E-02   -0.52270E-02  2608   0.521E-01    0.448E-01
DAV:   5    -0.136129539902E+04    0.22400E-02   -0.25308E-02  2408   0.320E-01    0.217E-01
DAV:   6    -0.136129586477E+04   -0.46575E-03   -0.10778E-02  2576   0.204E-01    0.160E-01
DAV:   7    -0.136129574401E+04    0.12076E-03   -0.43630E-03  2536   0.129E-01    0.100E-01
DAV:   8    -0.136129573376E+04    0.10246E-04   -0.14602E-03  2568   0.743E-02    0.572E-02
DAV:   9    -0.136129571237E+04    0.21396E-04   -0.32313E-04  2600   0.392E-02    0.359E-02
DAV:  10    -0.136129573030E+04   -0.17931E-04   -0.25580E-04  2408   0.274E-02    0.287E-02
DAV:  11    -0.136129572056E+04    0.97386E-05   -0.73505E-05  2504   0.193E-02    0.113E-02
DAV:  12    -0.136129572299E+04   -0.24326E-05   -0.40952E-05  2312   0.118E-02    0.109E-02
DAV:  13    -0.136129572186E+04    0.11324E-05   -0.95811E-06  1784   0.700E-03    0.520E-03
DAV:  14    -0.136129572191E+04   -0.55472E-07   -0.58912E-06  1456   0.541E-03
   7 F= -.13612957E+04 E0= -.13612957E+04  d E =-.978001E+00
 BRION: g(F)=  0.602E+00 g(S)=  0.000E+00 retain N=  6 mean eig= 1.94
 eig:   3.701  3.701  2.192  0.628  0.713  0.713
 bond charge predicted
       N       E                     dE             d eps       ncg     rms          rms(c)
DAV:   1    -0.136174824109E+04   -0.45252E+00   -0.76633E+01  1376   0.125E+01    0.165E+00
DAV:   2    -0.136213152618E+04   -0.38329E+00   -0.40671E+00  2280   0.482E+00    0.832E-01
DAV:   3    -0.136215077883E+04   -0.19253E-01   -0.31879E-01  2608   0.965E-01    0.651E-01
DAV:   4    -0.136214270125E+04    0.80776E-02   -0.42797E-02  2536   0.464E-01    0.365E-01
DAV:   5    -0.136214068588E+04    0.20154E-02   -0.18588E-02  2424   0.280E-01    0.167E-01
DAV:   6    -0.136214116199E+04   -0.47611E-03   -0.82191E-03  2536   0.170E-01    0.115E-01
DAV:   7    -0.136214109762E+04    0.64361E-04   -0.21963E-03  2384   0.981E-02    0.792E-02
DAV:   8    -0.136214112233E+04   -0.24710E-04   -0.12495E-03  2408   0.612E-02    0.475E-02
DAV:   9    -0.136214110350E+04    0.18837E-04   -0.20423E-04  2592   0.337E-02    0.326E-02
DAV:  10    -0.136214110737E+04   -0.38761E-05   -0.25707E-04  2512   0.277E-02    0.223E-02
DAV:  11    -0.136214110379E+04    0.35879E-05   -0.64805E-05  2432   0.178E-02    0.928E-03
DAV:  12    -0.136214110539E+04   -0.16033E-05   -0.25432E-05  2232   0.979E-03    0.764E-03
DAV:  13    -0.136214110463E+04    0.76368E-06   -0.49492E-06  1304   0.633E-03
   8 F= -.13621411E+04 E0= -.13621411E+04  d E =-.845383E+00
 BRION: g(F)=  0.456E+00 g(S)=  0.000E+00 retain N=  7 mean eig= 2.32
 eig:   5.358  5.358  2.102  1.013  0.770  0.770  0.869
 bond charge predicted
       N       E                     dE             d eps       ncg     rms          rms(c)
DAV:   1    -0.136250570059E+04   -0.36460E+00   -0.10575E+02  1376   0.146E+01    0.177E+00
DAV:   2    -0.136304351356E+04   -0.53781E+00   -0.56874E+00  2288   0.571E+00    0.904E-01
DAV:   3    -0.136307128514E+04   -0.27772E-01   -0.43680E-01  2592   0.110E+00    0.721E-01
DAV:   4    -0.136306220941E+04    0.90757E-02   -0.50740E-02  2576   0.510E-01    0.453E-01
DAV:   5    -0.136305727163E+04    0.49378E-02   -0.21916E-02  2376   0.303E-01    0.182E-01
DAV:   6    -0.136305777616E+04   -0.50453E-03   -0.10763E-02  2464   0.196E-01    0.131E-01
DAV:   7    -0.136305776883E+04    0.73387E-05   -0.41166E-03  2456   0.126E-01    0.929E-02
DAV:   8    -0.136305779635E+04   -0.27528E-04   -0.18249E-03  2592   0.790E-02    0.587E-02
DAV:   9    -0.136305777638E+04    0.19973E-04   -0.36501E-04  2576   0.414E-02    0.426E-02
DAV:  10    -0.136305777822E+04   -0.18397E-05   -0.25603E-04  2560   0.289E-02    0.249E-02
DAV:  11    -0.136305777673E+04    0.14861E-05   -0.95271E-05  2456   0.208E-02    0.120E-02
DAV:  12    -0.136305777770E+04   -0.96910E-06   -0.34415E-05  2312   0.131E-02    0.112E-02
DAV:  13    -0.136305777669E+04    0.10109E-05   -0.18266E-05  1936   0.808E-03    0.542E-03
DAV:  14    -0.136305777679E+04   -0.10093E-06   -0.74462E-06  1640   0.604E-03
   9 F= -.13630578E+04 E0= -.13630578E+04  d E =-.916672E+00
 BRION: g(F)=  0.349E+00 g(S)=  0.000E+00 retain N=  8 mean eig= 2.80
 eig:   7.040  7.040  1.724  1.724  1.571  1.571  0.868  0.868
 bond charge predicted
       N       E                     dE             d eps       ncg     rms          rms(c)
DAV:   1    -0.136329599743E+04   -0.23822E+00   -0.10570E+02  1376   0.147E+01    0.179E+00
DAV:   2    -0.136383796771E+04   -0.54197E+00   -0.57770E+00  2280   0.574E+00    0.902E-01
DAV:   3    -0.136386751854E+04   -0.29551E-01   -0.45788E-01  2592   0.115E+00    0.732E-01
DAV:   4    -0.136385891309E+04    0.86054E-02   -0.52480E-02  2608   0.522E-01    0.473E-01
DAV:   5    -0.136385345521E+04    0.54579E-02   -0.22344E-02  2368   0.306E-01    0.193E-01
DAV:   6    -0.136385391419E+04   -0.45898E-03   -0.12077E-02  2464   0.210E-01    0.142E-01
DAV:   7    -0.136385389343E+04    0.20757E-04   -0.49899E-03  2440   0.137E-01    0.102E-01
DAV:   8    -0.136385391004E+04   -0.16609E-04   -0.20375E-03  2616   0.840E-02    0.623E-02
DAV:   9    -0.136385389109E+04    0.18954E-04   -0.44450E-04  2568   0.444E-02    0.450E-02
DAV:  10    -0.136385389591E+04   -0.48224E-05   -0.24900E-04  2592   0.288E-02    0.293E-02
DAV:  11    -0.136385389327E+04    0.26378E-05   -0.11113E-04  2480   0.220E-02    0.157E-02
DAV:  12    -0.136385389271E+04    0.55919E-06   -0.43947E-05  2328   0.147E-02    0.132E-02
DAV:  13    -0.136385389182E+04    0.89618E-06   -0.29427E-05  2216   0.955E-03    0.632E-03
DAV:  14    -0.136385389197E+04   -0.15175E-06   -0.90041E-06  1752   0.596E-03
  10 F= -.13638539E+04 E0= -.13638539E+04  d E =-.796115E+00
 BRION: g(F)=  0.257E+00 g(S)=  0.000E+00 retain N=  7 mean eig= 3.60
 eig:   7.798  7.798  3.095  3.095  1.176  1.176  1.045
 bond charge predicted
       N       E                     dE             d eps       ncg     rms          rms(c)
DAV:   1    -0.136400088315E+04   -0.14699E+00   -0.86182E+01  1376   0.132E+01    0.156E+00
DAV:   2    -0.136444488238E+04   -0.44400E+00   -0.47131E+00  2296   0.514E+00    0.785E-01
DAV:   3    -0.136446958579E+04   -0.24703E-01   -0.37229E-01  2576   0.103E+00    0.636E-01
DAV:   4    -0.136446348766E+04    0.60981E-02   -0.39260E-02  2592   0.456E-01    0.436E-01
DAV:   5    -0.136445822841E+04    0.52593E-02   -0.16334E-02  2408   0.263E-01    0.183E-01
DAV:   6    -0.136445820107E+04    0.27333E-04   -0.11194E-02  2360   0.199E-01    0.113E-01
DAV:   7    -0.136445836603E+04   -0.16496E-03   -0.50799E-03  2368   0.131E-01    0.986E-02
DAV:   8    -0.136445834378E+04    0.22245E-04   -0.15255E-03  2624   0.753E-02    0.617E-02
DAV:   9    -0.136445832004E+04    0.23739E-04   -0.50775E-04  2592   0.443E-02    0.381E-02
DAV:  10    -0.136445833106E+04   -0.11019E-04   -0.20423E-04  2592   0.270E-02    0.276E-02
DAV:  11    -0.136445832834E+04    0.27196E-05   -0.67497E-05  2520   0.176E-02    0.160E-02
DAV:  12    -0.136445832750E+04    0.84387E-06   -0.57078E-05  2296   0.146E-02    0.123E-02
DAV:  13    -0.136445832661E+04    0.89165E-06   -0.22794E-05  2168   0.963E-03    0.680E-03
DAV:  14    -0.136445832674E+04   -0.13458E-06   -0.11874E-05  1768   0.635E-03    0.356E-03
DAV:  15    -0.136445832661E+04    0.13324E-06   -0.10349E-06   960   0.405E-03
  11 F= -.13644583E+04 E0= -.13644583E+04  d E =-.604435E+00
 BRION: g(F)=  0.191E+00 g(S)=  0.000E+00 retain N=  5 mean eig= 4.05
 eig:   7.391  7.391  2.120  2.120  1.219
 bond charge predicted
       N       E                     dE             d eps       ncg     rms          rms(c)
DAV:   1    -0.136458240454E+04   -0.12408E+00   -0.52020E+01  1384   0.103E+01    0.120E+00
DAV:   2    -0.136485161232E+04   -0.26921E+00   -0.28559E+00  2296   0.402E+00    0.608E-01
DAV:   3    -0.136486702166E+04   -0.15409E-01   -0.22637E-01  2584   0.805E-01    0.499E-01
DAV:   4    -0.136486380824E+04    0.32134E-02   -0.23016E-02  2608   0.353E-01    0.358E-01
DAV:   5    -0.136486020087E+04    0.36074E-02   -0.95365E-03  2400   0.206E-01    0.159E-01
DAV:   6    -0.136485994390E+04    0.25697E-03   -0.80462E-03  2240   0.174E-01    0.907E-02
DAV:   7    -0.136486015577E+04   -0.21187E-03   -0.44463E-03  2376   0.118E-01    0.922E-02
DAV:   8    -0.136486011560E+04    0.40172E-04   -0.95008E-04  2600   0.624E-02    0.626E-02
DAV:   9    -0.136486007645E+04    0.39155E-04   -0.50220E-04  2552   0.417E-02    0.307E-02
DAV:  10    -0.136486009174E+04   -0.15289E-04   -0.18691E-04  2496   0.261E-02    0.240E-02
DAV:  11    -0.136486009096E+04    0.77659E-06   -0.51030E-05  2432   0.153E-02    0.165E-02
DAV:  12    -0.136486008863E+04    0.23284E-05   -0.64561E-05  2128   0.157E-02    0.130E-02
DAV:  13    -0.136486008813E+04    0.50382E-06   -0.27372E-05  2112   0.105E-02    0.100E-02
DAV:  14    -0.136486008714E+04    0.98746E-06   -0.12681E-05  1744   0.650E-03    0.336E-03
DAV:  15    -0.136486008710E+04    0.42302E-07   -0.11653E-06   928   0.442E-03
  12 F= -.13648601E+04 E0= -.13648601E+04  d E =-.401760E+00
 BRION: g(F)=  0.157E+00 g(S)=  0.000E+00 retain N=  3 mean eig= 4.11
 eig:   5.371  5.371  1.592
 bond charge predicted
       N       E                     dE             d eps       ncg     rms          rms(c)
DAV:   1    -0.136493250302E+04   -0.72416E-01   -0.51826E+01  1376   0.103E+01    0.122E+00
DAV:   2    -0.136519857306E+04   -0.26607E+00   -0.28319E+00  2288   0.399E+00    0.607E-01
DAV:   3    -0.136521446767E+04   -0.15895E-01   -0.22863E-01  2584   0.810E-01    0.501E-01
DAV:   4    -0.136521137913E+04    0.30885E-02   -0.23232E-02  2608   0.356E-01    0.354E-01
DAV:   5    -0.136520815079E+04    0.32283E-02   -0.10438E-02  2416   0.208E-01    0.149E-01
DAV:   6    -0.136520819483E+04   -0.44045E-04   -0.73483E-03  2360   0.161E-01    0.102E-01
DAV:   7    -0.136520825398E+04   -0.59150E-04   -0.33290E-03  2424   0.107E-01    0.835E-02
DAV:   8    -0.136520823345E+04    0.20535E-04   -0.11288E-03  2568   0.646E-02    0.526E-02
DAV:   9    -0.136520821601E+04    0.17439E-04   -0.31823E-04  2528   0.352E-02    0.326E-02
DAV:  10    -0.136520822108E+04   -0.50735E-05   -0.11969E-04  2576   0.207E-02    0.210E-02
DAV:  11    -0.136520822215E+04   -0.10637E-05   -0.35144E-05  2448   0.132E-02    0.144E-02
DAV:  12    -0.136520822049E+04    0.16530E-05   -0.31707E-05  2232   0.113E-02    0.104E-02
DAV:  13    -0.136520821984E+04    0.65214E-06   -0.16504E-05  1928   0.800E-03    0.526E-03
DAV:  14    -0.136520821991E+04   -0.65513E-07   -0.66319E-06  1616   0.549E-03
  13 F= -.13652082E+04 E0= -.13652082E+04  d E =-.348133E+00
 BRION: g(F)=  0.124E+00 g(S)=  0.000E+00 retain N=  3 mean eig= 4.81
 eig:   6.407  6.407  1.620
 bond charge predicted
       N       E                     dE             d eps       ncg     rms          rms(c)
DAV:   1    -0.136527794172E+04   -0.69722E-01   -0.32053E+01  1384   0.810E+00    0.929E-01
DAV:   2    -0.136544276640E+04   -0.16482E+00   -0.17398E+00  2304   0.317E+00    0.466E-01
DAV:   3    -0.136545194251E+04   -0.91761E-02   -0.13387E-01  2600   0.622E-01    0.378E-01
DAV:   4    -0.136544993365E+04    0.20089E-02   -0.13111E-02  2616   0.273E-01    0.273E-01
DAV:   5    -0.136544773080E+04    0.22028E-02   -0.62359E-03  2352   0.163E-01    0.116E-01
DAV:   6    -0.136544769936E+04    0.31445E-04   -0.50146E-03  2304   0.136E-01    0.781E-02
DAV:   7    -0.136544778129E+04   -0.81930E-04   -0.26081E-03  2368   0.908E-02    0.688E-02
DAV:   8    -0.136544776121E+04    0.20081E-04   -0.64061E-04  2616   0.508E-02    0.440E-02
DAV:   9    -0.136544774490E+04    0.16310E-04   -0.24859E-04  2560   0.301E-02    0.242E-02
DAV:  10    -0.136544775058E+04   -0.56808E-05   -0.91643E-05  2536   0.184E-02    0.171E-02
DAV:  11    -0.136544775057E+04    0.56461E-08   -0.29591E-05  2368   0.118E-02    0.112E-02
DAV:  12    -0.136544775011E+04    0.46415E-06   -0.26183E-05  2200   0.104E-02    0.979E-03
DAV:  13    -0.136544774925E+04    0.85820E-06   -0.11147E-05  1776   0.720E-03    0.613E-03
DAV:  14    -0.136544774910E+04    0.14466E-06   -0.77638E-06  1576   0.547E-03
  14 F= -.13654477E+04 E0= -.13654477E+04  d E =-.239529E+00
 BRION: g(F)=  0.103E+00 g(S)=  0.000E+00 retain N=  3 mean eig= 4.34
 eig:   5.704  5.704  1.599
 bond charge predicted
       N       E                     dE             d eps       ncg     rms          rms(c)
DAV:   1    -0.136551102553E+04   -0.63276E-01   -0.26118E+01  1384   0.732E+00    0.844E-01
DAV:   2    -0.136564524499E+04   -0.13422E+00   -0.14191E+00  2296   0.289E+00    0.418E-01
DAV:   3    -0.136565344087E+04   -0.81959E-02   -0.11245E-01  2568   0.561E-01    0.348E-01
DAV:   4    -0.136565225281E+04    0.11881E-02   -0.10664E-02  2600   0.244E-01    0.263E-01
DAV:   5    -0.136565032113E+04    0.19317E-02   -0.54160E-03  2336   0.153E-01    0.115E-01
DAV:   6    -0.136565030498E+04    0.16149E-04   -0.47691E-03  2240   0.133E-01    0.810E-02
DAV:   7    -0.136565035516E+04   -0.50178E-04   -0.24419E-03  2352   0.887E-02    0.695E-02
DAV:   8    -0.136565033222E+04    0.22939E-04   -0.61979E-04  2520   0.508E-02    0.446E-02
DAV:   9    -0.136565031345E+04    0.18764E-04   -0.24278E-04  2544   0.292E-02    0.238E-02
DAV:  10    -0.136565031913E+04   -0.56782E-05   -0.89644E-05  2520   0.181E-02    0.154E-02
DAV:  11    -0.136565032086E+04   -0.17258E-05   -0.28401E-05  2320   0.113E-02    0.128E-02
DAV:  12    -0.136565031961E+04    0.12454E-05   -0.23359E-05  2168   0.105E-02    0.112E-02
DAV:  13    -0.136565031850E+04    0.11135E-05   -0.14621E-05  1896   0.760E-03    0.674E-03
DAV:  14    -0.136565031808E+04    0.41726E-06   -0.53846E-06  1392   0.529E-03
  15 F= -.13656503E+04 E0= -.13656503E+04  d E =-.202569E+00
 BRION: g(F)=  0.897E-01 g(S)=  0.000E+00 retain N=  3 mean eig= 4.46
 eig:   5.854  5.854  1.672
 bond charge predicted
       N       E                     dE             d eps       ncg     rms          rms(c)
DAV:   1    -0.136569809561E+04   -0.47777E-01   -0.27682E+01  1384   0.753E+00    0.851E-01
DAV:   2    -0.136584151129E+04   -0.14342E+00   -0.15072E+00  2312   0.299E+00    0.426E-01
DAV:   3    -0.136584980151E+04   -0.82902E-02   -0.11509E-01  2576   0.572E-01    0.347E-01
DAV:   4    -0.136584844032E+04    0.13612E-02   -0.10730E-02  2600   0.247E-01    0.262E-01
DAV:   5    -0.136584642654E+04    0.20138E-02   -0.54963E-03  2296   0.153E-01    0.112E-01
DAV:   6    -0.136584644349E+04   -0.16957E-04   -0.47841E-03  2264   0.127E-01    0.771E-02
DAV:   7    -0.136584648752E+04   -0.44030E-04   -0.21846E-03  2400   0.834E-02    0.650E-02
DAV:   8    -0.136584646932E+04    0.18207E-04   -0.59599E-04  2592   0.493E-02    0.422E-02
DAV:   9    -0.136584645189E+04    0.17429E-04   -0.21215E-04  2504   0.277E-02    0.232E-02
DAV:  10    -0.136584645632E+04   -0.44290E-05   -0.80239E-05  2512   0.170E-02    0.142E-02
DAV:  11    -0.136584645727E+04   -0.94925E-06   -0.19613E-05  2136   0.101E-02    0.101E-02
DAV:  12    -0.136584645682E+04    0.44225E-06   -0.17706E-05  1936   0.856E-03    0.880E-03
DAV:  13    -0.136584645610E+04    0.72272E-06   -0.88380E-06  1664   0.670E-03
  16 F= -.13658465E+04 E0= -.13658465E+04  d E =-.196138E+00
 BRION: g(F)=  0.788E-01 g(S)=  0.000E+00 retain N=  3 mean eig= 4.83
 eig:   6.432  6.432  1.632
 bond charge predicted
       N       E                     dE             d eps       ncg     rms          rms(c)
DAV:   1    -0.136589441677E+04   -0.47960E-01   -0.22613E+01  1376   0.681E+00    0.772E-01
DAV:   2    -0.136601168931E+04   -0.11727E+00   -0.12329E+00  2312   0.272E+00    0.386E-01
DAV:   3    -0.136601840695E+04   -0.67176E-02   -0.93678E-02  2584   0.515E-01    0.314E-01
DAV:   4    -0.136601724639E+04    0.11606E-02   -0.85813E-03  2608   0.222E-01    0.237E-01
DAV:   5    -0.136601555422E+04    0.16922E-02   -0.45078E-03  2312   0.142E-01    0.101E-01
DAV:   6    -0.136601556944E+04   -0.15223E-04   -0.40405E-03  2280   0.119E-01    0.714E-02
DAV:   7    -0.136601560830E+04   -0.38864E-04   -0.18768E-03  2408   0.774E-02    0.602E-02
DAV:   8    -0.136601559150E+04    0.16799E-04   -0.48626E-04  2592   0.446E-02    0.368E-02
DAV:   9    -0.136601557706E+04    0.14445E-04   -0.18147E-04  2496   0.257E-02    0.201E-02
DAV:  10    -0.136601558163E+04   -0.45724E-05   -0.71266E-05  2496   0.160E-02    0.136E-02
DAV:  11    -0.136601558164E+04   -0.11569E-07   -0.21591E-05  2152   0.103E-02    0.898E-03
DAV:  12    -0.136601558139E+04    0.25184E-06   -0.13424E-05  1800   0.818E-03    0.813E-03
DAV:  13    -0.136601558082E+04    0.56686E-06   -0.88344E-06  1672   0.643E-03
  17 F= -.13660156E+04 E0= -.13660156E+04  d E =-.169125E+00
 BRION: g(F)=  0.701E-01 g(S)=  0.000E+00 retain N=  3 mean eig= 4.77
 eig:   6.358  6.358  1.590
 bond charge predicted
       N       E                     dE             d eps       ncg     rms          rms(c)
DAV:   1    -0.136606727494E+04   -0.51694E-01   -0.18777E+01  1376   0.620E+00    0.698E-01
DAV:   2    -0.136616458383E+04   -0.97309E-01   -0.10232E+00  2320   0.248E+00    0.350E-01
DAV:   3    -0.136617013402E+04   -0.55502E-02   -0.76545E-02  2584   0.471E-01    0.284E-01
DAV:   4    -0.136616922299E+04    0.91103E-03   -0.69817E-03  2616   0.200E-01    0.214E-01
DAV:   5    -0.136616788657E+04    0.13364E-02   -0.38209E-03  2296   0.130E-01    0.891E-02
DAV:   6    -0.136616795657E+04   -0.69996E-04   -0.33006E-03  2328   0.105E-01    0.694E-02
DAV:   7    -0.136616796090E+04   -0.43365E-05   -0.13354E-03  2456   0.665E-02    0.547E-02
DAV:   8    -0.136616794432E+04    0.16582E-04   -0.41308E-04  2512   0.407E-02    0.305E-02
DAV:   9    -0.136616793618E+04    0.81440E-05   -0.13006E-04  2352   0.221E-02    0.177E-02
DAV:  10    -0.136616793907E+04   -0.28988E-05   -0.47611E-05  2408   0.133E-02    0.114E-02
DAV:  11    -0.136616793859E+04    0.48599E-06   -0.12115E-05  1864   0.851E-03    0.648E-03
DAV:  12    -0.136616793873E+04   -0.14548E-06   -0.99325E-06  1632   0.681E-03
  18 F= -.13661679E+04 E0= -.13661679E+04  d E =-.152358E+00
 BRION: g(F)=  0.620E-01 g(S)=  0.000E+00 retain N=  3 mean eig= 5.29
 eig:   7.108  7.108  1.655
 bond charge predicted
       N       E                     dE             d eps       ncg     rms          rms(c)
DAV:   1    -0.136620934055E+04   -0.41402E-01   -0.23026E+01  1376   0.687E+00    0.772E-01
DAV:   2    -0.136632862538E+04   -0.11928E+00   -0.12544E+00  2328   0.276E+00    0.390E-01
DAV:   3    -0.136633523711E+04   -0.66117E-02   -0.93136E-02  2568   0.518E-01    0.312E-01
DAV:   4    -0.136633396245E+04    0.12747E-02   -0.89147E-03  2600   0.223E-01    0.230E-01
DAV:   5    -0.136633238775E+04    0.15747E-02   -0.48443E-03  2288   0.146E-01    0.929E-02
DAV:   6    -0.136633248038E+04   -0.92624E-04   -0.37440E-03  2384   0.113E-01    0.748E-02
DAV:   7    -0.136633248878E+04   -0.84044E-05   -0.15110E-03  2408   0.706E-02    0.576E-02
DAV:   8    -0.136633247071E+04    0.18071E-04   -0.49787E-04  2568   0.442E-02    0.313E-02
DAV:   9    -0.136633246339E+04    0.73218E-05   -0.13672E-04  2320   0.234E-02    0.194E-02
DAV:  10    -0.136633246593E+04   -0.25388E-05   -0.55287E-05  2368   0.142E-02    0.123E-02
DAV:  11    -0.136633246536E+04    0.56805E-06   -0.15395E-05  2104   0.925E-03    0.639E-03
DAV:  12    -0.136633246572E+04   -0.36108E-06   -0.11378E-05  1760   0.680E-03    0.587E-03
DAV:  13    -0.136633246528E+04    0.43554E-06   -0.17948E-06   984   0.467E-03
  19 F= -.13663325E+04 E0= -.13663325E+04  d E =-.164527E+00
 BRION: g(F)=  0.563E-01 g(S)=  0.000E+00 retain N=  3 mean eig= 5.39
 eig:   7.190  7.190  1.776
 bond charge predicted
       N       E                     dE             d eps       ncg     rms          rms(c)
DAV:   1    -0.136637574532E+04   -0.43280E-01   -0.19627E+01  1376   0.633E+00    0.707E-01
DAV:   2    -0.136647648673E+04   -0.10074E+00   -0.10604E+00  2320   0.254E+00    0.358E-01
DAV:   3    -0.136648213309E+04   -0.56464E-02   -0.78892E-02  2576   0.475E-01    0.287E-01
DAV:   4    -0.136648111184E+04    0.10213E-02   -0.73247E-03  2600   0.204E-01    0.213E-01
DAV:   5    -0.136647977198E+04    0.13399E-02   -0.39581E-03  2312   0.134E-01    0.890E-02
DAV:   6    -0.136647982745E+04   -0.55463E-04   -0.32668E-03  2336   0.108E-01    0.697E-02
DAV:   7    -0.136647983831E+04   -0.10866E-04   -0.13793E-03  2440   0.681E-02    0.556E-02
DAV:   8    -0.136647982144E+04    0.16869E-04   -0.43525E-04  2552   0.416E-02    0.300E-02
DAV:   9    -0.136647981353E+04    0.79118E-05   -0.13843E-04  2408   0.229E-02    0.175E-02
DAV:  10    -0.136647981670E+04   -0.31717E-05   -0.49520E-05  2424   0.137E-02    0.126E-02
DAV:  11    -0.136647981571E+04    0.99090E-06   -0.16895E-05  1984   0.939E-03    0.686E-03
DAV:  12    -0.136647981588E+04   -0.16719E-06   -0.10263E-05  1744   0.710E-03    0.633E-03
DAV:  13    -0.136647981531E+04    0.57397E-06   -0.21803E-06   976   0.487E-03
  20 F= -.13664798E+04 E0= -.13664798E+04  d E =-.147350E+00
 BRION: g(F)=  0.512E-01 g(S)=  0.000E+00 retain N=  3 mean eig= 5.83
 eig:   7.748  7.748  1.992
