 running on  160 total cores
 distrk:  each k-point on  160 cores,    1 groups
 distr:  one band on   20 cores,    8 groups
 using from now: INCAR     
 vasp.5.4.4.18Apr17-6-g9f103f2a35 (build May 01 2020 14:22:42) gamma-only       
  
 POSCAR found type information on POSCAR  O  La Zr Li Al
 POSCAR found :  5 types and     188 ions
 scaLAPACK will be used
 LDA part: xc-table for Pade appr. of Perdew
 POSCAR, INCAR and KPOINTS ok, starting setup
 FFT: planning ...
 WAVECAR not read
 WARNING: random wavefunctions but no delay for mixing, default for NELMDL
 entering main loop
       N       E                     dE             d eps       ncg     rms          rms(c)
DAV:   1     0.252547373213E+05    0.25255E+05   -0.42108E+05  1616   0.253E+03
DAV:   2     0.946388689704E+04   -0.15791E+05   -0.14622E+05  1424   0.707E+02
DAV:   3     0.270837096849E+04   -0.67555E+04   -0.61482E+04  1496   0.354E+02
DAV:   4    -0.357289772646E+03   -0.30657E+04   -0.28548E+04  2064   0.223E+02
DAV:   5    -0.141219521047E+04   -0.10549E+04   -0.10189E+04  2528   0.141E+02    0.117E+02
DAV:   6    -0.129516987370E+04    0.11703E+03   -0.14041E+03  2432   0.660E+01    0.499E+01
DAV:   7    -0.131871623919E+04   -0.23546E+02   -0.39126E+02  2552   0.339E+01    0.249E+01
DAV:   8    -0.132690833903E+04   -0.81921E+01   -0.25047E+02  2544   0.266E+01    0.252E+01
DAV:   9    -0.132073644791E+04    0.61719E+01   -0.51887E+01  2512   0.148E+01    0.780E+00
DAV:  10    -0.132166011378E+04   -0.92367E+00   -0.16016E+01  2624   0.801E+00    0.715E+00
DAV:  11    -0.132199079394E+04   -0.33068E+00   -0.59099E+00  2624   0.432E+00    0.414E+00
DAV:  12    -0.132182558032E+04    0.16521E+00   -0.24725E+00  2536   0.356E+00    0.288E+00
DAV:  13    -0.132189444998E+04   -0.68870E-01   -0.90296E-01  2552   0.177E+00    0.211E+00
DAV:  14    -0.132187536136E+04    0.19089E-01   -0.32912E-01  2584   0.115E+00    0.107E+00
DAV:  15    -0.132188387528E+04   -0.85139E-02   -0.89884E-02  2520   0.623E-01    0.994E-01
DAV:  16    -0.132188282377E+04    0.10515E-02   -0.33229E-02  2624   0.333E-01    0.520E-01
DAV:  17    -0.132188165866E+04    0.11651E-02   -0.22712E-02  2480   0.291E-01    0.285E-01
DAV:  18    -0.132188200731E+04   -0.34866E-03   -0.50599E-03  2496   0.155E-01    0.119E-01
DAV:  19    -0.132188208225E+04   -0.74934E-04   -0.17227E-03  2616   0.837E-02    0.836E-02
DAV:  20    -0.132188214320E+04   -0.60955E-04   -0.74044E-04  2624   0.492E-02    0.395E-02
DAV:  21    -0.132188214267E+04    0.52899E-06   -0.21460E-04  2520   0.305E-02    0.315E-02
DAV:  22    -0.132188216046E+04   -0.17786E-04   -0.12873E-04  2472   0.213E-02    0.172E-02
DAV:  23    -0.132188215395E+04    0.65127E-05   -0.46083E-05  2392   0.139E-02    0.593E-03
DAV:  24    -0.132188215629E+04   -0.23463E-05   -0.10208E-05  1112   0.723E-03    0.422E-03
DAV:  25    -0.132188215831E+04   -0.20199E-05   -0.46254E-06  1008   0.569E-03    0.193E-03
DAV:  26    -0.132188215806E+04    0.24850E-06   -0.26180E-06   992   0.545E-03
   1 F= -.13218822E+04 E0= -.13218822E+04  d E =-.132188E+04
 BRION: g(F)=  0.783E+02 g(S)=  0.000E+00
 bond charge predicted
       N       E                     dE             d eps       ncg     rms          rms(c)
DAV:   1    -0.127010816038E+04    0.51774E+02   -0.91665E+03  1728   0.143E+02    0.357E+01
DAV:   2    -0.134767141183E+04   -0.77563E+02   -0.89293E+02  2576   0.674E+01    0.168E+01
DAV:   3    -0.134527586511E+04    0.23955E+01   -0.53236E+01  2616   0.182E+01    0.112E+01
DAV:   4    -0.134263564909E+04    0.26402E+01   -0.18185E+01  2456   0.870E+00    0.548E+00
DAV:   5    -0.134234932999E+04    0.28632E+00   -0.46336E+00  2544   0.484E+00    0.361E+00
DAV:   6    -0.134221054001E+04    0.13879E+00   -0.33678E+00  2536   0.332E+00    0.194E+00
DAV:   7    -0.134219608992E+04    0.14450E-01   -0.67848E-01  2536   0.196E+00    0.139E+00
DAV:   8    -0.134218950671E+04    0.65832E-02   -0.47881E-01  2600   0.115E+00    0.680E-01
DAV:   9    -0.134219027707E+04   -0.77036E-03   -0.62375E-02  2576   0.592E-01    0.478E-01
DAV:  10    -0.134218836514E+04    0.19119E-02   -0.31020E-02  2616   0.340E-01    0.201E-01
DAV:  11    -0.134218930271E+04   -0.93757E-03   -0.11724E-02  2608   0.213E-01    0.154E-01
DAV:  12    -0.134218928623E+04    0.16478E-04   -0.21911E-03  2616   0.102E-01    0.922E-02
DAV:  13    -0.134218922689E+04    0.59335E-04   -0.18955E-03  2504   0.780E-02    0.278E-02
DAV:  14    -0.134218925004E+04   -0.23144E-04   -0.35691E-04  2528   0.435E-02    0.164E-02
DAV:  15    -0.134218925935E+04   -0.93173E-05   -0.91263E-05  2624   0.197E-02    0.773E-03
DAV:  16    -0.134218926089E+04   -0.15371E-05   -0.20701E-05  1912   0.100E-02    0.462E-03
DAV:  17    -0.134218926198E+04   -0.10883E-05   -0.10657E-05  1864   0.690E-03    0.369E-03
DAV:  18    -0.134218926220E+04   -0.22362E-06   -0.16615E-06  1112   0.415E-03
   2 F= -.13421893E+04 E0= -.13421893E+04  d E =-.203071E+02
 BRION: g(F)=  0.105E+03 g(S)=  0.000E+00 retain N=  1 mean eig= 0.45
 eig:   0.449
 bond charge predicted
       N       E                     dE             d eps       ncg     rms          rms(c)
DAV:   1    -0.132298294785E+04    0.19206E+02   -0.31122E+03  1416   0.737E+01    0.227E+01
DAV:   2    -0.135760666734E+04   -0.34624E+02   -0.44893E+02  2528   0.373E+01    0.201E+01
DAV:   3    -0.135481738726E+04    0.27893E+01   -0.47226E+01  2568   0.150E+01    0.153E+01
DAV:   4    -0.135175052992E+04    0.30669E+01   -0.36579E+01  2248   0.670E+00    0.702E+00
DAV:   5    -0.135266425731E+04   -0.91373E+00   -0.95546E+00  2456   0.450E+00    0.856E+00
DAV:   6    -0.135133339215E+04    0.13309E+01   -0.11767E+01  2456   0.383E+00    0.169E+00
DAV:   7    -0.135151124420E+04   -0.17785E+00   -0.22109E+00  2408   0.296E+00    0.185E+00
DAV:   8    -0.135145168809E+04    0.59556E-01   -0.44899E-01  2552   0.129E+00    0.106E+00
DAV:   9    -0.135144505256E+04    0.66355E-02   -0.24163E-01  2432   0.788E-01    0.381E-01
DAV:  10    -0.135144668874E+04   -0.16362E-02   -0.39117E-02  2480   0.385E-01    0.208E-01
DAV:  11    -0.135144665934E+04    0.29394E-04   -0.72909E-03  2592   0.182E-01    0.166E-01
DAV:  12    -0.135144669906E+04   -0.39714E-04   -0.96250E-03  2528   0.155E-01    0.121E-01
DAV:  13    -0.135144657600E+04    0.12306E-03   -0.18302E-03  2472   0.933E-02    0.852E-02
DAV:  14    -0.135144657542E+04    0.57420E-06   -0.14278E-03  2520   0.563E-02    0.466E-02
DAV:  15    -0.135144656762E+04    0.77992E-05   -0.34281E-04  2544   0.352E-02    0.289E-02
DAV:  16    -0.135144655538E+04    0.12240E-04   -0.15207E-04  2520   0.234E-02    0.946E-03
DAV:  17    -0.135144655869E+04   -0.33096E-05   -0.43879E-05  2320   0.132E-02    0.665E-03
DAV:  18    -0.135144655867E+04    0.24185E-07   -0.50165E-06  1352   0.546E-03
   3 F= -.13514466E+04 E0= -.13514466E+04  d E =-.925730E+01
 BRION: g(F)=  0.138E+02 g(S)=  0.000E+00 retain N=  2 mean eig= 1.29
 eig:   0.273  2.312
 bond charge predicted
       N       E                     dE             d eps       ncg     rms          rms(c)
DAV:   1    -0.135147450856E+04   -0.27950E-01   -0.60307E+02  1448   0.314E+01    0.708E+00
DAV:   2    -0.135522886626E+04   -0.37544E+01   -0.43902E+01  2360   0.139E+01    0.367E+00
DAV:   3    -0.135521563961E+04    0.13227E-01   -0.32465E+00  2576   0.405E+00    0.320E+00
DAV:   4    -0.135506660612E+04    0.14903E+00   -0.10365E+00  2400   0.181E+00    0.156E+00
DAV:   5    -0.135505848507E+04    0.81211E-02   -0.47923E-01  2392   0.123E+00    0.142E+00
DAV:   6    -0.135502954498E+04    0.28940E-01   -0.23298E-01  2488   0.973E-01    0.737E-01
DAV:   7    -0.135503075030E+04   -0.12053E-02   -0.14190E-01  2480   0.622E-01    0.514E-01
DAV:   8    -0.135502856319E+04    0.21871E-02   -0.20407E-02  2576   0.291E-01    0.288E-01
DAV:   9    -0.135502781789E+04    0.74530E-03   -0.84786E-03  2536   0.158E-01    0.131E-01
DAV:  10    -0.135502806048E+04   -0.24258E-03   -0.42164E-03  2416   0.107E-01    0.100E-01
DAV:  11    -0.135502795465E+04    0.10583E-03   -0.53685E-04  2496   0.562E-02    0.592E-02
DAV:  12    -0.135502794342E+04    0.11231E-04   -0.64933E-04  2272   0.390E-02    0.230E-02
DAV:  13    -0.135502794793E+04   -0.45122E-05   -0.97258E-05  2440   0.220E-02    0.117E-02
DAV:  14    -0.135502794899E+04   -0.10631E-05   -0.28418E-05  2392   0.922E-03    0.697E-03
DAV:  15    -0.135502794898E+04    0.11525E-07   -0.38333E-06  1280   0.563E-03
   4 F= -.13550279E+04 E0= -.13550279E+04  d E =-.358139E+01
 BRION: g(F)=  0.533E+01 g(S)=  0.000E+00 retain N=  3 mean eig= 1.76
 eig:   4.494  0.395  0.395
 bond charge predicted
       N       E                     dE             d eps       ncg     rms          rms(c)
DAV:   1    -0.135624849759E+04   -0.12205E+01   -0.21169E+02  1360   0.195E+01    0.333E+00
DAV:   2    -0.135733946183E+04   -0.10910E+01   -0.11700E+01  2296   0.723E+00    0.181E+00
DAV:   3    -0.135734873882E+04   -0.92770E-02   -0.76272E-01  2608   0.157E+00    0.150E+00
DAV:   4    -0.135730723427E+04    0.41505E-01   -0.25216E-01  2496   0.940E-01    0.677E-01
DAV:   5    -0.135730483267E+04    0.24016E-02   -0.77479E-02  2480   0.565E-01    0.538E-01
DAV:   6    -0.135730281545E+04    0.20172E-02   -0.61242E-02  2560   0.426E-01    0.239E-01
DAV:   7    -0.135730284311E+04   -0.27656E-04   -0.13886E-02  2392   0.224E-01    0.200E-01
DAV:   8    -0.135730262064E+04    0.22247E-03   -0.45590E-03  2464   0.116E-01    0.894E-02
DAV:   9    -0.135730262262E+04   -0.19802E-05   -0.19238E-03  2552   0.727E-02    0.609E-02
DAV:  10    -0.135730262641E+04   -0.37873E-05   -0.44922E-04  2400   0.434E-02    0.495E-02
DAV:  11    -0.135730260507E+04    0.21335E-04   -0.28206E-04  2416   0.295E-02    0.207E-02
DAV:  12    -0.135730260741E+04   -0.23354E-05   -0.11969E-04  2384   0.199E-02    0.132E-02
DAV:  13    -0.135730260784E+04   -0.42954E-06   -0.20920E-05  2096   0.995E-03    0.878E-03
DAV:  14    -0.135730260743E+04    0.40271E-06   -0.12677E-05  1640   0.634E-03    0.342E-03
DAV:  15    -0.135730260756E+04   -0.12822E-06   -0.23986E-06  1056   0.485E-03
   5 F= -.13573026E+04 E0= -.13573026E+04  d E =-.227466E+01
 BRION: g(F)=  0.272E+01 g(S)=  0.000E+00 retain N=  4 mean eig= 1.43
 eig:   4.727  0.449  0.449  0.106
 bond charge predicted
       N       E                     dE             d eps       ncg     rms          rms(c)
DAV:   1    -0.135808561767E+04   -0.78301E+00   -0.15632E+02  1360   0.169E+01    0.254E+00
DAV:   2    -0.135883968981E+04   -0.75407E+00   -0.79985E+00  2320   0.632E+00    0.133E+00
DAV:   3    -0.135885233243E+04   -0.12643E-01   -0.50300E-01  2592   0.129E+00    0.111E+00
DAV:   4    -0.135882742576E+04    0.24907E-01   -0.11264E-01  2536   0.673E-01    0.581E-01
DAV:   5    -0.135882223315E+04    0.51926E-02   -0.55366E-02  2472   0.445E-01    0.352E-01
DAV:   6    -0.135882193339E+04    0.29976E-03   -0.26010E-02  2592   0.307E-01    0.213E-01
DAV:   7    -0.135882180497E+04    0.12842E-03   -0.10232E-02  2440   0.183E-01    0.144E-01
DAV:   8    -0.135882176355E+04    0.41422E-04   -0.24760E-03  2480   0.936E-02    0.774E-02
DAV:   9    -0.135882172411E+04    0.39437E-04   -0.10239E-03  2560   0.557E-02    0.499E-02
DAV:  10    -0.135882175616E+04   -0.32044E-04   -0.47306E-04  2352   0.386E-02    0.494E-02
DAV:  11    -0.135882171650E+04    0.39653E-04   -0.22590E-04  2376   0.286E-02    0.182E-02
DAV:  12    -0.135882172355E+04   -0.70475E-05   -0.15042E-04  2336   0.205E-02    0.146E-02
DAV:  13    -0.135882172124E+04    0.23066E-05   -0.24100E-05  2024   0.111E-02    0.832E-03
DAV:  14    -0.135882172133E+04   -0.87006E-07   -0.17489E-05  1744   0.722E-03    0.372E-03
DAV:  15    -0.135882172124E+04    0.93874E-07   -0.16542E-06  1024   0.463E-03
   6 F= -.13588217E+04 E0= -.13588217E+04  d E =-.151911E+01
 BRION: g(F)=  0.193E+01 g(S)=  0.000E+00 retain N=  5 mean eig= 1.44
 eig:   3.894  1.482  0.610  0.610  0.588
 bond charge predicted
       N       E                     dE             d eps       ncg     rms          rms(c)
DAV:   1    -0.135888198246E+04   -0.60261E-01   -0.32272E+02  1368   0.243E+01    0.348E+00
DAV:   2    -0.136062816425E+04   -0.17462E+01   -0.18210E+01  2288   0.919E+00    0.198E+00
DAV:   3    -0.136066178166E+04   -0.33617E-01   -0.11560E+00  2576   0.190E+00    0.169E+00
DAV:   4    -0.136061517299E+04    0.46609E-01   -0.24077E-01  2512   0.910E-01    0.933E-01
DAV:   5    -0.136059714465E+04    0.18028E-01   -0.11883E-01  2432   0.615E-01    0.449E-01
DAV:   6    -0.136059846282E+04   -0.13182E-02   -0.43726E-02  2512   0.392E-01    0.392E-01
DAV:   7    -0.136059691580E+04    0.15470E-02   -0.18526E-02  2544   0.248E-01    0.202E-01
DAV:   8    -0.136059692551E+04   -0.97104E-05   -0.67202E-03  2560   0.139E-01    0.877E-02
DAV:   9    -0.136059690848E+04    0.17032E-04   -0.83986E-04  2496   0.631E-02    0.588E-02
DAV:  10    -0.136059693349E+04   -0.25017E-04   -0.46338E-04  2408   0.385E-02    0.266E-02
DAV:  11    -0.136059693100E+04    0.24988E-05   -0.11588E-04  2600   0.242E-02    0.122E-02
DAV:  12    -0.136059693685E+04   -0.58584E-05   -0.75136E-05  2496   0.146E-02    0.129E-02
DAV:  13    -0.136059693499E+04    0.18603E-05   -0.18938E-05  2128   0.914E-03    0.569E-03
DAV:  14    -0.136059693511E+04   -0.11273E-06   -0.60427E-06  1432   0.563E-03
   7 F= -.13605969E+04 E0= -.13605969E+04  d E =-.177521E+01
 BRION: g(F)=  0.799E+00 g(S)=  0.000E+00 retain N=  6 mean eig= 1.71
 eig:   5.851  1.528  1.528  0.189  0.582  0.582
 bond charge predicted
       N       E                     dE             d eps       ncg     rms          rms(c)
DAV:   1    -0.136096236831E+04   -0.36543E+00   -0.57983E+01  1376   0.109E+01    0.167E+00
DAV:   2    -0.136124985232E+04   -0.28748E+00   -0.30801E+00  2272   0.409E+00    0.808E-01
DAV:   3    -0.136126355533E+04   -0.13703E-01   -0.24444E-01  2616   0.858E-01    0.661E-01
DAV:   4    -0.136125735655E+04    0.61988E-02   -0.36912E-02  2568   0.423E-01    0.370E-01
DAV:   5    -0.136125606318E+04    0.12934E-02   -0.17895E-02  2368   0.258E-01    0.184E-01
DAV:   6    -0.136125621506E+04   -0.15189E-03   -0.64434E-03  2568   0.158E-01    0.132E-01
DAV:   7    -0.136125612720E+04    0.87859E-04   -0.28905E-03  2560   0.985E-02    0.781E-02
DAV:   8    -0.136125611169E+04    0.15516E-04   -0.78682E-04  2600   0.560E-02    0.464E-02
DAV:   9    -0.136125610203E+04    0.96612E-05   -0.21469E-04  2552   0.304E-02    0.270E-02
DAV:  10    -0.136125611082E+04   -0.87951E-05   -0.12762E-04  2400   0.200E-02    0.204E-02
DAV:  11    -0.136125610601E+04    0.48159E-05   -0.36881E-05  2392   0.133E-02    0.858E-03
DAV:  12    -0.136125610700E+04   -0.99733E-06   -0.19111E-05  1968   0.813E-03    0.682E-03
DAV:  13    -0.136125610645E+04    0.54890E-06   -0.17844E-06  1008   0.546E-03
   8 F= -.13612561E+04 E0= -.13612561E+04  d E =-.659171E+00
 BRION: g(F)=  0.493E+00 g(S)=  0.000E+00 retain N=  7 mean eig= 1.99
 eig:   7.137  2.354  2.354  0.145  0.692  0.692  0.538
 bond charge predicted
       N       E                     dE             d eps       ncg     rms          rms(c)
DAV:   1    -0.136156000723E+04   -0.30390E+00   -0.78004E+01  1376   0.126E+01    0.159E+00
DAV:   2    -0.136194624919E+04   -0.38624E+00   -0.40705E+00  2280   0.477E+00    0.785E-01
DAV:   3    -0.136196481484E+04   -0.18566E-01   -0.30449E-01  2600   0.949E-01    0.627E-01
DAV:   4    -0.136195748757E+04    0.73273E-02   -0.38204E-02  2576   0.442E-01    0.378E-01
DAV:   5    -0.136195428235E+04    0.32052E-02   -0.16780E-02  2376   0.275E-01    0.155E-01
DAV:   6    -0.136195478350E+04   -0.50115E-03   -0.88670E-03  2512   0.182E-01    0.126E-01
DAV:   7    -0.136195470006E+04    0.83436E-04   -0.29631E-03  2368   0.109E-01    0.908E-02
DAV:   8    -0.136195471498E+04   -0.14917E-04   -0.17477E-03  2432   0.704E-02    0.508E-02
DAV:   9    -0.136195469732E+04    0.17662E-04   -0.27515E-04  2424   0.369E-02    0.387E-02
DAV:  10    -0.136195468822E+04    0.90949E-05   -0.24866E-04  2328   0.293E-02    0.225E-02
DAV:  11    -0.136195468848E+04   -0.25668E-06   -0.84742E-05  2440   0.198E-02    0.952E-03
DAV:  12    -0.136195469077E+04   -0.22869E-05   -0.32671E-05  2352   0.111E-02    0.102E-02
DAV:  13    -0.136195468965E+04    0.11148E-05   -0.12953E-05  1784   0.767E-03    0.492E-03
DAV:  14    -0.136195468958E+04    0.73574E-07   -0.35726E-06  1176   0.542E-03
   9 F= -.13619547E+04 E0= -.13619547E+04  d E =-.698583E+00
 BRION: g(F)=  0.385E+00 g(S)=  0.000E+00 retain N=  8 mean eig= 1.99
 eig:   7.122  2.725  2.725  0.301  0.809  0.809  0.722  0.722
 bond charge predicted
       N       E                     dE             d eps       ncg     rms          rms(c)
DAV:   1    -0.136220379832E+04   -0.24911E+00   -0.62239E+01  1384   0.113E+01    0.134E+00
DAV:   2    -0.136251914098E+04   -0.31534E+00   -0.33470E+00  2280   0.434E+00    0.689E-01
DAV:   3    -0.136253705276E+04   -0.17912E-01   -0.26493E-01  2608   0.884E-01    0.567E-01
DAV:   4    -0.136253282153E+04    0.42312E-02   -0.27349E-02  2616   0.387E-01    0.386E-01
DAV:   5    -0.136252943842E+04    0.33831E-02   -0.13795E-02  2352   0.231E-01    0.156E-01
DAV:   6    -0.136252971926E+04   -0.28084E-03   -0.79068E-03  2456   0.168E-01    0.126E-01
DAV:   7    -0.136252969123E+04    0.28030E-04   -0.34778E-03  2424   0.113E-01    0.895E-02
DAV:   8    -0.136252968269E+04    0.85376E-05   -0.15240E-03  2584   0.727E-02    0.525E-02
DAV:   9    -0.136252966584E+04    0.16854E-04   -0.27361E-04  2512   0.360E-02    0.370E-02
DAV:  10    -0.136252966639E+04   -0.55452E-06   -0.14277E-04  2560   0.210E-02    0.197E-02
DAV:  11    -0.136252966937E+04   -0.29797E-05   -0.56985E-05  2432   0.160E-02    0.135E-02
DAV:  12    -0.136252966728E+04    0.20951E-05   -0.21695E-05  2256   0.116E-02    0.104E-02
DAV:  13    -0.136252966693E+04    0.34863E-06   -0.20955E-05  2016   0.796E-03    0.543E-03
DAV:  14    -0.136252966663E+04    0.29731E-06   -0.20765E-06  1048   0.480E-03
  10 F= -.13625297E+04 E0= -.13625297E+04  d E =-.574977E+00
 BRION: g(F)=  0.277E+00 g(S)=  0.000E+00 retain N=  9 mean eig= 2.40
 eig:   7.485  4.568  4.568  1.242  1.242  0.375  0.754  0.673  0.673
 bond charge predicted
       N       E                     dE             d eps       ncg     rms          rms(c)
DAV:   1    -0.136259716391E+04   -0.67497E-01   -0.11139E+02  1392   0.150E+01    0.181E+00
DAV:   2    -0.136316534146E+04   -0.56818E+00   -0.60218E+00  2288   0.589E+00    0.909E-01
DAV:   3    -0.136319564094E+04   -0.30299E-01   -0.46413E-01  2608   0.116E+00    0.742E-01
DAV:   4    -0.136318732957E+04    0.83114E-02   -0.49320E-02  2608   0.521E-01    0.496E-01
DAV:   5    -0.136318094443E+04    0.63851E-02   -0.22768E-02  2344   0.309E-01    0.200E-01
DAV:   6    -0.136318136912E+04   -0.42469E-03   -0.14696E-02  2440   0.230E-01    0.155E-01
DAV:   7    -0.136318136914E+04   -0.24113E-07   -0.59138E-03  2384   0.146E-01    0.119E-01
DAV:   8    -0.136318135093E+04    0.18219E-04   -0.25278E-03  2592   0.918E-02    0.675E-02
DAV:   9    -0.136318131876E+04    0.32163E-04   -0.51586E-04  2544   0.479E-02    0.459E-02
DAV:  10    -0.136318132380E+04   -0.50353E-05   -0.25456E-04  2616   0.291E-02    0.278E-02
DAV:  11    -0.136318132535E+04   -0.15499E-05   -0.10501E-04  2488   0.214E-02    0.173E-02
DAV:  12    -0.136318132311E+04    0.22334E-05   -0.42255E-05  2360   0.152E-02    0.141E-02
DAV:  13    -0.136318132215E+04    0.96095E-06   -0.36232E-05  2192   0.102E-02    0.688E-03
DAV:  14    -0.136318132214E+04    0.14668E-07   -0.81142E-06  1664   0.576E-03
  11 F= -.13631813E+04 E0= -.13631813E+04  d E =-.651656E+00
 BRION: g(F)=  0.201E+00 g(S)=  0.000E+00 retain N= 10 mean eig= 2.93
 eig:   7.688  6.906  6.906  2.020  2.020  0.500  0.805  0.805  0.814  0.814
 bond charge predicted
       N       E                     dE             d eps       ncg     rms          rms(c)
DAV:   1    -0.136330727117E+04   -0.12595E+00   -0.52956E+01  1384   0.104E+01    0.124E+00
DAV:   2    -0.136358069889E+04   -0.27343E+00   -0.29069E+00  2304   0.411E+00    0.627E-01
DAV:   3    -0.136359541443E+04   -0.14716E-01   -0.22329E-01  2600   0.796E-01    0.515E-01
DAV:   4    -0.136359173685E+04    0.36776E-02   -0.23189E-02  2608   0.357E-01    0.358E-01
DAV:   5    -0.136358820037E+04    0.35365E-02   -0.10883E-02  2344   0.223E-01    0.146E-01
DAV:   6    -0.136358835166E+04   -0.15129E-03   -0.86255E-03  2352   0.180E-01    0.111E-01
DAV:   7    -0.136358839269E+04   -0.41033E-04   -0.36175E-03  2360   0.112E-01    0.919E-02
DAV:   8    -0.136358836577E+04    0.26926E-04   -0.12670E-03  2608   0.665E-02    0.489E-02
DAV:   9    -0.136358834884E+04    0.16932E-04   -0.33024E-04  2568   0.366E-02    0.313E-02
DAV:  10    -0.136358835465E+04   -0.58131E-05   -0.12115E-04  2560   0.212E-02    0.220E-02
DAV:  11    -0.136358835395E+04    0.70098E-06   -0.58003E-05  2456   0.158E-02    0.141E-02
DAV:  12    -0.136358835281E+04    0.11365E-05   -0.29199E-05  2296   0.122E-02    0.119E-02
DAV:  13    -0.136358835176E+04    0.10548E-05   -0.20163E-05  1984   0.816E-03    0.557E-03
DAV:  14    -0.136358835155E+04    0.20424E-06   -0.39602E-06  1232   0.542E-03
  12 F= -.13635884E+04 E0= -.13635884E+04  d E =-.407029E+00
 BRION: g(F)=  0.148E+00 g(S)=  0.000E+00 retain N=  5 mean eig= 3.79
 eig:   7.187  7.187  1.805  1.805  0.969
 bond charge predicted
       N       E                     dE             d eps       ncg     rms          rms(c)
DAV:   1    -0.136369638440E+04   -0.10803E+00   -0.39934E+01  1384   0.904E+00    0.107E+00
DAV:   2    -0.136390440509E+04   -0.20802E+00   -0.22059E+00  2288   0.365E+00    0.537E-01
DAV:   3    -0.136391585698E+04   -0.11452E-01   -0.16905E-01  2600   0.698E-01    0.440E-01
DAV:   4    -0.136391324959E+04    0.26074E-02   -0.16514E-02  2608   0.305E-01    0.315E-01
DAV:   5    -0.136391031705E+04    0.29325E-02   -0.86056E-03  2320   0.195E-01    0.127E-01
DAV:   6    -0.136391048658E+04   -0.16954E-03   -0.71064E-03  2392   0.157E-01    0.983E-02
DAV:   7    -0.136391050992E+04   -0.23338E-04   -0.25909E-03  2416   0.942E-02    0.795E-02
DAV:   8    -0.136391048640E+04    0.23521E-04   -0.90116E-04  2592   0.568E-02    0.407E-02
DAV:   9    -0.136391047017E+04    0.16227E-04   -0.23931E-04  2400   0.311E-02    0.255E-02
DAV:  10    -0.136391047564E+04   -0.54699E-05   -0.82574E-05  2408   0.176E-02    0.179E-02
DAV:  11    -0.136391047378E+04    0.18678E-05   -0.35672E-05  2392   0.122E-02    0.997E-03
DAV:  12    -0.136391047392E+04   -0.14297E-06   -0.17214E-05  2096   0.907E-03    0.893E-03
DAV:  13    -0.136391047325E+04    0.66865E-06   -0.98359E-06  1728   0.621E-03
  13 F= -.13639105E+04 E0= -.13639105E+04  d E =-.322122E+00
 BRION: g(F)=  0.121E+00 g(S)=  0.000E+00 retain N=  6 mean eig= 3.84
 eig:   7.288  7.288  3.083  3.083  1.141  1.141
 bond charge predicted
       N       E                     dE             d eps       ncg     rms          rms(c)
DAV:   1    -0.136400634385E+04   -0.95870E-01   -0.35986E+01  1376   0.864E+00    0.103E+00
DAV:   2    -0.136419597814E+04   -0.18963E+00   -0.20236E+00  2304   0.347E+00    0.516E-01
DAV:   3    -0.136420689396E+04   -0.10916E-01   -0.15927E-01  2592   0.671E-01    0.423E-01
DAV:   4    -0.136420456226E+04    0.23317E-02   -0.15891E-02  2624   0.301E-01    0.299E-01
DAV:   5    -0.136420222801E+04    0.23342E-02   -0.78264E-03  2352   0.183E-01    0.121E-01
DAV:   6    -0.136420234992E+04   -0.12190E-03   -0.55770E-03  2440   0.141E-01    0.936E-02
DAV:   7    -0.136420236013E+04   -0.10215E-04   -0.23366E-03  2408   0.907E-02    0.723E-02
DAV:   8    -0.136420234589E+04    0.14245E-04   -0.88388E-04  2600   0.569E-02    0.402E-02
DAV:   9    -0.136420233643E+04    0.94534E-05   -0.19774E-04  2496   0.289E-02    0.266E-02
DAV:  10    -0.136420233919E+04   -0.27567E-05   -0.81103E-05  2520   0.169E-02    0.162E-02
DAV:  11    -0.136420234000E+04   -0.80577E-06   -0.31750E-05  2384   0.122E-02    0.103E-02
DAV:  12    -0.136420233929E+04    0.70651E-06   -0.16092E-05  2120   0.925E-03    0.846E-03
DAV:  13    -0.136420233892E+04    0.37428E-06   -0.11809E-05  1760   0.642E-03    0.445E-03
DAV:  14    -0.136420233871E+04    0.21057E-06   -0.18729E-06   976   0.452E-03
  14 F= -.13642023E+04 E0= -.13642023E+04  d E =-.291865E+00
 BRION: g(F)=  0.108E+00 g(S)=  0.000E+00 retain N=  3 mean eig= 4.06
 eig:   5.243  5.243  1.687
 bond charge predicted
       N       E                     dE             d eps       ncg     rms          rms(c)
DAV:   1    -0.136430549387E+04   -0.10315E+00   -0.22468E+01  1376   0.677E+00    0.794E-01
DAV:   2    -0.136442368170E+04   -0.11819E+00   -0.12539E+00  2296   0.275E+00    0.397E-01
DAV:   3    -0.136443057100E+04   -0.68893E-02   -0.97930E-02  2600   0.522E-01    0.321E-01
DAV:   4    -0.136442917673E+04    0.13943E-02   -0.89834E-03  2616   0.228E-01    0.231E-01
DAV:   5    -0.136442763436E+04    0.15424E-02   -0.44838E-03  2328   0.143E-01    0.927E-02
DAV:   6    -0.136442771144E+04   -0.77088E-04   -0.36095E-03  2400   0.111E-01    0.665E-02
DAV:   7    -0.136442773779E+04   -0.26348E-04   -0.13068E-03  2416   0.667E-02    0.541E-02
DAV:   8    -0.136442772858E+04    0.92147E-05   -0.42439E-04  2600   0.398E-02    0.293E-02
DAV:   9    -0.136442772036E+04    0.82148E-05   -0.12479E-04  2448   0.222E-02    0.179E-02
DAV:  10    -0.136442772318E+04   -0.28205E-05   -0.43070E-05  2472   0.130E-02    0.125E-02
DAV:  11    -0.136442772219E+04    0.98829E-06   -0.16467E-05  2040   0.883E-03    0.637E-03
DAV:  12    -0.136442772247E+04   -0.27243E-06   -0.86859E-06  1728   0.661E-03
  15 F= -.13644277E+04 E0= -.13644277E+04  d E =-.225384E+00
 BRION: g(F)=  0.966E-01 g(S)=  0.000E+00 retain N=  3 mean eig= 4.89
 eig:   6.522  6.522  1.629
 bond charge predicted
       N       E                     dE             d eps       ncg     rms          rms(c)
DAV:   1    -0.136452275469E+04   -0.95032E-01   -0.83893E+00  1384   0.414E+00    0.485E-01
DAV:   2    -0.136456704220E+04   -0.44288E-01   -0.47049E-01  2304   0.167E+00    0.245E-01
DAV:   3    -0.136456966385E+04   -0.26216E-02   -0.37225E-02  2592   0.320E-01    0.200E-01
DAV:   4    -0.136456910991E+04    0.55394E-03   -0.33711E-03  2608   0.139E-01    0.143E-01
DAV:   5    -0.136456851972E+04    0.59019E-03   -0.18901E-03  2320   0.901E-02    0.541E-02
DAV:   6    -0.136456857089E+04   -0.51169E-04   -0.13454E-03  2400   0.672E-02    0.449E-02
DAV:   7    -0.136456857177E+04   -0.87566E-06   -0.45786E-04  2440   0.402E-02    0.333E-02
DAV:   8    -0.136456856738E+04    0.43902E-05   -0.17168E-04  2560   0.249E-02    0.172E-02
DAV:   9    -0.136456856497E+04    0.24115E-05   -0.39762E-05  2264   0.132E-02    0.118E-02
DAV:  10    -0.136456856533E+04   -0.36405E-06   -0.13330E-05  2024   0.741E-03    0.707E-03
DAV:  11    -0.136456856477E+04    0.56141E-06   -0.18463E-06   976   0.520E-03
  16 F= -.13645686E+04 E0= -.13645686E+04  d E =-.140842E+00
 BRION: g(F)=  0.917E-01 g(S)=  0.000E+00 retain N=  3 mean eig= 3.69
 eig:   4.876  4.876  1.329
 bond charge predicted
       N       E                     dE             d eps       ncg     rms          rms(c)
DAV:   1    -0.136466810754E+04   -0.99542E-01   -0.27436E+01  1376   0.750E+00    0.870E-01
DAV:   2    -0.136481367793E+04   -0.14557E+00   -0.15466E+00  2304   0.303E+00    0.434E-01
DAV:   3    -0.136482263610E+04   -0.89582E-02   -0.12386E-01  2576   0.580E-01    0.354E-01
DAV:   4    -0.136482106822E+04    0.15679E-02   -0.11001E-02  2592   0.254E-01    0.260E-01
DAV:   5    -0.136481910623E+04    0.19620E-02   -0.59054E-03  2312   0.161E-01    0.104E-01
DAV:   6    -0.136481920861E+04   -0.10237E-03   -0.45560E-03  2368   0.125E-01    0.797E-02
DAV:   7    -0.136481922851E+04   -0.19905E-04   -0.17215E-03  2472   0.772E-02    0.616E-02
DAV:   8    -0.136481921305E+04    0.15467E-04   -0.57560E-04  2584   0.473E-02    0.325E-02
DAV:   9    -0.136481920409E+04    0.89594E-05   -0.15381E-04  2328   0.250E-02    0.207E-02
DAV:  10    -0.136481920709E+04   -0.30017E-05   -0.54025E-05  2408   0.142E-02    0.134E-02
DAV:  11    -0.136481920630E+04    0.79315E-06   -0.19518E-05  2200   0.970E-03    0.691E-03
DAV:  12    -0.136481920670E+04   -0.40297E-06   -0.10400E-05  1768   0.697E-03    0.651E-03
DAV:  13    -0.136481920612E+04    0.58139E-06   -0.22464E-06  1016   0.483E-03
  17 F= -.13648192E+04 E0= -.13648192E+04  d E =-.250641E+00
 BRION: g(F)=  0.844E-01 g(S)=  0.000E+00 retain N=  3 mean eig= 5.17
 eig:   7.059  7.059  1.406
 bond charge predicted
       N       E                     dE             d eps       ncg     rms          rms(c)
DAV:   1    -0.136490302606E+04   -0.83819E-01   -0.31904E+01  1376   0.806E+00    0.931E-01
DAV:   2    -0.136507231093E+04   -0.16928E+00   -0.17981E+00  2304   0.327E+00    0.466E-01
DAV:   3    -0.136508268899E+04   -0.10378E-01   -0.14423E-01  2584   0.624E-01    0.378E-01
DAV:   4    -0.136508079722E+04    0.18918E-02   -0.12455E-02  2600   0.270E-01    0.279E-01
DAV:   5    -0.136507843421E+04    0.23630E-02   -0.66296E-03  2320   0.172E-01    0.115E-01
DAV:   6    -0.136507849083E+04   -0.56619E-04   -0.54845E-03  2336   0.137E-01    0.841E-02
DAV:   7    -0.136507853275E+04   -0.41914E-04   -0.21913E-03  2448   0.858E-02    0.685E-02
DAV:   8    -0.136507851294E+04    0.19806E-04   -0.66796E-04  2584   0.516E-02    0.370E-02
DAV:   9    -0.136507849769E+04    0.15254E-04   -0.22212E-04  2376   0.290E-02    0.217E-02
DAV:  10    -0.136507850288E+04   -0.51986E-05   -0.70472E-05  2464   0.166E-02    0.168E-02
DAV:  11    -0.136507850055E+04    0.23360E-05   -0.32523E-05  2336   0.116E-02    0.799E-03
DAV:  12    -0.136507850102E+04   -0.47505E-06   -0.12155E-05  1784   0.796E-03    0.746E-03
DAV:  13    -0.136507850056E+04    0.46201E-06   -0.70582E-06  1520   0.561E-03
  18 F= -.13650785E+04 E0= -.13650785E+04  d E =-.259294E+00
 BRION: g(F)=  0.776E-01 g(S)=  0.000E+00 retain N=  3 mean eig= 4.89
 eig:   1.448  6.614  6.614
 bond charge predicted
       N       E                     dE             d eps       ncg     rms          rms(c)
DAV:   1    -0.136516759075E+04   -0.89090E-01   -0.13658E+01  1376   0.527E+00    0.608E-01
DAV:   2    -0.136523993425E+04   -0.72343E-01   -0.76766E-01  2288   0.213E+00    0.304E-01
DAV:   3    -0.136524450583E+04   -0.45716E-02   -0.62629E-02  2568   0.416E-01    0.249E-01
DAV:   4    -0.136524374456E+04    0.76128E-03   -0.54383E-03  2592   0.179E-01    0.186E-01
DAV:   5    -0.136524270668E+04    0.10379E-02   -0.30086E-03  2328   0.116E-01    0.776E-02
DAV:   6    -0.136524273703E+04   -0.30353E-04   -0.24467E-03  2304   0.917E-02    0.590E-02
DAV:   7    -0.136524274761E+04   -0.10576E-04   -0.97304E-04  2488   0.578E-02    0.467E-02
DAV:   8    -0.136524273599E+04    0.11617E-04   -0.31875E-04  2552   0.358E-02    0.245E-02
DAV:   9    -0.136524273054E+04    0.54440E-05   -0.91739E-05  2280   0.189E-02    0.147E-02
DAV:  10    -0.136524273235E+04   -0.18038E-05   -0.29124E-05  2344   0.106E-02    0.101E-02
DAV:  11    -0.136524273151E+04    0.83656E-06   -0.85153E-06  1552   0.735E-03
  19 F= -.13652427E+04 E0= -.13652427E+04  d E =-.164231E+00
 BRION: g(F)=  0.726E-01 g(S)=  0.000E+00 retain N=  3 mean eig= 5.45
 eig:   7.167  7.167  2.026
 bond charge predicted
       N       E                     dE             d eps       ncg     rms          rms(c)
DAV:   1    -0.136531102567E+04   -0.68293E-01   -0.30073E+01  1376   0.779E+00    0.890E-01
DAV:   2    -0.136546887730E+04   -0.15785E+00   -0.16733E+00  2288   0.314E+00    0.445E-01
DAV:   3    -0.136547873904E+04   -0.98617E-02   -0.13570E-01  2568   0.610E-01    0.364E-01
DAV:   4    -0.136547708933E+04    0.16497E-02   -0.11688E-02  2608   0.260E-01    0.275E-01
DAV:   5    -0.136547470019E+04    0.23891E-02   -0.63854E-03  2312   0.171E-01    0.117E-01
DAV:   6    -0.136547471432E+04   -0.14129E-04   -0.55851E-03  2280   0.139E-01    0.854E-02
DAV:   7    -0.136547475407E+04   -0.39743E-04   -0.22957E-03  2472   0.882E-02    0.706E-02
DAV:   8    -0.136547472949E+04    0.24576E-04   -0.67481E-04  2568   0.529E-02    0.378E-02
DAV:   9    -0.136547471238E+04    0.17114E-04   -0.23873E-04  2408   0.296E-02    0.211E-02
DAV:  10    -0.136547471819E+04   -0.58147E-05   -0.71878E-05  2448   0.169E-02    0.165E-02
DAV:  11    -0.136547471592E+04    0.22738E-05   -0.31257E-05  2248   0.115E-02    0.862E-03
DAV:  12    -0.136547471616E+04   -0.24296E-06   -0.13254E-05  1832   0.830E-03    0.795E-03
DAV:  13    -0.136547471564E+04    0.51458E-06   -0.79018E-06  1576   0.594E-03
  20 F= -.13654747E+04 E0= -.13654747E+04  d E =-.231984E+00
 BRION: g(F)=  0.667E-01 g(S)=  0.000E+00 retain N=  2 mean eig= 4.27
 eig:   4.268  4.268
