 running on  160 total cores
 distrk:  each k-point on  160 cores,    1 groups
 distr:  one band on   20 cores,    8 groups
 using from now: INCAR     
 vasp.5.4.4.18Apr17-6-g9f103f2a35 (build May 01 2020 14:22:42) gamma-only       
  
 POSCAR found type information on POSCAR  O  La Zr Li Al
 POSCAR found :  5 types and     188 ions
 scaLAPACK will be used
 LDA part: xc-table for Pade appr. of Perdew
 POSCAR, INCAR and KPOINTS ok, starting setup
 FFT: planning ...
 WAVECAR not read
 WARNING: random wavefunctions but no delay for mixing, default for NELMDL
 entering main loop
       N       E                     dE             d eps       ncg     rms          rms(c)
DAV:   1     0.252651654739E+05    0.25265E+05   -0.42019E+05  1608   0.253E+03
DAV:   2     0.947344937059E+04   -0.15792E+05   -0.14583E+05  1432   0.712E+02
DAV:   3     0.273803834774E+04   -0.67354E+04   -0.61400E+04  1504   0.355E+02
DAV:   4    -0.327522229189E+03   -0.30656E+04   -0.28584E+04  2032   0.221E+02
DAV:   5    -0.139602429316E+04   -0.10685E+04   -0.10169E+04  2528   0.140E+02    0.116E+02
DAV:   6    -0.129861797685E+04    0.97406E+02   -0.15196E+03  2448   0.667E+01    0.503E+01
DAV:   7    -0.132160010597E+04   -0.22982E+02   -0.42776E+02  2552   0.345E+01    0.270E+01
DAV:   8    -0.132561713201E+04   -0.40170E+01   -0.25824E+02  2528   0.278E+01    0.239E+01
DAV:   9    -0.132196835476E+04    0.36488E+01   -0.40669E+01  2568   0.139E+01    0.841E+00
DAV:  10    -0.132233021282E+04   -0.36186E+00   -0.14631E+01  2616   0.720E+00    0.665E+00
DAV:  11    -0.132267788770E+04   -0.34767E+00   -0.55789E+00  2608   0.407E+00    0.422E+00
DAV:  12    -0.132264277335E+04    0.35114E-01   -0.19181E+00  2584   0.319E+00    0.307E+00
DAV:  13    -0.132260090660E+04    0.41867E-01   -0.13585E+00  2536   0.198E+00    0.201E+00
DAV:  14    -0.132260174419E+04   -0.83759E-03   -0.19026E-01  2584   0.102E+00    0.128E+00
DAV:  15    -0.132259867626E+04    0.30679E-02   -0.81343E-02  2560   0.490E-01    0.707E-01
DAV:  16    -0.132259625934E+04    0.24169E-02   -0.37542E-02  2600   0.334E-01    0.409E-01
DAV:  17    -0.132259669263E+04   -0.43329E-03   -0.12934E-02  2576   0.214E-01    0.195E-01
DAV:  18    -0.132259690845E+04   -0.21582E-03   -0.43097E-03  2504   0.114E-01    0.119E-01
DAV:  19    -0.132259689858E+04    0.98772E-05   -0.18198E-03  2544   0.831E-02    0.823E-02
DAV:  20    -0.132259692082E+04   -0.22247E-04   -0.75876E-04  2536   0.462E-02    0.271E-02
DAV:  21    -0.132259694053E+04   -0.19704E-04   -0.21187E-04  2600   0.282E-02    0.339E-02
DAV:  22    -0.132259694681E+04   -0.62831E-05   -0.92006E-05  2504   0.160E-02    0.114E-02
DAV:  23    -0.132259695087E+04   -0.40642E-05   -0.32053E-05  1976   0.104E-02    0.100E-02
DAV:  24    -0.132259695292E+04   -0.20421E-05   -0.11747E-05  1184   0.635E-03    0.490E-03
DAV:  25    -0.132259695388E+04   -0.96104E-06   -0.70986E-06  1208   0.608E-03
   1 F= -.13225970E+04 E0= -.13225862E+04  d E =-.132260E+04
 BRION: g(F)=  0.759E+02 g(S)=  0.000E+00
 bond charge predicted
       N       E                     dE             d eps       ncg     rms          rms(c)
DAV:   1    -0.127182080953E+04    0.50776E+02   -0.89193E+03  1704   0.140E+02    0.327E+01
DAV:   2    -0.134513960273E+04   -0.73319E+02   -0.84688E+02  2568   0.664E+01    0.164E+01
DAV:   3    -0.134304724310E+04    0.20924E+01   -0.51123E+01  2624   0.180E+01    0.107E+01
DAV:   4    -0.134055327798E+04    0.24940E+01   -0.16624E+01  2416   0.863E+00    0.504E+00
DAV:   5    -0.134035226590E+04    0.20101E+00   -0.49074E+00  2536   0.483E+00    0.338E+00
DAV:   6    -0.134025542679E+04    0.96839E-01   -0.31726E+00  2592   0.318E+00    0.197E+00
DAV:   7    -0.134022235165E+04    0.33075E-01   -0.56536E-01  2536   0.190E+00    0.127E+00
DAV:   8    -0.134022769613E+04   -0.53445E-02   -0.61418E-01  2528   0.128E+00    0.931E-01
DAV:   9    -0.134022051452E+04    0.71816E-02   -0.89497E-02  2528   0.702E-01    0.561E-01
DAV:  10    -0.134021910394E+04    0.14106E-02   -0.52461E-02  2616   0.390E-01    0.213E-01
DAV:  11    -0.134022014142E+04   -0.10375E-02   -0.11429E-02  2608   0.217E-01    0.154E-01
DAV:  12    -0.134022005738E+04    0.84039E-04   -0.24247E-03  2624   0.107E-01    0.735E-02
DAV:  13    -0.134022010490E+04   -0.47519E-04   -0.15809E-03  2624   0.696E-02    0.299E-02
DAV:  14    -0.134022011860E+04   -0.13705E-04   -0.25223E-04  2616   0.345E-02    0.159E-02
DAV:  15    -0.134022012417E+04   -0.55620E-05   -0.72498E-05  2624   0.172E-02    0.730E-03
DAV:  16    -0.134022012671E+04   -0.25437E-05   -0.19036E-05  1832   0.960E-03    0.489E-03
DAV:  17    -0.134022012772E+04   -0.10072E-05   -0.94571E-06  1904   0.619E-03    0.410E-03
DAV:  18    -0.134022012768E+04    0.38228E-07   -0.15220E-06  1048   0.427E-03
   2 F= -.13402201E+04 E0= -.13402201E+04  d E =-.176232E+02
 BRION: g(F)=  0.127E+03 g(S)=  0.000E+00 retain N=  1 mean eig= 0.41
 eig:   0.414
 bond charge predicted
       N       E                     dE             d eps       ncg     rms          rms(c)
DAV:   1    -0.132045881740E+04    0.19761E+02   -0.30871E+03  1352   0.756E+01    0.229E+01
DAV:   2    -0.135735553617E+04   -0.36897E+02   -0.46478E+02  2552   0.365E+01    0.200E+01
DAV:   3    -0.135385350505E+04    0.35020E+01   -0.44283E+01  2584   0.140E+01    0.151E+01
DAV:   4    -0.135062497422E+04    0.32285E+01   -0.35699E+01  2216   0.648E+00    0.661E+00
DAV:   5    -0.135153221348E+04   -0.90724E+00   -0.93893E+00  2424   0.416E+00    0.820E+00
DAV:   6    -0.135032763370E+04    0.12046E+01   -0.11069E+01  2464   0.376E+00    0.155E+00
DAV:   7    -0.135042987852E+04   -0.10224E+00   -0.15082E+00  2360   0.262E+00    0.163E+00
DAV:   8    -0.135039726321E+04    0.32615E-01   -0.31602E-01  2584   0.101E+00    0.872E-01
DAV:   9    -0.135039077909E+04    0.64841E-02   -0.11003E-01  2536   0.581E-01    0.349E-01
DAV:  10    -0.135039087902E+04   -0.99928E-04   -0.20139E-02  2376   0.286E-01    0.160E-01
DAV:  11    -0.135039106961E+04   -0.19059E-03   -0.75806E-03  2424   0.156E-01    0.931E-02
DAV:  12    -0.135039118905E+04   -0.11944E-03   -0.21563E-03  2608   0.867E-02    0.513E-02
DAV:  13    -0.135039118238E+04    0.66701E-05   -0.53458E-04  2584   0.550E-02    0.273E-02
DAV:  14    -0.135039120824E+04   -0.25865E-04   -0.32176E-04  2624   0.343E-02    0.306E-02
DAV:  15    -0.135039120066E+04    0.75778E-05   -0.14292E-04  2608   0.232E-02    0.116E-02
DAV:  16    -0.135039120251E+04   -0.18443E-05   -0.44308E-05  2488   0.120E-02    0.657E-03
DAV:  17    -0.135039120273E+04   -0.22353E-06   -0.47494E-06  1384   0.617E-03
   3 F= -.13503912E+04 E0= -.13503912E+04  d E =-.101711E+02
 BRION: g(F)=  0.209E+02 g(S)=  0.000E+00 retain N=  2 mean eig= 1.38
 eig:   0.254  2.504
 bond charge predicted
       N       E                     dE             d eps       ncg     rms          rms(c)
DAV:   1    -0.134891959355E+04    0.14716E+01   -0.75561E+02  1376   0.320E+01    0.890E+00
DAV:   2    -0.135480315523E+04   -0.58836E+01   -0.70979E+01  2400   0.159E+01    0.554E+00
DAV:   3    -0.135447768716E+04    0.32547E+00   -0.47977E+00  2392   0.512E+00    0.440E+00
DAV:   4    -0.135418477717E+04    0.29291E+00   -0.33870E+00  2184   0.269E+00    0.183E+00
DAV:   5    -0.135421247834E+04   -0.27701E-01   -0.77120E-01  2336   0.165E+00    0.211E+00
DAV:   6    -0.135413821355E+04    0.74265E-01   -0.52082E-01  2360   0.136E+00    0.722E-01
DAV:   7    -0.135414754616E+04   -0.93326E-02   -0.28432E-01  2344   0.860E-01    0.717E-01
DAV:   8    -0.135414672707E+04    0.81909E-03   -0.58153E-02  2536   0.414E-01    0.591E-01
DAV:   9    -0.135414147867E+04    0.52484E-02   -0.22150E-02  2472   0.261E-01    0.241E-01
DAV:  10    -0.135414169559E+04   -0.21692E-03   -0.14917E-02  2528   0.183E-01    0.119E-01
DAV:  11    -0.135414156200E+04    0.13359E-03   -0.15425E-03  2576   0.907E-02    0.771E-02
DAV:  12    -0.135414155893E+04    0.30698E-05   -0.10520E-03  2464   0.496E-02    0.356E-02
DAV:  13    -0.135414156286E+04   -0.39335E-05   -0.13990E-04  2616   0.272E-02    0.265E-02
DAV:  14    -0.135414155657E+04    0.62853E-05   -0.86761E-05  2528   0.165E-02    0.117E-02
DAV:  15    -0.135414155736E+04   -0.78228E-06   -0.22167E-05  2144   0.997E-03    0.528E-03
DAV:  16    -0.135414155716E+04    0.20144E-06   -0.22709E-06  1080   0.439E-03
   4 F= -.13541416E+04 E0= -.13541416E+04  d E =-.375035E+01
 BRION: g(F)=  0.529E+01 g(S)=  0.000E+00 retain N=  3 mean eig= 2.57
 eig:   6.912  0.392  0.392
 bond charge predicted
       N       E                     dE             d eps       ncg     rms          rms(c)
DAV:   1    -0.135544445975E+04   -0.13029E+01   -0.26487E+02  1352   0.226E+01    0.374E+00
DAV:   2    -0.135680443383E+04   -0.13600E+01   -0.14628E+01  2272   0.870E+00    0.191E+00
DAV:   3    -0.135683099553E+04   -0.26562E-01   -0.10289E+00  2616   0.184E+00    0.167E+00
DAV:   4    -0.135678714690E+04    0.43849E-01   -0.23095E-01  2584   0.974E-01    0.901E-01
DAV:   5    -0.135677427022E+04    0.12877E-01   -0.98569E-02  2384   0.625E-01    0.491E-01
DAV:   6    -0.135677547879E+04   -0.12086E-02   -0.53857E-02  2568   0.453E-01    0.421E-01
DAV:   7    -0.135677342747E+04    0.20513E-02   -0.28988E-02  2312   0.296E-01    0.244E-01
DAV:   8    -0.135677356023E+04   -0.13276E-03   -0.99949E-03  2360   0.172E-01    0.127E-01
DAV:   9    -0.135677339889E+04    0.16134E-03   -0.19729E-03  2432   0.831E-02    0.823E-02
DAV:  10    -0.135677346916E+04   -0.70274E-04   -0.17935E-03  2288   0.692E-02    0.742E-02
DAV:  11    -0.135677339758E+04    0.71581E-04   -0.54309E-04  2528   0.495E-02    0.289E-02
DAV:  12    -0.135677341806E+04   -0.20477E-04   -0.33965E-04  2528   0.310E-02    0.254E-02
DAV:  13    -0.135677341107E+04    0.69868E-05   -0.10312E-04  2432   0.194E-02    0.923E-03
DAV:  14    -0.135677341208E+04   -0.10094E-05   -0.19717E-05  2024   0.960E-03    0.644E-03
DAV:  15    -0.135677341272E+04   -0.63663E-06   -0.99352E-06  1584   0.585E-03
   5 F= -.13567734E+04 E0= -.13567734E+04  d E =-.263186E+01
 BRION: g(F)=  0.264E+01 g(S)=  0.000E+00 retain N=  4 mean eig= 2.05
 eig:   6.757  0.842  0.174  0.425
 bond charge predicted
       N       E                     dE             d eps       ncg     rms          rms(c)
DAV:   1    -0.135729730271E+04   -0.52389E+00   -0.23452E+02  1344   0.209E+01    0.324E+00
DAV:   2    -0.135844781633E+04   -0.11505E+01   -0.12305E+01  2272   0.784E+00    0.170E+00
DAV:   3    -0.135847868658E+04   -0.30870E-01   -0.83815E-01  2576   0.168E+00    0.144E+00
DAV:   4    -0.135844782802E+04    0.30859E-01   -0.16201E-01  2544   0.833E-01    0.820E-01
DAV:   5    -0.135843814910E+04    0.96789E-02   -0.88642E-02  2344   0.565E-01    0.428E-01
DAV:   6    -0.135843907811E+04   -0.92901E-03   -0.37321E-02  2576   0.369E-01    0.353E-01
DAV:   7    -0.135843800024E+04    0.10779E-02   -0.18853E-02  2464   0.244E-01    0.189E-01
DAV:   8    -0.135843795877E+04    0.41461E-04   -0.51108E-03  2552   0.135E-01    0.971E-02
DAV:   9    -0.135843791694E+04    0.41833E-04   -0.10447E-03  2608   0.656E-02    0.624E-02
DAV:  10    -0.135843796021E+04   -0.43269E-04   -0.69872E-04  2288   0.436E-02    0.497E-02
DAV:  11    -0.135843792073E+04    0.39483E-04   -0.20742E-04  2512   0.321E-02    0.185E-02
DAV:  12    -0.135843793065E+04   -0.99219E-05   -0.17073E-04  2432   0.216E-02    0.189E-02
DAV:  13    -0.135843792610E+04    0.45449E-05   -0.36019E-05  2272   0.125E-02    0.861E-03
DAV:  14    -0.135843792638E+04   -0.27679E-06   -0.15502E-05  1840   0.713E-03    0.331E-03
DAV:  15    -0.135843792654E+04   -0.15681E-06   -0.12887E-06  1032   0.411E-03
   6 F= -.13584379E+04 E0= -.13584379E+04  d E =-.166451E+01
 BRION: g(F)=  0.161E+01 g(S)=  0.000E+00 retain N=  5 mean eig= 1.79
 eig:   6.418  1.052  1.052  0.033  0.373
 bond charge predicted
       N       E                     dE             d eps       ncg     rms          rms(c)
DAV:   1    -0.135852781769E+04   -0.89891E-01   -0.25469E+02  1368   0.219E+01    0.316E+00
DAV:   2    -0.135982078501E+04   -0.12930E+01   -0.13527E+01  2296   0.824E+00    0.161E+00
DAV:   3    -0.135984920092E+04   -0.28416E-01   -0.87213E-01  2600   0.166E+00    0.133E+00
DAV:   4    -0.135981270068E+04    0.36500E-01   -0.17872E-01  2536   0.865E-01    0.721E-01
DAV:   5    -0.135980164311E+04    0.11058E-01   -0.64988E-02  2488   0.513E-01    0.359E-01
DAV:   6    -0.135980157775E+04    0.65360E-04   -0.30248E-02  2472   0.338E-01    0.214E-01
DAV:   7    -0.135980136054E+04    0.21721E-03   -0.10801E-02  2288   0.205E-01    0.153E-01
DAV:   8    -0.135980148364E+04   -0.12310E-03   -0.49921E-03  2360   0.111E-01    0.905E-02
DAV:   9    -0.135980143011E+04    0.53531E-04   -0.91242E-04  2608   0.599E-02    0.602E-02
DAV:  10    -0.135980141223E+04    0.17881E-04   -0.67019E-04  2528   0.493E-02    0.350E-02
DAV:  11    -0.135980141337E+04   -0.11438E-05   -0.24666E-04  2480   0.317E-02    0.144E-02
DAV:  12    -0.135980141811E+04   -0.47377E-05   -0.70459E-05  2432   0.177E-02    0.110E-02
DAV:  13    -0.135980141853E+04   -0.41837E-06   -0.26236E-05  2296   0.104E-02    0.882E-03
DAV:  14    -0.135980141871E+04   -0.18561E-06   -0.16389E-05  1824   0.738E-03    0.568E-03
DAV:  15    -0.135980141823E+04    0.48568E-06   -0.22305E-06  1056   0.552E-03
   7 F= -.13598014E+04 E0= -.13598014E+04  d E =-.136349E+01
 BRION: g(F)=  0.872E+00 g(S)=  0.000E+00 retain N=  6 mean eig= 2.07
 eig:   7.271  1.780  1.780  0.963  0.326  0.326
 bond charge predicted
       N       E                     dE             d eps       ncg     rms          rms(c)
DAV:   1    -0.136007585928E+04   -0.27444E+00   -0.73880E+01  1376   0.121E+01    0.168E+00
DAV:   2    -0.136045378100E+04   -0.37792E+00   -0.40030E+00  2296   0.468E+00    0.850E-01
DAV:   3    -0.136047075636E+04   -0.16975E-01   -0.29985E-01  2624   0.925E-01    0.680E-01
DAV:   4    -0.136046308667E+04    0.76697E-02   -0.38749E-02  2576   0.453E-01    0.412E-01
DAV:   5    -0.136045990953E+04    0.31771E-02   -0.19767E-02  2360   0.277E-01    0.171E-01
DAV:   6    -0.136046043986E+04   -0.53033E-03   -0.87228E-03  2512   0.175E-01    0.142E-01
DAV:   7    -0.136046033999E+04    0.99868E-04   -0.29880E-03  2568   0.106E-01    0.941E-02
DAV:   8    -0.136046030495E+04    0.35040E-04   -0.14094E-03  2584   0.680E-02    0.492E-02
DAV:   9    -0.136046029257E+04    0.12380E-04   -0.22081E-04  2528   0.338E-02    0.344E-02
DAV:  10    -0.136046029660E+04   -0.40280E-05   -0.19743E-04  2416   0.252E-02    0.217E-02
DAV:  11    -0.136046029327E+04    0.33326E-05   -0.56137E-05  2416   0.171E-02    0.905E-03
DAV:  12    -0.136046029555E+04   -0.22858E-05   -0.29203E-05  2272   0.972E-03    0.932E-03
DAV:  13    -0.136046029420E+04    0.13530E-05   -0.45755E-06  1288   0.602E-03    0.482E-03
DAV:  14    -0.136046029476E+04   -0.55642E-06   -0.11835E-05  1616   0.654E-03    0.368E-03
DAV:  15    -0.136046029447E+04    0.28312E-06   -0.11531E-06  1016   0.439E-03
   8 F= -.13604603E+04 E0= -.13604603E+04  d E =-.658876E+00
 BRION: g(F)=  0.451E+00 g(S)=  0.000E+00 retain N=  7 mean eig= 2.00
 eig:   7.896  2.209  2.209  0.318  0.318  0.529  0.529
 bond charge predicted
       N       E                     dE             d eps       ncg     rms          rms(c)
DAV:   1    -0.136068352371E+04   -0.22323E+00   -0.60709E+01  1376   0.112E+01    0.149E+00
DAV:   2    -0.136099258361E+04   -0.30906E+00   -0.32562E+00  2288   0.422E+00    0.726E-01
DAV:   3    -0.136100853814E+04   -0.15955E-01   -0.24841E-01  2608   0.846E-01    0.584E-01
DAV:   4    -0.136100328358E+04    0.52546E-02   -0.33015E-02  2568   0.415E-01    0.353E-01
DAV:   5    -0.136100122860E+04    0.20550E-02   -0.12899E-02  2456   0.231E-01    0.149E-01
DAV:   6    -0.136100156205E+04   -0.33344E-03   -0.56454E-03  2488   0.144E-01    0.101E-01
DAV:   7    -0.136100153379E+04    0.28261E-04   -0.21815E-03  2480   0.953E-02    0.716E-02
DAV:   8    -0.136100155162E+04   -0.17831E-04   -0.11233E-03  2552   0.589E-02    0.445E-02
DAV:   9    -0.136100154225E+04    0.93661E-05   -0.19547E-04  2544   0.308E-02    0.334E-02
DAV:  10    -0.136100153921E+04    0.30390E-05   -0.14381E-04  2568   0.222E-02    0.195E-02
DAV:  11    -0.136100153796E+04    0.12556E-05   -0.52264E-05  2376   0.147E-02    0.817E-03
DAV:  12    -0.136100153873E+04   -0.77757E-06   -0.15574E-05  1920   0.879E-03    0.686E-03
DAV:  13    -0.136100153837E+04    0.36896E-06   -0.68342E-06  1472   0.569E-03
   9 F= -.13610015E+04 E0= -.13610015E+04  d E =-.541244E+00
 BRION: g(F)=  0.380E+00 g(S)=  0.000E+00 retain N=  8 mean eig= 1.87
 eig:   7.658  1.854  1.854  1.079  1.079  0.887  0.292  0.292
 bond charge predicted
       N       E                     dE             d eps       ncg     rms          rms(c)
DAV:   1    -0.136119000050E+04   -0.18846E+00   -0.64060E+01  1384   0.115E+01    0.139E+00
DAV:   2    -0.136151767780E+04   -0.32768E+00   -0.34705E+00  2296   0.438E+00    0.698E-01
DAV:   3    -0.136153701452E+04   -0.19337E-01   -0.27202E-01  2608   0.877E-01    0.567E-01
DAV:   4    -0.136153330928E+04    0.37052E-02   -0.28888E-02  2616   0.402E-01    0.393E-01
DAV:   5    -0.136153007749E+04    0.32318E-02   -0.11948E-02  2424   0.230E-01    0.167E-01
DAV:   6    -0.136153023464E+04   -0.15715E-03   -0.83934E-03  2408   0.179E-01    0.108E-01
DAV:   7    -0.136153033966E+04   -0.10502E-03   -0.37847E-03  2416   0.115E-01    0.931E-02
DAV:   8    -0.136153030834E+04    0.31319E-04   -0.12144E-03  2616   0.669E-02    0.544E-02
DAV:   9    -0.136153028749E+04    0.20844E-04   -0.38010E-04  2560   0.383E-02    0.327E-02
DAV:  10    -0.136153029733E+04   -0.98395E-05   -0.15801E-04  2600   0.239E-02    0.245E-02
DAV:  11    -0.136153029480E+04    0.25370E-05   -0.65552E-05  2464   0.167E-02    0.141E-02
DAV:  12    -0.136153029390E+04    0.89980E-06   -0.34247E-05  2264   0.123E-02    0.113E-02
DAV:  13    -0.136153029298E+04    0.91801E-06   -0.19392E-05  1992   0.828E-03    0.530E-03
DAV:  14    -0.136153029283E+04    0.14932E-06   -0.34858E-06  1120   0.530E-03
  10 F= -.13615303E+04 E0= -.13615303E+04  d E =-.528754E+00
 BRION: g(F)=  0.289E+00 g(S)=  0.000E+00 retain N=  8 mean eig= 1.75
 eig:   3.745  3.745  2.081  2.081  0.239  0.239  0.922  0.922
 bond charge predicted
       N       E                     dE             d eps       ncg     rms          rms(c)
DAV:   1    -0.136170518912E+04   -0.17490E+00   -0.50306E+01  1384   0.102E+01    0.121E+00
DAV:   2    -0.136196634290E+04   -0.26115E+00   -0.27838E+00  2296   0.393E+00    0.612E-01
DAV:   3    -0.136198289115E+04   -0.16548E-01   -0.22542E-01  2608   0.794E-01    0.505E-01
DAV:   4    -0.136198029798E+04    0.25932E-02   -0.22230E-02  2608   0.360E-01    0.361E-01
DAV:   5    -0.136197763242E+04    0.26656E-02   -0.99289E-03  2432   0.202E-01    0.151E-01
DAV:   6    -0.136197776094E+04   -0.12852E-03   -0.67008E-03  2408   0.156E-01    0.998E-02
DAV:   7    -0.136197783803E+04   -0.77095E-04   -0.32080E-03  2472   0.104E-01    0.810E-02
DAV:   8    -0.136197781742E+04    0.20613E-04   -0.99198E-04  2616   0.624E-02    0.473E-02
DAV:   9    -0.136197780502E+04    0.12403E-04   -0.26878E-04  2592   0.329E-02    0.305E-02
DAV:  10    -0.136197781034E+04   -0.53201E-05   -0.10307E-04  2592   0.192E-02    0.195E-02
DAV:  11    -0.136197781146E+04   -0.11273E-05   -0.46311E-05  2424   0.141E-02    0.135E-02
DAV:  12    -0.136197780968E+04    0.17838E-05   -0.23506E-05  2224   0.110E-02    0.981E-03
DAV:  13    -0.136197780920E+04    0.48128E-06   -0.15727E-05  1920   0.731E-03    0.462E-03
DAV:  14    -0.136197780900E+04    0.20200E-06   -0.20615E-06  1032   0.467E-03
  11 F= -.13619778E+04 E0= -.13619778E+04  d E =-.447516E+00
 BRION: g(F)=  0.228E+00 g(S)=  0.000E+00 retain N=  9 mean eig= 2.20
 eig:   5.498  5.498  2.682  2.682  0.212  0.212  1.071  1.071  0.842
 bond charge predicted
       N       E                     dE             d eps       ncg     rms          rms(c)
DAV:   1    -0.136213425790E+04   -0.15645E+00   -0.54405E+01  1384   0.107E+01    0.125E+00
DAV:   2    -0.136241859069E+04   -0.28433E+00   -0.30238E+00  2296   0.415E+00    0.619E-01
DAV:   3    -0.136243688442E+04   -0.18294E-01   -0.24606E-01  2592   0.824E-01    0.502E-01
DAV:   4    -0.136243416735E+04    0.27171E-02   -0.24038E-02  2616   0.372E-01    0.361E-01
DAV:   5    -0.136243134701E+04    0.28203E-02   -0.92356E-03  2424   0.201E-01    0.157E-01
DAV:   6    -0.136243132395E+04    0.23055E-04   -0.69909E-03  2328   0.162E-01    0.879E-02
DAV:   7    -0.136243148754E+04   -0.16358E-03   -0.36508E-03  2472   0.110E-01    0.809E-02
DAV:   8    -0.136243146456E+04    0.22976E-04   -0.80957E-04  2624   0.595E-02    0.500E-02
DAV:   9    -0.136243144870E+04    0.15865E-04   -0.35062E-04  2600   0.351E-02    0.279E-02
DAV:  10    -0.136243145926E+04   -0.10563E-04   -0.11633E-04  2600   0.220E-02    0.215E-02
DAV:  11    -0.136243145722E+04    0.20388E-05   -0.48917E-05  2456   0.142E-02    0.121E-02
DAV:  12    -0.136243145636E+04    0.86360E-06   -0.28514E-05  2248   0.110E-02    0.890E-03
DAV:  13    -0.136243145595E+04    0.40639E-06   -0.11958E-05  1800   0.714E-03    0.525E-03
DAV:  14    -0.136243145588E+04    0.73022E-07   -0.51662E-06  1400   0.511E-03
  12 F= -.13624315E+04 E0= -.13624315E+04  d E =-.453647E+00
 BRION: g(F)=  0.192E+00 g(S)=  0.000E+00 retain N= 10 mean eig= 2.63
 eig:   6.250  6.250  4.123  4.123  1.592  1.592  0.185  0.185  0.999  0.999
 bond charge predicted
       N       E                     dE             d eps       ncg     rms          rms(c)
DAV:   1    -0.136250822392E+04   -0.76768E-01   -0.79581E+01  1392   0.130E+01    0.150E+00
DAV:   2    -0.136293021081E+04   -0.42199E+00   -0.44970E+00  2288   0.509E+00    0.751E-01
DAV:   3    -0.136295861038E+04   -0.28400E-01   -0.37442E-01  2600   0.102E+00    0.615E-01
DAV:   4    -0.136295517417E+04    0.34362E-02   -0.34430E-02  2616   0.455E-01    0.460E-01
DAV:   5    -0.136295065331E+04    0.45209E-02   -0.13669E-02  2424   0.245E-01    0.209E-01
DAV:   6    -0.136295044928E+04    0.20403E-03   -0.11652E-02  2288   0.208E-01    0.111E-01
DAV:   7    -0.136295072230E+04   -0.27303E-03   -0.61865E-03  2464   0.139E-01    0.104E-01
DAV:   8    -0.136295068532E+04    0.36985E-04   -0.13082E-03  2616   0.769E-02    0.688E-02
DAV:   9    -0.136295064700E+04    0.38320E-04   -0.61987E-04  2584   0.457E-02    0.357E-02
DAV:  10    -0.136295066439E+04   -0.17397E-04   -0.19391E-04  2592   0.286E-02    0.265E-02
DAV:  11    -0.136295066420E+04    0.19323E-06   -0.69382E-05  2496   0.172E-02    0.173E-02
DAV:  12    -0.136295066158E+04    0.26245E-05   -0.57103E-05  2328   0.153E-02    0.127E-02
DAV:  13    -0.136295066086E+04    0.71233E-06   -0.25469E-05  2256   0.985E-03    0.801E-03
DAV:  14    -0.136295066057E+04    0.28942E-06   -0.85212E-06  1712   0.575E-03
  13 F= -.13629507E+04 E0= -.13629507E+04  d E =-.519205E+00
 BRION: g(F)=  0.162E+00 g(S)=  0.000E+00 retain N= 10 mean eig= 2.84
 eig:   7.806  7.806  2.110  2.110  2.355  2.355  1.185  1.185  0.732  0.732
 bond charge predicted
       N       E                     dE             d eps       ncg     rms          rms(c)
DAV:   1    -0.136301217073E+04   -0.61510E-01   -0.72992E+01  1400   0.124E+01    0.143E+00
DAV:   2    -0.136340599753E+04   -0.39383E+00   -0.41965E+00  2296   0.494E+00    0.729E-01
DAV:   3    -0.136343300641E+04   -0.27009E-01   -0.35448E-01  2592   0.978E-01    0.601E-01
DAV:   4    -0.136342983773E+04    0.31687E-02   -0.31948E-02  2608   0.437E-01    0.455E-01
DAV:   5    -0.136342548143E+04    0.43563E-02   -0.13340E-02  2392   0.238E-01    0.212E-01
DAV:   6    -0.136342524106E+04    0.24037E-03   -0.11697E-02  2256   0.205E-01    0.117E-01
DAV:   7    -0.136342546893E+04   -0.22787E-03   -0.63272E-03  2440   0.141E-01    0.107E-01
DAV:   8    -0.136342543369E+04    0.35242E-04   -0.14101E-03  2600   0.789E-02    0.746E-02
DAV:   9    -0.136342537809E+04    0.55601E-04   -0.65713E-04  2584   0.467E-02    0.374E-02
DAV:  10    -0.136342539509E+04   -0.17001E-04   -0.21484E-04  2576   0.295E-02    0.262E-02
DAV:  11    -0.136342539754E+04   -0.24500E-05   -0.66945E-05  2416   0.168E-02    0.186E-02
DAV:  12    -0.136342539401E+04    0.35241E-05   -0.63215E-05  2208   0.160E-02    0.140E-02
DAV:  13    -0.136342539312E+04    0.89429E-06   -0.29821E-05  2256   0.108E-02    0.942E-03
DAV:  14    -0.136342539257E+04    0.55447E-06   -0.99669E-06  1760   0.618E-03
  14 F= -.13634254E+04 E0= -.13634254E+04  d E =-.474732E+00
 BRION: g(F)=  0.138E+00 g(S)=  0.000E+00 retain N=  6 mean eig= 4.01
 eig:   6.910  6.910  3.730  3.730  1.389  1.389
 bond charge predicted
       N       E                     dE             d eps       ncg     rms          rms(c)
DAV:   1    -0.136356376788E+04   -0.13837E+00   -0.23423E+01  1392   0.704E+00    0.828E-01
DAV:   2    -0.136368946671E+04   -0.12570E+00   -0.13423E+00  2296   0.277E+00    0.415E-01
DAV:   3    -0.136369829984E+04   -0.88331E-02   -0.11587E-01  2584   0.570E-01    0.344E-01
DAV:   4    -0.136369722653E+04    0.10733E-02   -0.10649E-02  2600   0.253E-01    0.257E-01
DAV:   5    -0.136369586121E+04    0.13653E-02   -0.49968E-03  2376   0.144E-01    0.116E-01
DAV:   6    -0.136369585537E+04    0.58375E-05   -0.37436E-03  2296   0.119E-01    0.746E-02
DAV:   7    -0.136369589713E+04   -0.41760E-04   -0.19415E-03  2456   0.801E-02    0.606E-02
DAV:   8    -0.136369588379E+04    0.13340E-04   -0.54016E-04  2608   0.472E-02    0.383E-02
DAV:   9    -0.136369587291E+04    0.10881E-04   -0.18411E-04  2568   0.256E-02    0.213E-02
DAV:  10    -0.136369587670E+04   -0.37884E-05   -0.54437E-05  2560   0.150E-02    0.144E-02
DAV:  11    -0.136369587718E+04   -0.48614E-06   -0.20924E-05  2184   0.967E-03    0.964E-03
DAV:  12    -0.136369587644E+04    0.74223E-06   -0.14328E-05  1856   0.833E-03    0.746E-03
DAV:  13    -0.136369587614E+04    0.30220E-06   -0.85975E-06  1736   0.609E-03
  15 F= -.13636959E+04 E0= -.13636959E+04  d E =-.270484E+00
 BRION: g(F)=  0.126E+00 g(S)=  0.000E+00 retain N=  4 mean eig= 4.97
 eig:   7.816  7.816  2.116  2.116
 bond charge predicted
       N       E                     dE             d eps       ncg     rms          rms(c)
DAV:   1    -0.136381447385E+04   -0.11860E+00   -0.20962E+01  1392   0.659E+00    0.755E-01
DAV:   2    -0.136392427073E+04   -0.10980E+00   -0.11586E+00  2280   0.253E+00    0.378E-01
DAV:   3    -0.136393188829E+04   -0.76176E-02   -0.98213E-02  2584   0.528E-01    0.319E-01
DAV:   4    -0.136393107038E+04    0.81791E-03   -0.87847E-03  2624   0.227E-01    0.245E-01
DAV:   5    -0.136392971754E+04    0.13528E-02   -0.39416E-03  2360   0.133E-01    0.120E-01
DAV:   6    -0.136392962602E+04    0.91517E-04   -0.40914E-03  2200   0.125E-01    0.733E-02
DAV:   7    -0.136392968190E+04   -0.55876E-04   -0.21696E-03  2384   0.847E-02    0.692E-02
DAV:   8    -0.136392966512E+04    0.16785E-04   -0.49756E-04  2536   0.469E-02    0.499E-02
DAV:   9    -0.136392963159E+04    0.33524E-04   -0.23995E-04  2504   0.283E-02    0.244E-02
DAV:  10    -0.136392963666E+04   -0.50658E-05   -0.10601E-04  2496   0.191E-02    0.143E-02
DAV:  11    -0.136392963915E+04   -0.24916E-05   -0.30685E-05  2144   0.115E-02    0.126E-02
DAV:  12    -0.136392963739E+04    0.17622E-05   -0.22692E-05  2128   0.106E-02    0.112E-02
DAV:  13    -0.136392963639E+04    0.99950E-06   -0.15773E-05  2008   0.772E-03    0.724E-03
DAV:  14    -0.136392963570E+04    0.68257E-06   -0.22441E-06   992   0.497E-03
  16 F= -.13639296E+04 E0= -.13639296E+04  d E =-.233760E+00
 BRION: g(F)=  0.118E+00 g(S)=  0.000E+00 retain N=  3 mean eig= 3.97
 eig:   5.125  5.125  1.666
 bond charge predicted
       N       E                     dE             d eps       ncg     rms          rms(c)
DAV:   1    -0.136405820092E+04   -0.12856E+00   -0.28092E+01  1384   0.760E+00    0.872E-01
DAV:   2    -0.136420755714E+04   -0.14936E+00   -0.15825E+00  2288   0.294E+00    0.444E-01
DAV:   3    -0.136421785942E+04   -0.10302E-01   -0.13524E-01  2576   0.614E-01    0.365E-01
DAV:   4    -0.136421662613E+04    0.12333E-02   -0.12333E-02  2584   0.270E-01    0.274E-01
DAV:   5    -0.136421507282E+04    0.15533E-02   -0.51699E-03  2408   0.147E-01    0.133E-01
DAV:   6    -0.136421491571E+04    0.15711E-03   -0.43916E-03  2280   0.128E-01    0.731E-02
DAV:   7    -0.136421501468E+04   -0.98964E-04   -0.24388E-03  2496   0.891E-02    0.699E-02
DAV:   8    -0.136421499531E+04    0.19367E-04   -0.55033E-04  2584   0.496E-02    0.502E-02
DAV:   9    -0.136421496450E+04    0.30808E-04   -0.27317E-04  2448   0.298E-02    0.241E-02
DAV:  10    -0.136421497220E+04   -0.76991E-05   -0.11759E-04  2448   0.200E-02    0.166E-02
DAV:  11    -0.136421497335E+04   -0.11501E-05   -0.32323E-05  2152   0.120E-02    0.121E-02
DAV:  12    -0.136421497156E+04    0.17919E-05   -0.29818E-05  2104   0.110E-02    0.990E-03
DAV:  13    -0.136421497084E+04    0.72068E-06   -0.14345E-05  1976   0.756E-03    0.643E-03
DAV:  14    -0.136421497035E+04    0.48731E-06   -0.21295E-06  1016   0.465E-03
  17 F= -.13642150E+04 E0= -.13642150E+04  d E =-.285335E+00
 BRION: g(F)=  0.111E+00 g(S)=  0.000E+00 retain N=  3 mean eig= 3.49
 eig:   4.476  4.476  1.503
 bond charge predicted
       N       E                     dE             d eps       ncg     rms          rms(c)
DAV:   1    -0.136433403892E+04   -0.11907E+00   -0.17073E+01  1376   0.592E+00    0.679E-01
DAV:   2    -0.136442317413E+04   -0.89135E-01   -0.94008E-01  2296   0.225E+00    0.341E-01
DAV:   3    -0.136442923092E+04   -0.60568E-02   -0.79352E-02  2584   0.472E-01    0.283E-01
DAV:   4    -0.136442849784E+04    0.73309E-03   -0.71463E-03  2600   0.204E-01    0.214E-01
DAV:   5    -0.136442746708E+04    0.10308E-02   -0.31951E-03  2384   0.118E-01    0.104E-01
DAV:   6    -0.136442739005E+04    0.77032E-04   -0.29446E-03  2264   0.106E-01    0.619E-02
DAV:   7    -0.136442743603E+04   -0.45980E-04   -0.15460E-03  2432   0.716E-02    0.579E-02
DAV:   8    -0.136442742112E+04    0.14903E-04   -0.38050E-04  2536   0.404E-02    0.410E-02
DAV:   9    -0.136442739992E+04    0.21201E-04   -0.17679E-04  2432   0.243E-02    0.199E-02
DAV:  10    -0.136442740423E+04   -0.43071E-05   -0.76788E-05  2408   0.159E-02    0.126E-02
DAV:  11    -0.136442740576E+04   -0.15270E-05   -0.20479E-05  1984   0.970E-03    0.102E-02
DAV:  12    -0.136442740435E+04    0.14053E-05   -0.17998E-05  1952   0.907E-03    0.895E-03
DAV:  13    -0.136442740368E+04    0.67211E-06   -0.10224E-05  1768   0.665E-03    0.593E-03
DAV:  14    -0.136442740320E+04    0.47610E-06   -0.17305E-06   960   0.454E-03
  18 F= -.13644274E+04 E0= -.13644274E+04  d E =-.212433E+00
 BRION: g(F)=  0.105E+00 g(S)=  0.000E+00 retain N=  3 mean eig= 3.71
 eig:   4.817  4.817  1.482
 bond charge predicted
       N       E                     dE             d eps       ncg     rms          rms(c)
DAV:   1    -0.136454807715E+04   -0.12067E+00   -0.16753E+01  1384   0.582E+00    0.657E-01
DAV:   2    -0.136463516857E+04   -0.87091E-01   -0.91528E-01  2280   0.222E+00    0.333E-01
DAV:   3    -0.136464097857E+04   -0.58100E-02   -0.76579E-02  2584   0.462E-01    0.274E-01
DAV:   4    -0.136464025476E+04    0.72381E-03   -0.68055E-03  2608   0.198E-01    0.206E-01
DAV:   5    -0.136463926574E+04    0.98902E-03   -0.27921E-03  2392   0.111E-01    0.104E-01
DAV:   6    -0.136463913525E+04    0.13049E-03   -0.27178E-03  2200   0.100E-01    0.547E-02
DAV:   7    -0.136463920312E+04   -0.67868E-04   -0.15481E-03  2440   0.695E-02    0.569E-02
DAV:   8    -0.136463919117E+04    0.11945E-04   -0.32589E-04  2544   0.388E-02    0.443E-02
DAV:   9    -0.136463916288E+04    0.28295E-04   -0.18687E-04  2392   0.249E-02    0.206E-02
DAV:  10    -0.136463916810E+04   -0.52189E-05   -0.97846E-05  2360   0.173E-02    0.126E-02
DAV:  11    -0.136463916986E+04   -0.17594E-05   -0.22132E-05  1960   0.101E-02    0.104E-02
DAV:  12    -0.136463916812E+04    0.17329E-05   -0.20883E-05  1984   0.968E-03    0.884E-03
DAV:  13    -0.136463916761E+04    0.51550E-06   -0.11659E-05  1864   0.706E-03    0.664E-03
DAV:  14    -0.136463916702E+04    0.59258E-06   -0.15242E-06   944   0.446E-03
  19 F= -.13646392E+04 E0= -.13646392E+04  d E =-.211764E+00
 BRION: g(F)=  0.999E-01 g(S)=  0.000E+00 retain N=  3 mean eig= 4.63
 eig:   6.166  6.166  1.569
 bond charge predicted
       N       E                     dE             d eps       ncg     rms          rms(c)
DAV:   1    -0.136475731402E+04   -0.11815E+00   -0.19433E+01  1376   0.623E+00    0.701E-01
DAV:   2    -0.136485746009E+04   -0.10015E+00   -0.10510E+00  2296   0.239E+00    0.357E-01
DAV:   3    -0.136486387646E+04   -0.64164E-02   -0.85854E-02  2576   0.482E-01    0.294E-01
DAV:   4    -0.136486301947E+04    0.85699E-03   -0.75983E-03  2608   0.206E-01    0.223E-01
DAV:   5    -0.136486173810E+04    0.12814E-02   -0.33016E-03  2368   0.121E-01    0.110E-01
DAV:   6    -0.136486158554E+04    0.15256E-03   -0.33092E-03  2208   0.110E-01    0.603E-02
DAV:   7    -0.136486166619E+04   -0.80650E-04   -0.18633E-03  2424   0.763E-02    0.620E-02
DAV:   8    -0.136486164544E+04    0.20750E-04   -0.38329E-04  2536   0.429E-02    0.452E-02
DAV:   9    -0.136486161728E+04    0.28166E-04   -0.22854E-04  2456   0.265E-02    0.202E-02
DAV:  10    -0.136486162322E+04   -0.59372E-05   -0.94837E-05  2400   0.178E-02    0.136E-02
DAV:  11    -0.136486162448E+04   -0.12674E-05   -0.22651E-05  1992   0.101E-02    0.109E-02
DAV:  12    -0.136486162294E+04    0.15469E-05   -0.24275E-05  1976   0.102E-02    0.952E-03
DAV:  13    -0.136486162247E+04    0.46160E-06   -0.12214E-05  1880   0.734E-03    0.752E-03
DAV:  14    -0.136486162169E+04    0.78030E-06   -0.19198E-06   984   0.460E-03
  20 F= -.13648616E+04 E0= -.13648616E+04  d E =-.222455E+00
 BRION: g(F)=  0.953E-01 g(S)=  0.000E+00 retain N=  3 mean eig= 4.31
 eig:   5.720  5.720  1.493
