 running on  160 total cores
 distrk:  each k-point on  160 cores,    1 groups
 distr:  one band on   20 cores,    8 groups
 using from now: INCAR     
 vasp.5.4.4.18Apr17-6-g9f103f2a35 (build May 01 2020 14:22:42) gamma-only       
  
 POSCAR found type information on POSCAR  O  La Zr Li Al
 POSCAR found :  5 types and     188 ions
 scaLAPACK will be used
 LDA part: xc-table for Pade appr. of Perdew
 POSCAR, INCAR and KPOINTS ok, starting setup
 FFT: planning ...
 WAVECAR not read
 WARNING: random wavefunctions but no delay for mixing, default for NELMDL
 entering main loop
       N       E                     dE             d eps       ncg     rms          rms(c)
DAV:   1     0.252714469738E+05    0.25271E+05   -0.42148E+05  1624   0.253E+03
DAV:   2     0.948964605436E+04   -0.15782E+05   -0.14607E+05  1424   0.708E+02
DAV:   3     0.270596396562E+04   -0.67837E+04   -0.61960E+04  1528   0.355E+02
DAV:   4    -0.346767106682E+03   -0.30527E+04   -0.28523E+04  2072   0.226E+02
DAV:   5    -0.140530163960E+04   -0.10585E+04   -0.10219E+04  2520   0.141E+02    0.117E+02
DAV:   6    -0.129031672686E+04    0.11498E+03   -0.14036E+03  2448   0.664E+01    0.500E+01
DAV:   7    -0.131487615414E+04   -0.24559E+02   -0.41430E+02  2568   0.340E+01    0.257E+01
DAV:   8    -0.132161319645E+04   -0.67370E+01   -0.25272E+02  2536   0.269E+01    0.248E+01
DAV:   9    -0.131639364893E+04    0.52195E+01   -0.46758E+01  2536   0.145E+01    0.813E+00
DAV:  10    -0.131710281095E+04   -0.70916E+00   -0.16861E+01  2608   0.765E+00    0.680E+00
DAV:  11    -0.131746994389E+04   -0.36713E+00   -0.51316E+00  2624   0.407E+00    0.430E+00
DAV:  12    -0.131732714417E+04    0.14280E+00   -0.22798E+00  2576   0.331E+00    0.301E+00
DAV:  13    -0.131736681300E+04   -0.39669E-01   -0.82020E-01  2560   0.174E+00    0.193E+00
DAV:  14    -0.131735855212E+04    0.82609E-02   -0.20986E-01  2624   0.946E-01    0.122E+00
DAV:  15    -0.131736319561E+04   -0.46435E-02   -0.73544E-02  2592   0.519E-01    0.889E-01
DAV:  16    -0.131736351556E+04   -0.31996E-03   -0.26414E-02  2608   0.295E-01    0.531E-01
DAV:  17    -0.131736360550E+04   -0.89935E-04   -0.15853E-02  2424   0.242E-01    0.282E-01
DAV:  18    -0.131736383649E+04   -0.23099E-03   -0.39789E-03  2384   0.128E-01    0.120E-01
DAV:  19    -0.131736385240E+04   -0.15911E-04   -0.21075E-03  2592   0.884E-02    0.787E-02
DAV:  20    -0.131736389428E+04   -0.41887E-04   -0.58166E-04  2552   0.436E-02    0.324E-02
DAV:  21    -0.131736391481E+04   -0.20526E-04   -0.23224E-04  2568   0.274E-02    0.344E-02
DAV:  22    -0.131736393138E+04   -0.16566E-04   -0.62417E-05  2456   0.142E-02    0.125E-02
DAV:  23    -0.131736392854E+04    0.28407E-05   -0.31583E-05  2064   0.104E-02    0.967E-03
DAV:  24    -0.131736393403E+04   -0.54951E-05   -0.10801E-05  1280   0.777E-03    0.354E-03
DAV:  25    -0.131736393230E+04    0.17339E-05   -0.52578E-06  1016   0.639E-03    0.398E-03
DAV:  26    -0.131736393408E+04   -0.17873E-05   -0.31533E-06   984   0.553E-03    0.176E-03
DAV:  27    -0.131736393551E+04   -0.14293E-05   -0.16744E-06   944   0.464E-03    0.199E-03
DAV:  28    -0.131736393380E+04    0.17168E-05   -0.72452E-07   896   0.386E-03    0.281E-03
DAV:  29    -0.131736393447E+04   -0.67482E-06   -0.43658E-07   872   0.267E-03
   1 F= -.13173639E+04 E0= -.13173639E+04  d E =-.131736E+04
 BRION: g(F)=  0.775E+02 g(S)=  0.000E+00
 bond charge predicted
       N       E                     dE             d eps       ncg     rms          rms(c)
DAV:   1    -0.127528568421E+04    0.42078E+02   -0.85970E+03  1744   0.140E+02    0.323E+01
DAV:   2    -0.134403285408E+04   -0.68747E+02   -0.78594E+02  2576   0.630E+01    0.163E+01
DAV:   3    -0.134135413150E+04    0.26787E+01   -0.44953E+01  2600   0.168E+01    0.107E+01
DAV:   4    -0.133892974945E+04    0.24244E+01   -0.19072E+01  2344   0.883E+00    0.496E+00
DAV:   5    -0.133885457513E+04    0.75174E-01   -0.52291E+00  2504   0.487E+00    0.370E+00
DAV:   6    -0.133872094639E+04    0.13363E+00   -0.30223E+00  2584   0.302E+00    0.190E+00
DAV:   7    -0.133870605978E+04    0.14887E-01   -0.44256E-01  2552   0.176E+00    0.127E+00
DAV:   8    -0.133869906548E+04    0.69943E-02   -0.47312E-01  2552   0.118E+00    0.756E-01
DAV:   9    -0.133870157786E+04   -0.25124E-02   -0.88588E-02  2536   0.613E-01    0.616E-01
DAV:  10    -0.133869774214E+04    0.38357E-02   -0.29943E-02  2616   0.336E-01    0.303E-01
DAV:  11    -0.133869825102E+04   -0.50888E-03   -0.28780E-02  2520   0.274E-01    0.186E-01
DAV:  12    -0.133869801471E+04    0.23631E-03   -0.45578E-03  2528   0.162E-01    0.901E-02
DAV:  13    -0.133869808158E+04   -0.66873E-04   -0.18994E-03  2624   0.755E-02    0.286E-02
DAV:  14    -0.133869810322E+04   -0.21634E-04   -0.24153E-04  2624   0.355E-02    0.128E-02
DAV:  15    -0.133869811088E+04   -0.76613E-05   -0.74325E-05  2624   0.162E-02    0.790E-03
DAV:  16    -0.133869811319E+04   -0.23137E-05   -0.18909E-05  1912   0.101E-02    0.638E-03
DAV:  17    -0.133869811365E+04   -0.46207E-06   -0.63975E-06  1496   0.631E-03
   2 F= -.13386981E+04 E0= -.13386981E+04  d E =-.213342E+02
 BRION: g(F)=  0.119E+03 g(S)=  0.000E+00 retain N=  1 mean eig= 0.42
 eig:   0.425
 bond charge predicted
       N       E                     dE             d eps       ncg     rms          rms(c)
DAV:   1    -0.131756084501E+04    0.21137E+02   -0.30922E+03  1344   0.729E+01    0.230E+01
DAV:   2    -0.135495355057E+04   -0.37393E+02   -0.47369E+02  2472   0.359E+01    0.206E+01
DAV:   3    -0.135157345956E+04    0.33801E+01   -0.43262E+01  2576   0.140E+01    0.158E+01
DAV:   4    -0.134835385791E+04    0.32196E+01   -0.36789E+01  2168   0.686E+00    0.711E+00
DAV:   5    -0.134941202932E+04   -0.10582E+01   -0.10550E+01  2432   0.438E+00    0.887E+00
DAV:   6    -0.134802681317E+04    0.13852E+01   -0.13342E+01  2472   0.394E+00    0.177E+00
DAV:   7    -0.134810937637E+04   -0.82563E-01   -0.16073E+00  2392   0.273E+00    0.159E+00
DAV:   8    -0.134808303474E+04    0.26342E-01   -0.46601E-01  2576   0.114E+00    0.642E-01
DAV:   9    -0.134808359823E+04   -0.56349E-03   -0.79156E-02  2528   0.572E-01    0.346E-01
DAV:  10    -0.134808394023E+04   -0.34200E-03   -0.21527E-02  2312   0.279E-01    0.187E-01
DAV:  11    -0.134808407541E+04   -0.13518E-03   -0.71523E-03  2568   0.161E-01    0.133E-01
DAV:  12    -0.134808410326E+04   -0.27845E-04   -0.31763E-03  2616   0.990E-02    0.870E-02
DAV:  13    -0.134808403066E+04    0.72599E-04   -0.16099E-03  2544   0.753E-02    0.457E-02
DAV:  14    -0.134808405488E+04   -0.24220E-04   -0.50350E-04  2528   0.442E-02    0.441E-02
DAV:  15    -0.134808403628E+04    0.18596E-04   -0.23350E-04  2576   0.275E-02    0.179E-02
DAV:  16    -0.134808403693E+04   -0.64379E-06   -0.82292E-05  2528   0.157E-02    0.620E-03
DAV:  17    -0.134808403873E+04   -0.18011E-05   -0.10731E-05  1920   0.780E-03    0.534E-03
DAV:  18    -0.134808403842E+04    0.31090E-06   -0.13648E-06  1080   0.402E-03
   3 F= -.13480840E+04 E0= -.13480840E+04  d E =-.938592E+01
 BRION: g(F)=  0.183E+02 g(S)=  0.000E+00 retain N=  2 mean eig= 1.36
 eig:   0.246  2.479
 bond charge predicted
       N       E                     dE             d eps       ncg     rms          rms(c)
DAV:   1    -0.134769754351E+04    0.38650E+00   -0.79759E+02  1400   0.332E+01    0.897E+00
DAV:   2    -0.135301624720E+04   -0.53187E+01   -0.64082E+01  2472   0.151E+01    0.509E+00
DAV:   3    -0.135275995043E+04    0.25630E+00   -0.37969E+00  2552   0.464E+00    0.399E+00
DAV:   4    -0.135254920693E+04    0.21074E+00   -0.25070E+00  2248   0.225E+00    0.177E+00
DAV:   5    -0.135255194808E+04   -0.27411E-02   -0.45413E-01  2440   0.132E+00    0.166E+00
DAV:   6    -0.135251477429E+04    0.37174E-01   -0.37628E-01  2520   0.106E+00    0.597E-01
DAV:   7    -0.135251776924E+04   -0.29949E-02   -0.16273E-01  2424   0.630E-01    0.593E-01
DAV:   8    -0.135251684417E+04    0.92508E-03   -0.36102E-02  2592   0.325E-01    0.458E-01
DAV:   9    -0.135251377439E+04    0.30698E-02   -0.17890E-02  2520   0.209E-01    0.162E-01
DAV:  10    -0.135251411811E+04   -0.34372E-03   -0.78112E-03  2544   0.130E-01    0.994E-02
DAV:  11    -0.135251398518E+04    0.13293E-03   -0.82397E-04  2608   0.705E-02    0.616E-02
DAV:  12    -0.135251397192E+04    0.13256E-04   -0.82115E-04  2368   0.414E-02    0.211E-02
DAV:  13    -0.135251398206E+04   -0.10132E-04   -0.10177E-04  2536   0.226E-02    0.155E-02
DAV:  14    -0.135251398110E+04    0.95683E-06   -0.26140E-05  2480   0.970E-03    0.101E-02
DAV:  15    -0.135251398026E+04    0.83758E-06   -0.11363E-05  1720   0.687E-03    0.381E-03
DAV:  16    -0.135251398022E+04    0.43321E-07   -0.40892E-06  1264   0.489E-03
   4 F= -.13525140E+04 E0= -.13525140E+04  d E =-.442994E+01
 BRION: g(F)=  0.635E+01 g(S)=  0.000E+00 retain N=  3 mean eig= 2.18
 eig:   5.753  0.390  0.390
 bond charge predicted
       N       E                     dE             d eps       ncg     rms          rms(c)
DAV:   1    -0.135416986051E+04   -0.16559E+01   -0.28130E+02  1352   0.220E+01    0.406E+00
DAV:   2    -0.135553046072E+04   -0.13606E+01   -0.14591E+01  2296   0.828E+00    0.211E+00
DAV:   3    -0.135552291392E+04    0.75468E-02   -0.86326E-01  2624   0.170E+00    0.166E+00
DAV:   4    -0.135546818994E+04    0.54724E-01   -0.40921E-01  2360   0.120E+00    0.697E-01
DAV:   5    -0.135547034906E+04   -0.21591E-02   -0.11508E-01  2464   0.694E-01    0.648E-01
DAV:   6    -0.135546709154E+04    0.32575E-02   -0.90091E-02  2464   0.474E-01    0.244E-01
DAV:   7    -0.135546701958E+04    0.71960E-04   -0.12678E-02  2448   0.234E-01    0.187E-01
DAV:   8    -0.135546679876E+04    0.22082E-03   -0.63111E-03  2448   0.135E-01    0.705E-02
DAV:   9    -0.135546687455E+04   -0.75788E-04   -0.15549E-03  2528   0.781E-02    0.707E-02
DAV:  10    -0.135546683544E+04    0.39103E-04   -0.59862E-04  2560   0.446E-02    0.317E-02
DAV:  11    -0.135546684234E+04   -0.68924E-05   -0.27858E-04  2544   0.295E-02    0.186E-02
DAV:  12    -0.135546684275E+04   -0.40961E-06   -0.48601E-05  2488   0.144E-02    0.146E-02
DAV:  13    -0.135546684164E+04    0.11071E-05   -0.25333E-05  2400   0.999E-03    0.756E-03
DAV:  14    -0.135546684172E+04   -0.84387E-07   -0.11025E-05  1896   0.649E-03    0.270E-03
DAV:  15    -0.135546684185E+04   -0.13169E-06   -0.14254E-06  1048   0.411E-03
   5 F= -.13554668E+04 E0= -.13554668E+04  d E =-.295286E+01
 BRION: g(F)=  0.307E+01 g(S)=  0.000E+00 retain N=  4 mean eig= 1.81
 eig:   5.397  0.817  0.515  0.515
 bond charge predicted
       N       E                     dE             d eps       ncg     rms          rms(c)
DAV:   1    -0.135641769706E+04   -0.95086E+00   -0.25126E+02  1360   0.216E+01    0.327E+00
DAV:   2    -0.135764389031E+04   -0.12262E+01   -0.13157E+01  2288   0.798E+00    0.175E+00
DAV:   3    -0.135767273811E+04   -0.28848E-01   -0.88619E-01  2592   0.171E+00    0.150E+00
DAV:   4    -0.135763635761E+04    0.36381E-01   -0.18021E-01  2576   0.881E-01    0.839E-01
DAV:   5    -0.135762360803E+04    0.12750E-01   -0.85147E-02  2360   0.580E-01    0.440E-01
DAV:   6    -0.135762469359E+04   -0.10856E-02   -0.43846E-02  2536   0.401E-01    0.367E-01
DAV:   7    -0.135762336378E+04    0.13298E-02   -0.20739E-02  2424   0.261E-01    0.211E-01
DAV:   8    -0.135762343297E+04   -0.69192E-04   -0.74602E-03  2432   0.151E-01    0.104E-01
DAV:   9    -0.135762332887E+04    0.10411E-03   -0.13841E-03  2472   0.748E-02    0.692E-02
DAV:  10    -0.135762339318E+04   -0.64312E-04   -0.11832E-03  2280   0.555E-02    0.617E-02
DAV:  11    -0.135762333417E+04    0.59012E-04   -0.35800E-04  2520   0.422E-02    0.229E-02
DAV:  12    -0.135762334933E+04   -0.15166E-04   -0.26244E-04  2432   0.275E-02    0.217E-02
DAV:  13    -0.135762334402E+04    0.53091E-05   -0.61131E-05  2384   0.159E-02    0.923E-03
DAV:  14    -0.135762334445E+04   -0.42381E-06   -0.15522E-05  1936   0.804E-03    0.483E-03
DAV:  15    -0.135762334465E+04   -0.20089E-06   -0.32801E-06  1176   0.487E-03
   6 F= -.13576233E+04 E0= -.13576233E+04  d E =-.215650E+01
 BRION: g(F)=  0.200E+01 g(S)=  0.000E+00 retain N=  5 mean eig= 1.68
 eig:   4.738  1.531  0.666  0.666  0.806
 bond charge predicted
       N       E                     dE             d eps       ncg     rms          rms(c)
DAV:   1    -0.135798107307E+04   -0.35773E+00   -0.33168E+02  1360   0.249E+01    0.380E+00
DAV:   2    -0.135967390726E+04   -0.16928E+01   -0.17733E+01  2272   0.934E+00    0.197E+00
DAV:   3    -0.135970378874E+04   -0.29881E-01   -0.11372E+00  2592   0.194E+00    0.159E+00
DAV:   4    -0.135965115497E+04    0.52634E-01   -0.32910E-01  2472   0.109E+00    0.741E-01
DAV:   5    -0.135964667539E+04    0.44796E-02   -0.93849E-02  2472   0.610E-01    0.512E-01
DAV:   6    -0.135964517656E+04    0.14988E-02   -0.46285E-02  2480   0.374E-01    0.218E-01
DAV:   7    -0.135964532955E+04   -0.15299E-03   -0.14315E-02  2360   0.229E-01    0.158E-01
DAV:   8    -0.135964543804E+04   -0.10849E-03   -0.45220E-03  2504   0.115E-01    0.112E-01
DAV:   9    -0.135964528202E+04    0.15602E-03   -0.17374E-03  2624   0.792E-02    0.477E-02
DAV:  10    -0.135964531725E+04   -0.35237E-04   -0.67913E-04  2528   0.486E-02    0.345E-02
DAV:  11    -0.135964531230E+04    0.49512E-05   -0.20709E-04  2568   0.289E-02    0.184E-02
DAV:  12    -0.135964531360E+04   -0.12982E-05   -0.56099E-05  2512   0.144E-02    0.922E-03
DAV:  13    -0.135964531492E+04   -0.13242E-05   -0.23989E-05  2288   0.920E-03    0.717E-03
DAV:  14    -0.135964531449E+04    0.43323E-06   -0.31344E-06  1144   0.606E-03
   7 F= -.13596453E+04 E0= -.13596453E+04  d E =-.202197E+01
 BRION: g(F)=  0.853E+00 g(S)=  0.000E+00 retain N=  6 mean eig= 1.91
 eig:   6.350  0.968  1.469  1.469  0.609  0.609
 bond charge predicted
       N       E                     dE             d eps       ncg     rms          rms(c)
DAV:   1    -0.136010242521E+04   -0.45711E+00   -0.50523E+01  1384   0.996E+00    0.153E+00
DAV:   2    -0.136034598632E+04   -0.24356E+00   -0.26058E+00  2272   0.367E+00    0.727E-01
DAV:   3    -0.136035419140E+04   -0.82051E-02   -0.18968E-01  2624   0.779E-01    0.578E-01
DAV:   4    -0.136034757623E+04    0.66152E-02   -0.35484E-02  2528   0.402E-01    0.295E-01
DAV:   5    -0.136034665108E+04    0.92515E-03   -0.13055E-02  2432   0.236E-01    0.163E-01
DAV:   6    -0.136034679504E+04   -0.14396E-03   -0.66147E-03  2576   0.148E-01    0.898E-02
DAV:   7    -0.136034677487E+04    0.20171E-04   -0.13115E-03  2424   0.782E-02    0.667E-02
DAV:   8    -0.136034677939E+04   -0.45244E-05   -0.65932E-04  2448   0.440E-02    0.359E-02
DAV:   9    -0.136034676883E+04    0.10566E-04   -0.14519E-04  2600   0.270E-02    0.212E-02
DAV:  10    -0.136034677320E+04   -0.43696E-05   -0.10659E-04  2472   0.187E-02    0.185E-02
DAV:  11    -0.136034677047E+04    0.27328E-05   -0.39612E-05  2336   0.129E-02    0.721E-03
DAV:  12    -0.136034677089E+04   -0.42519E-06   -0.12297E-05  1792   0.754E-03    0.459E-03
DAV:  13    -0.136034677081E+04    0.79890E-07   -0.16759E-06  1008   0.485E-03
   8 F= -.13603468E+04 E0= -.13603468E+04  d E =-.701456E+00
 BRION: g(F)=  0.597E+00 g(S)=  0.000E+00 retain N=  7 mean eig= 2.11
 eig:   7.071  2.469  2.469  0.686  0.700  0.700  0.648
 bond charge predicted
       N       E                     dE             d eps       ncg     rms          rms(c)
DAV:   1    -0.136072983486E+04   -0.38306E+00   -0.11988E+02  1392   0.155E+01    0.198E+00
DAV:   2    -0.136133899843E+04   -0.60916E+00   -0.64419E+00  2288   0.591E+00    0.981E-01
DAV:   3    -0.136136894299E+04   -0.29945E-01   -0.48440E-01  2600   0.118E+00    0.791E-01
DAV:   4    -0.136135796378E+04    0.10979E-01   -0.59642E-02  2568   0.556E-01    0.488E-01
DAV:   5    -0.136135267033E+04    0.52934E-02   -0.27068E-02  2408   0.330E-01    0.190E-01
DAV:   6    -0.136135346536E+04   -0.79503E-03   -0.12306E-02  2536   0.207E-01    0.148E-01
DAV:   7    -0.136135340262E+04    0.62738E-04   -0.40533E-03  2544   0.127E-01    0.101E-01
DAV:   8    -0.136135340981E+04   -0.71867E-05   -0.19032E-03  2584   0.791E-02    0.574E-02
DAV:   9    -0.136135339397E+04    0.15836E-04   -0.32800E-04  2544   0.410E-02    0.416E-02
DAV:  10    -0.136135339568E+04   -0.17041E-05   -0.22037E-04  2584   0.276E-02    0.240E-02
DAV:  11    -0.136135339426E+04    0.14159E-05   -0.84700E-05  2472   0.192E-02    0.103E-02
DAV:  12    -0.136135339586E+04   -0.16035E-05   -0.25696E-05  2280   0.115E-02    0.980E-03
DAV:  13    -0.136135339510E+04    0.76041E-06   -0.13487E-05  1760   0.719E-03    0.470E-03
DAV:  14    -0.136135339496E+04    0.14628E-06   -0.21856E-06  1024   0.520E-03
   9 F= -.13613534E+04 E0= -.13613534E+04  d E =-.100662E+01
 BRION: g(F)=  0.489E+00 g(S)=  0.000E+00 retain N=  8 mean eig= 2.19
 eig:   7.446  2.901  2.901  0.638  1.121  1.121  0.690  0.690
 bond charge predicted
       N       E                     dE             d eps       ncg     rms          rms(c)
DAV:   1    -0.136167972898E+04   -0.32633E+00   -0.61305E+01  1392   0.113E+01    0.146E+00
DAV:   2    -0.136200537193E+04   -0.32564E+00   -0.34910E+00  2296   0.446E+00    0.728E-01
DAV:   3    -0.136202304218E+04   -0.17670E-01   -0.27918E-01  2616   0.898E-01    0.599E-01
DAV:   4    -0.136201741968E+04    0.56225E-02   -0.33043E-02  2624   0.425E-01    0.382E-01
DAV:   5    -0.136201429068E+04    0.31290E-02   -0.15084E-02  2400   0.243E-01    0.152E-01
DAV:   6    -0.136201469110E+04   -0.40041E-03   -0.76935E-03  2480   0.166E-01    0.123E-01
DAV:   7    -0.136201464010E+04    0.50995E-04   -0.35308E-03  2448   0.113E-01    0.842E-02
DAV:   8    -0.136201465242E+04   -0.12317E-04   -0.14172E-03  2616   0.699E-02    0.517E-02
DAV:   9    -0.136201463542E+04    0.16996E-04   -0.24467E-04  2552   0.350E-02    0.374E-02
DAV:  10    -0.136201463762E+04   -0.21950E-05   -0.18023E-04  2552   0.231E-02    0.223E-02
DAV:  11    -0.136201463680E+04    0.81913E-06   -0.70569E-05  2440   0.178E-02    0.112E-02
DAV:  12    -0.136201463698E+04   -0.18274E-06   -0.23860E-05  2296   0.113E-02    0.947E-03
DAV:  13    -0.136201463644E+04    0.54108E-06   -0.14847E-05  1888   0.716E-03    0.443E-03
DAV:  14    -0.136201463629E+04    0.14588E-06   -0.20584E-06  1024   0.493E-03
  10 F= -.13620146E+04 E0= -.13620146E+04  d E =-.661241E+00
 BRION: g(F)=  0.361E+00 g(S)=  0.000E+00 retain N=  9 mean eig= 2.73
 eig:   7.632  5.404  5.404  1.570  1.570  0.792  0.677  0.677  0.802
 bond charge predicted
       N       E                     dE             d eps       ncg     rms          rms(c)
DAV:   1    -0.136213109780E+04   -0.11646E+00   -0.13671E+02  1400   0.167E+01    0.203E+00
DAV:   2    -0.136285649528E+04   -0.72540E+00   -0.77095E+00  2304   0.663E+00    0.104E+00
DAV:   3    -0.136289696142E+04   -0.40466E-01   -0.60334E-01  2600   0.128E+00    0.837E-01
DAV:   4    -0.136288584157E+04    0.11120E-01   -0.63239E-02  2600   0.597E-01    0.560E-01
DAV:   5    -0.136287794329E+04    0.78983E-02   -0.30169E-02  2368   0.347E-01    0.210E-01
DAV:   6    -0.136287890949E+04   -0.96621E-03   -0.17699E-02  2464   0.242E-01    0.166E-01
DAV:   7    -0.136287889068E+04    0.18813E-04   -0.59113E-03  2488   0.148E-01    0.121E-01
DAV:   8    -0.136287885530E+04    0.35381E-04   -0.24089E-03  2608   0.922E-02    0.656E-02
DAV:   9    -0.136287882913E+04    0.26166E-04   -0.49323E-04  2400   0.480E-02    0.466E-02
DAV:  10    -0.136287883974E+04   -0.10611E-04   -0.26660E-04  2504   0.305E-02    0.278E-02
DAV:  11    -0.136287883649E+04    0.32525E-05   -0.87923E-05  2480   0.209E-02    0.135E-02
DAV:  12    -0.136287883953E+04   -0.30336E-05   -0.45641E-05  2384   0.136E-02    0.133E-02
DAV:  13    -0.136287883751E+04    0.20135E-05   -0.18901E-05  1968   0.856E-03    0.592E-03
DAV:  14    -0.136287883780E+04   -0.28859E-06   -0.96034E-06  1776   0.625E-03
  11 F= -.13628788E+04 E0= -.13628788E+04  d E =-.864202E+00
 BRION: g(F)=  0.283E+00 g(S)=  0.000E+00 retain N= 10 mean eig= 3.20
 eig:   7.835  7.122  7.122  2.828  2.828  1.009  0.724  0.724  0.909  0.909
 bond charge predicted
       N       E                     dE             d eps       ncg     rms          rms(c)
DAV:   1    -0.136304309099E+04   -0.16425E+00   -0.66704E+01  1384   0.117E+01    0.140E+00
DAV:   2    -0.136339784785E+04   -0.35476E+00   -0.37811E+00  2312   0.469E+00    0.720E-01
DAV:   3    -0.136341807267E+04   -0.20225E-01   -0.29960E-01  2584   0.908E-01    0.582E-01
DAV:   4    -0.136341299885E+04    0.50738E-02   -0.31268E-02  2584   0.420E-01    0.398E-01
DAV:   5    -0.136340903137E+04    0.39675E-02   -0.14204E-02  2408   0.241E-01    0.157E-01
DAV:   6    -0.136340929447E+04   -0.26310E-03   -0.91130E-03  2408   0.178E-01    0.112E-01
DAV:   7    -0.136340934823E+04   -0.53757E-04   -0.38999E-03  2408   0.117E-01    0.863E-02
DAV:   8    -0.136340934087E+04    0.73575E-05   -0.13480E-03  2608   0.703E-02    0.497E-02
DAV:   9    -0.136340932918E+04    0.11697E-04   -0.30743E-04  2576   0.374E-02    0.351E-02
DAV:  10    -0.136340933330E+04   -0.41296E-05   -0.13995E-04  2568   0.223E-02    0.220E-02
DAV:  11    -0.136340933317E+04    0.13773E-06   -0.59575E-05  2488   0.161E-02    0.126E-02
DAV:  12    -0.136340933269E+04    0.47649E-06   -0.26801E-05  2304   0.117E-02    0.997E-03
DAV:  13    -0.136340933217E+04    0.52538E-06   -0.16606E-05  1952   0.757E-03    0.504E-03
DAV:  14    -0.136340933206E+04    0.10771E-06   -0.39035E-06  1248   0.536E-03
  12 F= -.13634093E+04 E0= -.13634093E+04  d E =-.530494E+00
 BRION: g(F)=  0.213E+00 g(S)=  0.000E+00 retain N=  7 mean eig= 2.82
 eig:   5.786  5.786  2.280  2.280  1.249  1.249  1.095
 bond charge predicted
       N       E                     dE             d eps       ncg     rms          rms(c)
DAV:   1    -0.136355999648E+04   -0.15066E+00   -0.39376E+01  1392   0.899E+00    0.109E+00
DAV:   2    -0.136376937995E+04   -0.20938E+00   -0.22260E+00  2296   0.354E+00    0.558E-01
DAV:   3    -0.136378108969E+04   -0.11710E-01   -0.17653E-01  2584   0.700E-01    0.449E-01
DAV:   4    -0.136377782023E+04    0.32695E-02   -0.19125E-02  2576   0.326E-01    0.295E-01
DAV:   5    -0.136377583430E+04    0.19859E-02   -0.85339E-03  2448   0.179E-01    0.114E-01
DAV:   6    -0.136377600311E+04   -0.16881E-03   -0.43005E-03  2456   0.119E-01    0.767E-02
DAV:   7    -0.136377602935E+04   -0.26240E-04   -0.17085E-03  2472   0.796E-02    0.549E-02
DAV:   8    -0.136377603905E+04   -0.96994E-05   -0.60289E-04  2624   0.467E-02    0.347E-02
DAV:   9    -0.136377603349E+04    0.55564E-05   -0.13271E-04  2528   0.251E-02    0.254E-02
DAV:  10    -0.136377603517E+04   -0.16819E-05   -0.80702E-05  2560   0.163E-02    0.150E-02
DAV:  11    -0.136377603479E+04    0.38173E-06   -0.32442E-05  2328   0.118E-02    0.728E-03
DAV:  12    -0.136377603485E+04   -0.56592E-07   -0.99496E-06  1848   0.778E-03
  13 F= -.13637760E+04 E0= -.13637760E+04  d E =-.366703E+00
 BRION: g(F)=  0.185E+00 g(S)=  0.000E+00 retain N=  7 mean eig= 3.48
 eig:   7.576  7.576  2.920  2.920  1.080  1.132  1.132
 bond charge predicted
       N       E                     dE             d eps       ncg     rms          rms(c)
DAV:   1    -0.136382418874E+04   -0.48154E-01   -0.61907E+01  1392   0.113E+01    0.133E+00
DAV:   2    -0.136414143856E+04   -0.31725E+00   -0.33483E+00  2320   0.441E+00    0.677E-01
DAV:   3    -0.136416015890E+04   -0.18720E-01   -0.26274E-01  2592   0.839E-01    0.545E-01
DAV:   4    -0.136415617641E+04    0.39825E-02   -0.25629E-02  2584   0.380E-01    0.378E-01
DAV:   5    -0.136415279987E+04    0.33765E-02   -0.12600E-02  2320   0.228E-01    0.143E-01
DAV:   6    -0.136415318236E+04   -0.38249E-03   -0.78248E-03  2440   0.162E-01    0.109E-01
DAV:   7    -0.136415317900E+04    0.33592E-05   -0.27938E-03  2464   0.998E-02    0.762E-02
DAV:   8    -0.136415316961E+04    0.93897E-05   -0.10313E-03  2608   0.616E-02    0.433E-02
DAV:   9    -0.136415315995E+04    0.96619E-05   -0.22485E-04  2456   0.322E-02    0.305E-02
DAV:  10    -0.136415316334E+04   -0.33906E-05   -0.10485E-04  2528   0.196E-02    0.170E-02
DAV:  11    -0.136415316341E+04   -0.68627E-07   -0.34284E-05  2448   0.129E-02    0.901E-03
DAV:  12    -0.136415316393E+04   -0.52075E-06   -0.16174E-05  2064   0.890E-03    0.780E-03
DAV:  13    -0.136415316348E+04    0.45011E-06   -0.81850E-06  1648   0.588E-03
  14 F= -.13641532E+04 E0= -.13641532E+04  d E =-.377129E+00
 BRION: g(F)=  0.140E+00 g(S)=  0.000E+00 retain N=  5 mean eig= 3.45
 eig:   6.447  6.447  1.566  1.566  1.199
 bond charge predicted
       N       E                     dE             d eps       ncg     rms          rms(c)
DAV:   1    -0.136426647072E+04   -0.11331E+00   -0.26939E+01  1368   0.748E+00    0.903E-01
DAV:   2    -0.136440555528E+04   -0.13908E+00   -0.14855E+00  2304   0.292E+00    0.456E-01
DAV:   3    -0.136441393798E+04   -0.83827E-02   -0.12128E-01  2576   0.583E-01    0.369E-01
DAV:   4    -0.136441200119E+04    0.19368E-02   -0.12409E-02  2568   0.265E-01    0.251E-01
DAV:   5    -0.136441049803E+04    0.15032E-02   -0.66263E-03  2312   0.166E-01    0.992E-02
DAV:   6    -0.136441069411E+04   -0.19608E-03   -0.39580E-03  2472   0.120E-01    0.875E-02
DAV:   7    -0.136441067170E+04    0.22410E-04   -0.16565E-03  2464   0.772E-02    0.580E-02
DAV:   8    -0.136441066707E+04    0.46303E-05   -0.61692E-04  2592   0.474E-02    0.311E-02
DAV:   9    -0.136441066274E+04    0.43332E-05   -0.10769E-04  2552   0.232E-02    0.237E-02
DAV:  10    -0.136441066312E+04   -0.38245E-06   -0.70435E-05  2408   0.152E-02    0.136E-02
DAV:  11    -0.136441066264E+04    0.47905E-06   -0.25859E-05  2264   0.111E-02    0.651E-03
DAV:  12    -0.136441066302E+04   -0.37372E-06   -0.95988E-06  1760   0.743E-03
  15 F= -.13644107E+04 E0= -.13644107E+04  d E =-.257500E+00
 BRION: g(F)=  0.124E+00 g(S)=  0.000E+00 retain N=  4 mean eig= 3.42
 eig:   5.489  5.489  1.360  1.360
 bond charge predicted
       N       E                     dE             d eps       ncg     rms          rms(c)
DAV:   1    -0.136449460211E+04   -0.83939E-01   -0.32942E+01  1376   0.823E+00    0.955E-01
DAV:   2    -0.136466151363E+04   -0.16691E+00   -0.17647E+00  2280   0.319E+00    0.480E-01
DAV:   3    -0.136467184775E+04   -0.10334E-01   -0.14251E-01  2576   0.630E-01    0.383E-01
DAV:   4    -0.136466988477E+04    0.19630E-02   -0.13510E-02  2576   0.275E-01    0.268E-01
DAV:   5    -0.136466818255E+04    0.17022E-02   -0.69271E-03  2336   0.166E-01    0.102E-01
DAV:   6    -0.136466836052E+04   -0.17797E-03   -0.39548E-03  2424   0.118E-01    0.797E-02
DAV:   7    -0.136466836852E+04   -0.79983E-05   -0.16131E-03  2456   0.747E-02    0.543E-02
DAV:   8    -0.136466836390E+04    0.46229E-05   -0.52460E-04  2600   0.454E-02    0.325E-02
DAV:   9    -0.136466835897E+04    0.49252E-05   -0.11878E-04  2552   0.233E-02    0.223E-02
DAV:  10    -0.136466836051E+04   -0.15402E-05   -0.62107E-05  2544   0.147E-02    0.120E-02
DAV:  11    -0.136466836074E+04   -0.22483E-06   -0.19724E-05  2208   0.100E-02    0.634E-03
DAV:  12    -0.136466836085E+04   -0.11704E-06   -0.82205E-06  1744   0.688E-03
  16 F= -.13646684E+04 E0= -.13646684E+04  d E =-.257698E+00
 BRION: g(F)=  0.109E+00 g(S)=  0.000E+00 retain N=  3 mean eig= 3.12
 eig:   4.033  4.033  1.299
 bond charge predicted
       N       E                     dE             d eps       ncg     rms          rms(c)
DAV:   1    -0.136476475134E+04   -0.96391E-01   -0.13874E+01  1376   0.531E+00    0.599E-01
DAV:   2    -0.136483389625E+04   -0.69145E-01   -0.72666E-01  2312   0.203E+00    0.302E-01
DAV:   3    -0.136483784046E+04   -0.39442E-02   -0.55365E-02  2592   0.393E-01    0.238E-01
DAV:   4    -0.136483700196E+04    0.83851E-03   -0.50142E-03  2592   0.167E-01    0.166E-01
DAV:   5    -0.136483625496E+04    0.74700E-03   -0.26403E-03  2288   0.107E-01    0.612E-02
DAV:   6    -0.136483634190E+04   -0.86943E-04   -0.17043E-03  2440   0.754E-02    0.514E-02
DAV:   7    -0.136483634263E+04   -0.72512E-06   -0.54960E-04  2472   0.446E-02    0.360E-02
DAV:   8    -0.136483633684E+04    0.57888E-05   -0.19223E-04  2544   0.269E-02    0.191E-02
DAV:   9    -0.136483633489E+04    0.19505E-05   -0.46314E-05  2384   0.144E-02    0.131E-02
DAV:  10    -0.136483633537E+04   -0.48005E-06   -0.19660E-05  2136   0.917E-03    0.733E-03
DAV:  11    -0.136483633486E+04    0.50879E-06   -0.29271E-06  1088   0.623E-03
  17 F= -.13648363E+04 E0= -.13648363E+04  d E =-.167974E+00
 BRION: g(F)=  0.102E+00 g(S)=  0.000E+00 retain N=  4 mean eig= 3.82
 eig:   6.389  6.389  1.253  1.253
 bond charge predicted
       N       E                     dE             d eps       ncg     rms          rms(c)
DAV:   1    -0.136491050737E+04   -0.74172E-01   -0.38125E+01  1368   0.882E+00    0.994E-01
DAV:   2    -0.136509955253E+04   -0.18905E+00   -0.19955E+00  2304   0.340E+00    0.500E-01
DAV:   3    -0.136511064581E+04   -0.11093E-01   -0.15492E-01  2584   0.666E-01    0.396E-01
DAV:   4    -0.136510850103E+04    0.21448E-02   -0.14262E-02  2600   0.281E-01    0.278E-01
DAV:   5    -0.136510656571E+04    0.19353E-02   -0.74260E-03  2320   0.174E-01    0.108E-01
DAV:   6    -0.136510675484E+04   -0.18913E-03   -0.43980E-03  2464   0.122E-01    0.874E-02
DAV:   7    -0.136510674881E+04    0.60234E-05   -0.17387E-03  2440   0.789E-02    0.587E-02
DAV:   8    -0.136510674058E+04    0.82336E-05   -0.61953E-04  2608   0.490E-02    0.350E-02
DAV:   9    -0.136510673501E+04    0.55677E-05   -0.13544E-04  2520   0.245E-02    0.242E-02
DAV:  10    -0.136510673580E+04   -0.79241E-06   -0.68157E-05  2568   0.155E-02    0.125E-02
DAV:  11    -0.136510673628E+04   -0.47953E-06   -0.22017E-05  2296   0.106E-02    0.656E-03
DAV:  12    -0.136510673641E+04   -0.12486E-06   -0.89068E-06  1776   0.712E-03
  18 F= -.13651067E+04 E0= -.13651067E+04  d E =-.270402E+00
 BRION: g(F)=  0.916E-01 g(S)=  0.000E+00 retain N=  3 mean eig= 4.10
 eig:   5.473  5.473  1.348
 bond charge predicted
       N       E                     dE             d eps       ncg     rms          rms(c)
DAV:   1    -0.136514298817E+04   -0.36252E-01   -0.47132E+01  1368   0.977E+00    0.109E+00
DAV:   2    -0.136537636670E+04   -0.23338E+00   -0.24528E+00  2280   0.375E+00    0.548E-01
DAV:   3    -0.136539054798E+04   -0.14181E-01   -0.19348E-01  2568   0.734E-01    0.434E-01
DAV:   4    -0.136538815526E+04    0.23927E-02   -0.17282E-02  2600   0.306E-01    0.314E-01
DAV:   5    -0.136538552069E+04    0.26346E-02   -0.84705E-03  2304   0.192E-01    0.128E-01
DAV:   6    -0.136538565232E+04   -0.13162E-03   -0.60383E-03  2384   0.143E-01    0.934E-02
DAV:   7    -0.136538568459E+04   -0.32270E-04   -0.24094E-03  2448   0.915E-02    0.691E-02
DAV:   8    -0.136538566718E+04    0.17410E-04   -0.76221E-04  2592   0.543E-02    0.422E-02
DAV:   9    -0.136538565395E+04    0.13223E-04   -0.21343E-04  2456   0.294E-02    0.257E-02
DAV:  10    -0.136538565754E+04   -0.35900E-05   -0.10122E-04  2496   0.190E-02    0.150E-02
DAV:  11    -0.136538565743E+04    0.11206E-06   -0.27972E-05  2368   0.125E-02    0.810E-03
DAV:  12    -0.136538565793E+04   -0.49920E-06   -0.16569E-05  2024   0.859E-03    0.806E-03
DAV:  13    -0.136538565717E+04    0.76016E-06   -0.66930E-06  1520   0.611E-03
  19 F= -.13653857E+04 E0= -.13653857E+04  d E =-.278921E+00
 BRION: g(F)=  0.836E-01 g(S)=  0.000E+00 retain N=  3 mean eig= 4.01
 eig:   1.342  5.343  5.343
 bond charge predicted
       N       E                     dE             d eps       ncg     rms          rms(c)
DAV:   1    -0.136543556636E+04   -0.49908E-01   -0.33655E+01  1368   0.826E+00    0.924E-01
DAV:   2    -0.136560182718E+04   -0.16626E+00   -0.17504E+00  2296   0.318E+00    0.463E-01
DAV:   3    -0.136561118823E+04   -0.93611E-02   -0.13156E-01  2560   0.628E-01    0.363E-01
DAV:   4    -0.136560937046E+04    0.18178E-02   -0.12645E-02  2568   0.259E-01    0.254E-01
DAV:   5    -0.136560775079E+04    0.16197E-02   -0.65038E-03  2344   0.163E-01    0.990E-02
DAV:   6    -0.136560790498E+04   -0.15419E-03   -0.36241E-03  2440   0.112E-01    0.794E-02
DAV:   7    -0.136560790509E+04   -0.11167E-06   -0.14325E-03  2472   0.721E-02    0.538E-02
DAV:   8    -0.136560789806E+04    0.70380E-05   -0.52229E-04  2560   0.446E-02    0.336E-02
DAV:   9    -0.136560789249E+04    0.55653E-05   -0.11807E-04  2512   0.229E-02    0.224E-02
DAV:  10    -0.136560789260E+04   -0.10694E-06   -0.61225E-05  2560   0.147E-02    0.114E-02
DAV:  11    -0.136560789303E+04   -0.43210E-06   -0.17113E-05  2200   0.965E-03    0.580E-03
DAV:  12    -0.136560789318E+04   -0.14590E-06   -0.77551E-06  1712   0.644E-03
  20 F= -.13656079E+04 E0= -.13656079E+04  d E =-.222236E+00
 BRION: g(F)=  0.739E-01 g(S)=  0.000E+00 retain N=  3 mean eig= 4.98
 eig:   6.565  6.565  1.803
