 running on  160 total cores
 distrk:  each k-point on  160 cores,    1 groups
 distr:  one band on   20 cores,    8 groups
 using from now: INCAR     
 vasp.5.4.4.18Apr17-6-g9f103f2a35 (build May 01 2020 14:22:42) gamma-only       
  
 POSCAR found type information on POSCAR  O  La Zr Li Al
 POSCAR found :  5 types and     188 ions
 scaLAPACK will be used
 LDA part: xc-table for Pade appr. of Perdew
 POSCAR, INCAR and KPOINTS ok, starting setup
 FFT: planning ...
 WAVECAR not read
 WARNING: random wavefunctions but no delay for mixing, default for NELMDL
 entering main loop
       N       E                     dE             d eps       ncg     rms          rms(c)
DAV:   1     0.252436736297E+05    0.25244E+05   -0.42145E+05  1624   0.253E+03
DAV:   2     0.944401055184E+04   -0.15800E+05   -0.14641E+05  1432   0.708E+02
DAV:   3     0.269627150870E+04   -0.67477E+04   -0.61514E+04  1512   0.355E+02
DAV:   4    -0.341081441709E+03   -0.30374E+04   -0.28377E+04  2048   0.224E+02
DAV:   5    -0.139694593882E+04   -0.10559E+04   -0.10135E+04  2528   0.140E+02    0.116E+02
DAV:   6    -0.129269257301E+04    0.10425E+03   -0.14765E+03  2432   0.665E+01    0.500E+01
DAV:   7    -0.131597792791E+04   -0.23285E+02   -0.41999E+02  2552   0.345E+01    0.264E+01
DAV:   8    -0.132050694453E+04   -0.45290E+01   -0.24316E+02  2536   0.270E+01    0.235E+01
DAV:   9    -0.131696752679E+04    0.35394E+01   -0.40866E+01  2560   0.140E+01    0.787E+00
DAV:  10    -0.131756904914E+04   -0.60152E+00   -0.14650E+01  2624   0.729E+00    0.656E+00
DAV:  11    -0.131793964806E+04   -0.37060E+00   -0.51982E+00  2624   0.411E+00    0.412E+00
DAV:  12    -0.131783250965E+04    0.10714E+00   -0.19374E+00  2568   0.314E+00    0.259E+00
DAV:  13    -0.131784682256E+04   -0.14313E-01   -0.10466E+00  2560   0.184E+00    0.182E+00
DAV:  14    -0.131783819048E+04    0.86321E-02   -0.19715E-01  2608   0.965E-01    0.104E+00
DAV:  15    -0.131783990050E+04   -0.17100E-02   -0.73957E-02  2560   0.497E-01    0.646E-01
DAV:  16    -0.131783998789E+04   -0.87387E-04   -0.27492E-02  2616   0.300E-01    0.368E-01
DAV:  17    -0.131784032916E+04   -0.34127E-03   -0.13253E-02  2536   0.231E-01    0.201E-01
DAV:  18    -0.131784050433E+04   -0.17517E-03   -0.35695E-03  2400   0.114E-01    0.119E-01
DAV:  19    -0.131784047251E+04    0.31817E-04   -0.21791E-03  2544   0.941E-02    0.671E-02
DAV:  20    -0.131784051745E+04   -0.44944E-04   -0.55554E-04  2536   0.416E-02    0.317E-02
DAV:  21    -0.131784053591E+04   -0.18454E-04   -0.22928E-04  2576   0.299E-02    0.303E-02
DAV:  22    -0.131784054388E+04   -0.79710E-05   -0.86978E-05  2544   0.161E-02    0.117E-02
DAV:  23    -0.131784054399E+04   -0.11441E-06   -0.23136E-05  1776   0.101E-02    0.974E-03
DAV:  24    -0.131784054659E+04   -0.25944E-05   -0.12484E-05  1496   0.680E-03    0.286E-03
DAV:  25    -0.131784054611E+04    0.47733E-06   -0.36185E-06   992   0.519E-03
   1 F= -.13178405E+04 E0= -.13178338E+04  d E =-.131784E+04
 BRION: g(F)=  0.756E+02 g(S)=  0.000E+00
 bond charge predicted
       N       E                     dE             d eps       ncg     rms          rms(c)
DAV:   1    -0.126312521972E+04    0.54715E+02   -0.95315E+03  1720   0.144E+02    0.373E+01
DAV:   2    -0.134418686113E+04   -0.81062E+02   -0.93140E+02  2576   0.674E+01    0.180E+01
DAV:   3    -0.134076910589E+04    0.34178E+01   -0.53594E+01  2616   0.178E+01    0.118E+01
DAV:   4    -0.133771015028E+04    0.30590E+01   -0.22302E+01  2424   0.982E+00    0.540E+00
DAV:   5    -0.133761558152E+04    0.94569E-01   -0.69360E+00  2536   0.558E+00    0.410E+00
DAV:   6    -0.133748079790E+04    0.13478E+00   -0.43271E+00  2552   0.351E+00    0.235E+00
DAV:   7    -0.133742142847E+04    0.59369E-01   -0.55418E-01  2528   0.208E+00    0.143E+00
DAV:   8    -0.133742348248E+04   -0.20540E-02   -0.72520E-01  2440   0.138E+00    0.893E-01
DAV:   9    -0.133742589163E+04   -0.24091E-02   -0.10731E-01  2536   0.682E-01    0.713E-01
DAV:  10    -0.133741951366E+04    0.63780E-02   -0.45712E-02  2584   0.396E-01    0.297E-01
DAV:  11    -0.133742092001E+04   -0.14063E-02   -0.30422E-02  2608   0.289E-01    0.218E-01
DAV:  12    -0.133742081235E+04    0.10766E-03   -0.41987E-03  2568   0.146E-01    0.154E-01
DAV:  13    -0.133742058451E+04    0.22784E-03   -0.30582E-03  2560   0.960E-02    0.421E-02
DAV:  14    -0.133742063547E+04   -0.50959E-04   -0.51303E-04  2600   0.488E-02    0.267E-02
DAV:  15    -0.133742064091E+04   -0.54409E-05   -0.19853E-04  2544   0.267E-02    0.108E-02
DAV:  16    -0.133742064341E+04   -0.24951E-05   -0.50089E-05  2544   0.161E-02    0.899E-03
DAV:  17    -0.133742064494E+04   -0.15310E-05   -0.23486E-05  2264   0.950E-03    0.712E-03
DAV:  18    -0.133742064467E+04    0.26352E-06   -0.29395E-06  1120   0.537E-03
   2 F= -.13374206E+04 E0= -.13374206E+04  d E =-.195801E+02
 BRION: g(F)=  0.115E+03 g(S)=  0.000E+00 retain N=  1 mean eig= 0.43
 eig:   0.429
 bond charge predicted
       N       E                     dE             d eps       ncg     rms          rms(c)
DAV:   1    -0.131710441364E+04    0.20316E+02   -0.34568E+03  1336   0.776E+01    0.235E+01
DAV:   2    -0.135320722707E+04   -0.36103E+02   -0.44859E+02  2528   0.369E+01    0.213E+01
DAV:   3    -0.135065462565E+04    0.25526E+01   -0.34138E+01  2584   0.126E+01    0.162E+01
DAV:   4    -0.134868092493E+04    0.19737E+01   -0.37709E+01  2136   0.744E+00    0.833E+00
DAV:   5    -0.134911255686E+04   -0.43163E+00   -0.73103E+00  2400   0.453E+00    0.868E+00
DAV:   6    -0.134779094469E+04    0.13216E+01   -0.11623E+01  2320   0.418E+00    0.164E+00
DAV:   7    -0.134787952056E+04   -0.88576E-01   -0.15295E+00  2360   0.256E+00    0.135E+00
DAV:   8    -0.134787544111E+04    0.40794E-02   -0.34836E-01  2592   0.103E+00    0.845E-01
DAV:   9    -0.134786790837E+04    0.75327E-02   -0.12148E-01  2504   0.619E-01    0.414E-01
DAV:  10    -0.134787020745E+04   -0.22991E-02   -0.40937E-02  2480   0.362E-01    0.300E-01
DAV:  11    -0.134786884002E+04    0.13674E-02   -0.10937E-02  2608   0.233E-01    0.157E-01
DAV:  12    -0.134786928965E+04   -0.44963E-03   -0.97756E-03  2400   0.157E-01    0.156E-01
DAV:  13    -0.134786897960E+04    0.31005E-03   -0.25555E-03  2552   0.991E-02    0.782E-02
DAV:  14    -0.134786896231E+04    0.17292E-04   -0.13120E-03  2528   0.604E-02    0.302E-02
DAV:  15    -0.134786896717E+04   -0.48587E-05   -0.19006E-04  2592   0.301E-02    0.177E-02
DAV:  16    -0.134786896955E+04   -0.23819E-05   -0.56225E-05  2568   0.142E-02    0.118E-02
DAV:  17    -0.134786896832E+04    0.12377E-05   -0.24687E-05  2408   0.102E-02    0.509E-03
DAV:  18    -0.134786896857E+04   -0.25303E-06   -0.81555E-06  1848   0.648E-03
   3 F= -.13478690E+04 E0= -.13478690E+04  d E =-.104483E+02
 BRION: g(F)=  0.198E+02 g(S)=  0.000E+00 retain N=  2 mean eig= 1.55
 eig:   0.280  2.811
 bond charge predicted
       N       E                     dE             d eps       ncg     rms          rms(c)
DAV:   1    -0.134668783747E+04    0.11811E+01   -0.73939E+02  1376   0.333E+01    0.760E+00
DAV:   2    -0.135178222869E+04   -0.50944E+01   -0.59499E+01  2384   0.155E+01    0.448E+00
DAV:   3    -0.135163886542E+04    0.14336E+00   -0.39238E+00  2512   0.491E+00    0.372E+00
DAV:   4    -0.135141339347E+04    0.22547E+00   -0.18991E+00  2200   0.220E+00    0.173E+00
DAV:   5    -0.135140729270E+04    0.61008E-02   -0.59971E-01  2384   0.144E+00    0.183E+00
DAV:   6    -0.135135375382E+04    0.53539E-01   -0.42280E-01  2480   0.126E+00    0.735E-01
DAV:   7    -0.135135936719E+04   -0.56134E-02   -0.19030E-01  2456   0.734E-01    0.641E-01
DAV:   8    -0.135135732514E+04    0.20420E-02   -0.34023E-02  2536   0.340E-01    0.438E-01
DAV:   9    -0.135135422537E+04    0.30998E-02   -0.16009E-02  2464   0.223E-01    0.189E-01
DAV:  10    -0.135135490586E+04   -0.68049E-03   -0.14284E-02  2512   0.178E-01    0.173E-01
DAV:  11    -0.135135442620E+04    0.47966E-03   -0.25907E-03  2528   0.105E-01    0.614E-02
DAV:  12    -0.135135447256E+04   -0.46368E-04   -0.91542E-04  2456   0.527E-02    0.273E-02
DAV:  13    -0.135135448160E+04   -0.90402E-05   -0.11862E-04  2600   0.227E-02    0.153E-02
DAV:  14    -0.135135448278E+04   -0.11739E-05   -0.23821E-05  2408   0.102E-02    0.985E-03
DAV:  15    -0.135135448306E+04   -0.28385E-06   -0.93150E-06  1856   0.610E-03
   4 F= -.13513545E+04 E0= -.13513545E+04  d E =-.348551E+01
 BRION: g(F)=  0.814E+01 g(S)=  0.000E+00 retain N=  3 mean eig= 2.38
 eig:   6.405  0.364  0.364
 bond charge predicted
       N       E                     dE             d eps       ncg     rms          rms(c)
DAV:   1    -0.135294743120E+04   -0.15929E+01   -0.26241E+02  1360   0.216E+01    0.386E+00
DAV:   2    -0.135425538640E+04   -0.13080E+01   -0.14428E+01  2280   0.826E+00    0.215E+00
DAV:   3    -0.135426366633E+04   -0.82799E-02   -0.10015E+00  2616   0.191E+00    0.169E+00
DAV:   4    -0.135421170685E+04    0.51959E-01   -0.27357E-01  2496   0.107E+00    0.762E-01
DAV:   5    -0.135420773524E+04    0.39716E-02   -0.99506E-02  2448   0.670E-01    0.540E-01
DAV:   6    -0.135420673263E+04    0.10026E-02   -0.73261E-02  2480   0.468E-01    0.271E-01
DAV:   7    -0.135420671187E+04    0.20753E-04   -0.12548E-02  2472   0.234E-01    0.210E-01
DAV:   8    -0.135420647187E+04    0.24000E-03   -0.45974E-03  2456   0.116E-01    0.909E-02
DAV:   9    -0.135420651460E+04   -0.42724E-04   -0.18215E-03  2592   0.762E-02    0.647E-02
DAV:  10    -0.135420652612E+04   -0.11528E-04   -0.51669E-04  2304   0.446E-02    0.540E-02
DAV:  11    -0.135420650168E+04    0.24446E-04   -0.39578E-04  2368   0.338E-02    0.248E-02
DAV:  12    -0.135420650346E+04   -0.17854E-05   -0.14593E-04  2472   0.221E-02    0.167E-02
DAV:  13    -0.135420650326E+04    0.19927E-06   -0.37116E-05  2432   0.124E-02    0.107E-02
DAV:  14    -0.135420650279E+04    0.47541E-06   -0.17110E-05  1912   0.713E-03    0.455E-03
DAV:  15    -0.135420650272E+04    0.71843E-07   -0.24215E-06  1104   0.512E-03
   5 F= -.13542065E+04 E0= -.13542065E+04  d E =-.285202E+01
 BRION: g(F)=  0.346E+01 g(S)=  0.000E+00 retain N=  4 mean eig= 2.09
 eig:   7.157  0.411  0.411  0.368
 bond charge predicted
       N       E                     dE             d eps       ncg     rms          rms(c)
DAV:   1    -0.135514966807E+04   -0.94317E+00   -0.14973E+02  1352   0.159E+01    0.260E+00
DAV:   2    -0.135583808281E+04   -0.68841E+00   -0.73631E+00  2288   0.586E+00    0.134E+00
DAV:   3    -0.135584491912E+04   -0.68363E-02   -0.46957E-01  2616   0.123E+00    0.108E+00
DAV:   4    -0.135581899282E+04    0.25926E-01   -0.12728E-01  2480   0.694E-01    0.498E-01
DAV:   5    -0.135581735552E+04    0.16373E-02   -0.46284E-02  2480   0.403E-01    0.344E-01
DAV:   6    -0.135581695323E+04    0.40229E-03   -0.30409E-02  2544   0.296E-01    0.161E-01
DAV:   7    -0.135581692451E+04    0.28725E-04   -0.54753E-03  2448   0.150E-01    0.132E-01
DAV:   8    -0.135581684929E+04    0.75221E-04   -0.22916E-03  2408   0.779E-02    0.531E-02
DAV:   9    -0.135581688586E+04   -0.36578E-04   -0.91719E-04  2608   0.513E-02    0.470E-02
DAV:  10    -0.135581686718E+04    0.18685E-04   -0.21001E-04  2496   0.293E-02    0.291E-02
DAV:  11    -0.135581686700E+04    0.18190E-06   -0.16697E-04  2496   0.212E-02    0.122E-02
DAV:  12    -0.135581686767E+04   -0.67150E-06   -0.29046E-05  2368   0.110E-02    0.679E-03
DAV:  13    -0.135581686780E+04   -0.12963E-06   -0.57953E-06  1392   0.576E-03
   6 F= -.13558169E+04 E0= -.13558169E+04  d E =-.161037E+01
 BRION: g(F)=  0.188E+01 g(S)=  0.000E+00 retain N=  5 mean eig= 2.33
 eig:   4.961  4.961  0.614  0.614  0.525
 bond charge predicted
       N       E                     dE             d eps       ncg     rms          rms(c)
DAV:   1    -0.135595753380E+04   -0.14067E+00   -0.36976E+02  1360   0.259E+01    0.378E+00
DAV:   2    -0.135783185093E+04   -0.18743E+01   -0.19650E+01  2312   0.971E+00    0.201E+00
DAV:   3    -0.135786739594E+04   -0.35545E-01   -0.12418E+00  2608   0.198E+00    0.169E+00
DAV:   4    -0.135781572524E+04    0.51671E-01   -0.27675E-01  2520   0.101E+00    0.862E-01
DAV:   5    -0.135780445323E+04    0.11272E-01   -0.10664E-01  2488   0.600E-01    0.488E-01
DAV:   6    -0.135780391993E+04    0.53330E-03   -0.42311E-02  2528   0.386E-01    0.302E-01
DAV:   7    -0.135780341885E+04    0.50108E-03   -0.19462E-02  2488   0.252E-01    0.169E-01
DAV:   8    -0.135780368389E+04   -0.26503E-03   -0.59426E-03  2552   0.132E-01    0.109E-01
DAV:   9    -0.135780355260E+04    0.13128E-03   -0.11707E-03  2600   0.680E-02    0.623E-02
DAV:  10    -0.135780360830E+04   -0.55702E-04   -0.11217E-03  2504   0.547E-02    0.465E-02
DAV:  11    -0.135780357778E+04    0.30526E-04   -0.29299E-04  2544   0.366E-02    0.187E-02
DAV:  12    -0.135780358749E+04   -0.97085E-05   -0.15366E-04  2488   0.206E-02    0.120E-02
DAV:  13    -0.135780358704E+04    0.44984E-06   -0.20657E-05  2264   0.101E-02    0.582E-03
DAV:  14    -0.135780358724E+04   -0.20687E-06   -0.46952E-06  1208   0.543E-03
   7 F= -.13578036E+04 E0= -.13578036E+04  d E =-.198672E+01
 BRION: g(F)=  0.969E+00 g(S)=  0.000E+00 retain N=  6 mean eig= 2.14
 eig:   4.884  4.884  0.874  0.874  0.651  0.651
 bond charge predicted
       N       E                     dE             d eps       ncg     rms          rms(c)
DAV:   1    -0.135816900482E+04   -0.36542E+00   -0.10586E+02  1360   0.147E+01    0.214E+00
DAV:   2    -0.135869681615E+04   -0.52781E+00   -0.56526E+00  2288   0.574E+00    0.104E+00
DAV:   3    -0.135872447219E+04   -0.27656E-01   -0.44828E-01  2616   0.118E+00    0.855E-01
DAV:   4    -0.135871466642E+04    0.98058E-02   -0.59553E-02  2616   0.564E-01    0.510E-01
DAV:   5    -0.135871135961E+04    0.33068E-02   -0.34098E-02  2304   0.350E-01    0.239E-01
DAV:   6    -0.135871196601E+04   -0.60640E-03   -0.13231E-02  2576   0.227E-01    0.209E-01
DAV:   7    -0.135871169394E+04    0.27206E-03   -0.65138E-03  2552   0.144E-01    0.119E-01
DAV:   8    -0.135871161690E+04    0.77037E-04   -0.16532E-03  2568   0.812E-02    0.655E-02
DAV:   9    -0.135871160556E+04    0.11346E-04   -0.31889E-04  2616   0.395E-02    0.407E-02
DAV:  10    -0.135871162485E+04   -0.19289E-04   -0.26958E-04  2304   0.280E-02    0.280E-02
DAV:  11    -0.135871161584E+04    0.90067E-05   -0.51415E-05  2512   0.178E-02    0.142E-02
DAV:  12    -0.135871161796E+04   -0.21223E-05   -0.59340E-05  2344   0.120E-02    0.110E-02
DAV:  13    -0.135871161660E+04    0.13654E-05   -0.57823E-06  1424   0.690E-03    0.714E-03
DAV:  14    -0.135871161700E+04   -0.40478E-06   -0.15130E-05  1624   0.664E-03    0.264E-03
DAV:  15    -0.135871161698E+04    0.23530E-07   -0.13035E-06  1000   0.448E-03
   8 F= -.13587116E+04 E0= -.13587116E+04  d E =-.908030E+00
 BRION: g(F)=  0.588E+00 g(S)=  0.000E+00 retain N=  7 mean eig= 2.32
 eig:   6.872  4.725  1.339  1.339  0.534  0.716  0.716
 bond charge predicted
       N       E                     dE             d eps       ncg     rms          rms(c)
DAV:   1    -0.135898897548E+04   -0.27736E+00   -0.99065E+01  1376   0.140E+01    0.195E+00
DAV:   2    -0.135947968271E+04   -0.49071E+00   -0.51954E+00  2272   0.537E+00    0.921E-01
DAV:   3    -0.135950304624E+04   -0.23364E-01   -0.39708E-01  2616   0.110E+00    0.743E-01
DAV:   4    -0.135949302362E+04    0.10023E-01   -0.51922E-02  2568   0.517E-01    0.436E-01
DAV:   5    -0.135948918389E+04    0.38397E-02   -0.27080E-02  2336   0.330E-01    0.195E-01
DAV:   6    -0.135948991703E+04   -0.73314E-03   -0.12201E-02  2568   0.213E-01    0.172E-01
DAV:   7    -0.135948971495E+04    0.20208E-03   -0.41468E-03  2520   0.122E-01    0.106E-01
DAV:   8    -0.135948966940E+04    0.45552E-04   -0.14467E-03  2608   0.721E-02    0.532E-02
DAV:   9    -0.135948965969E+04    0.97087E-05   -0.22942E-04  2600   0.346E-02    0.356E-02
DAV:  10    -0.135948966844E+04   -0.87496E-05   -0.20340E-04  2360   0.246E-02    0.220E-02
DAV:  11    -0.135948966417E+04    0.42702E-05   -0.51993E-05  2536   0.166E-02    0.975E-03
DAV:  12    -0.135948966653E+04   -0.23619E-05   -0.36373E-05  2248   0.103E-02    0.989E-03
DAV:  13    -0.135948966523E+04    0.13018E-05   -0.71613E-06  1552   0.664E-03    0.450E-03
DAV:  14    -0.135948966535E+04   -0.12346E-06   -0.49019E-06  1328   0.562E-03
   9 F= -.13594897E+04 E0= -.13594897E+04  d E =-.778048E+00
 BRION: g(F)=  0.417E+00 g(S)=  0.000E+00 retain N=  8 mean eig= 2.25
 eig:   6.723  5.012  1.736  1.736  0.656  0.656  0.724  0.724
 bond charge predicted
       N       E                     dE             d eps       ncg     rms          rms(c)
DAV:   1    -0.135968363504E+04   -0.19397E+00   -0.84114E+01  1368   0.132E+01    0.161E+00
DAV:   2    -0.136011717902E+04   -0.43354E+00   -0.46101E+00  2288   0.517E+00    0.823E-01
DAV:   3    -0.136014193944E+04   -0.24760E-01   -0.36655E-01  2624   0.104E+00    0.672E-01
DAV:   4    -0.136013578848E+04    0.61510E-02   -0.37777E-02  2624   0.471E-01    0.457E-01
DAV:   5    -0.136013107069E+04    0.47178E-02   -0.21755E-02  2280   0.284E-01    0.179E-01
DAV:   6    -0.136013172879E+04   -0.65810E-03   -0.11744E-02  2512   0.204E-01    0.164E-01
DAV:   7    -0.136013158527E+04    0.14352E-03   -0.51626E-03  2504   0.133E-01    0.103E-01
DAV:   8    -0.136013156024E+04    0.25027E-04   -0.18277E-03  2568   0.821E-02    0.551E-02
DAV:   9    -0.136013154800E+04    0.12240E-04   -0.29355E-04  2488   0.383E-02    0.410E-02
DAV:  10    -0.136013155227E+04   -0.42709E-05   -0.19993E-04  2400   0.247E-02    0.214E-02
DAV:  11    -0.136013155037E+04    0.19048E-05   -0.64094E-05  2464   0.182E-02    0.858E-03
DAV:  12    -0.136013155317E+04   -0.27968E-05   -0.33642E-05  2384   0.113E-02    0.109E-02
DAV:  13    -0.136013155155E+04    0.16191E-05   -0.89956E-06  1632   0.677E-03    0.536E-03
DAV:  14    -0.136013155144E+04    0.10928E-06   -0.48711E-06  1352   0.585E-03
  10 F= -.13601316E+04 E0= -.13601316E+04  d E =-.641886E+00
 BRION: g(F)=  0.289E+00 g(S)=  0.000E+00 retain N=  8 mean eig= 1.90
 eig:   4.117  3.957  3.957  1.029  1.029  0.160  0.621  0.344
 bond charge predicted
       N       E                     dE             d eps       ncg     rms          rms(c)
DAV:   1    -0.136024363307E+04   -0.11208E+00   -0.88011E+01  1376   0.134E+01    0.164E+00
DAV:   2    -0.136069654124E+04   -0.45291E+00   -0.47822E+00  2288   0.518E+00    0.833E-01
DAV:   3    -0.136072163839E+04   -0.25097E-01   -0.37327E-01  2616   0.105E+00    0.669E-01
DAV:   4    -0.136071505741E+04    0.65810E-02   -0.39269E-02  2616   0.475E-01    0.447E-01
DAV:   5    -0.136071054852E+04    0.45089E-02   -0.19626E-02  2368   0.275E-01    0.175E-01
DAV:   6    -0.136071108865E+04   -0.54013E-03   -0.10444E-02  2496   0.190E-01    0.135E-01
DAV:   7    -0.136071103593E+04    0.52722E-04   -0.40380E-03  2464   0.121E-01    0.916E-02
DAV:   8    -0.136071103762E+04   -0.16996E-05   -0.16106E-03  2600   0.761E-02    0.548E-02
DAV:   9    -0.136071102027E+04    0.17358E-04   -0.30711E-04  2544   0.376E-02    0.384E-02
DAV:  10    -0.136071102191E+04   -0.16437E-05   -0.16230E-04  2608   0.233E-02    0.189E-02
DAV:  11    -0.136071102375E+04   -0.18392E-05   -0.53843E-05  2472   0.157E-02    0.927E-03
DAV:  12    -0.136071102447E+04   -0.72035E-06   -0.19554E-05  2304   0.104E-02    0.886E-03
DAV:  13    -0.136071102388E+04    0.59167E-06   -0.11475E-05  1744   0.647E-03    0.492E-03
DAV:  14    -0.136071102362E+04    0.26310E-06   -0.19381E-06  1000   0.495E-03
  11 F= -.13607110E+04 E0= -.13607110E+04  d E =-.579472E+00
 BRION: g(F)=  0.199E+00 g(S)=  0.000E+00 retain N=  9 mean eig= 2.24
 eig:   5.507  5.507  4.231  0.328  1.230  1.230  0.290  0.926  0.926
 bond charge predicted
       N       E                     dE             d eps       ncg     rms          rms(c)
DAV:   1    -0.136084391062E+04   -0.13289E+00   -0.34427E+01  1376   0.842E+00    0.100E+00
DAV:   2    -0.136101978423E+04   -0.17587E+00   -0.18550E+00  2288   0.322E+00    0.509E-01
DAV:   3    -0.136102998399E+04   -0.10200E-01   -0.14674E-01  2608   0.661E-01    0.413E-01
DAV:   4    -0.136102764078E+04    0.23432E-02   -0.14741E-02  2616   0.290E-01    0.286E-01
DAV:   5    -0.136102556669E+04    0.20741E-02   -0.77651E-03  2304   0.176E-01    0.108E-01
DAV:   6    -0.136102583170E+04   -0.26501E-03   -0.48116E-03  2464   0.127E-01    0.926E-02
DAV:   7    -0.136102579107E+04    0.40631E-04   -0.16987E-03  2456   0.782E-02    0.628E-02
DAV:   8    -0.136102578072E+04    0.10354E-04   -0.69954E-04  2584   0.498E-02    0.335E-02
DAV:   9    -0.136102577642E+04    0.42980E-05   -0.12180E-04  2408   0.242E-02    0.247E-02
DAV:  10    -0.136102577662E+04   -0.19465E-06   -0.54651E-05  2472   0.140E-02    0.124E-02
DAV:  11    -0.136102577707E+04   -0.45913E-06   -0.17809E-05  2200   0.959E-03    0.631E-03
DAV:  12    -0.136102577748E+04   -0.40603E-06   -0.91020E-06  1712   0.659E-03
  12 F= -.13610258E+04 E0= -.13610258E+04  d E =-.314754E+00
 BRION: g(F)=  0.165E+00 g(S)=  0.000E+00 retain N= 10 mean eig= 2.62
 eig:   7.276  7.276  4.273  1.965  1.965  0.496  0.948  0.948  0.290  0.735
 bond charge predicted
       N       E                     dE             d eps       ncg     rms          rms(c)
DAV:   1    -0.136108446833E+04   -0.58691E-01   -0.63054E+01  1376   0.113E+01    0.131E+00
DAV:   2    -0.136140185430E+04   -0.31739E+00   -0.33421E+00  2288   0.436E+00    0.666E-01
DAV:   3    -0.136142013751E+04   -0.18283E-01   -0.26069E-01  2608   0.850E-01    0.540E-01
DAV:   4    -0.136141617200E+04    0.39655E-02   -0.24375E-02  2608   0.374E-01    0.383E-01
DAV:   5    -0.136141210124E+04    0.40708E-02   -0.13559E-02  2280   0.230E-01    0.146E-01
DAV:   6    -0.136141253418E+04   -0.43293E-03   -0.89815E-03  2440   0.172E-01    0.125E-01
DAV:   7    -0.136141246983E+04    0.64347E-04   -0.33713E-03  2448   0.108E-01    0.857E-02
DAV:   8    -0.136141244441E+04    0.25420E-04   -0.12080E-03  2576   0.672E-02    0.475E-02
DAV:   9    -0.136141243105E+04    0.13353E-04   -0.24594E-04  2384   0.333E-02    0.336E-02
DAV:  10    -0.136141243279E+04   -0.17317E-05   -0.11843E-04  2416   0.199E-02    0.169E-02
DAV:  11    -0.136141243336E+04   -0.57288E-06   -0.33260E-05  2440   0.135E-02    0.836E-03
DAV:  12    -0.136141243449E+04   -0.11306E-05   -0.18818E-05  2224   0.889E-03    0.867E-03
DAV:  13    -0.136141243368E+04    0.80741E-06   -0.74336E-06  1568   0.604E-03
  13 F= -.13614124E+04 E0= -.13614124E+04  d E =-.386656E+00
 BRION: g(F)=  0.129E+00 g(S)=  0.000E+00 retain N= 10 mean eig= 2.91
 eig:   7.495  7.495  3.795  2.998  2.998  0.102  1.020  1.020  1.072  1.072
 bond charge predicted
       N       E                     dE             d eps       ncg     rms          rms(c)
DAV:   1    -0.136139952591E+04    0.12909E-01   -0.73011E+01  1368   0.122E+01    0.143E+00
DAV:   2    -0.136177202521E+04   -0.37250E+00   -0.39241E+00  2304   0.473E+00    0.730E-01
DAV:   3    -0.136179321323E+04   -0.21188E-01   -0.30430E-01  2616   0.912E-01    0.587E-01
DAV:   4    -0.136178854965E+04    0.46636E-02   -0.29029E-02  2616   0.409E-01    0.415E-01
DAV:   5    -0.136178386528E+04    0.46844E-02   -0.15184E-02  2296   0.245E-01    0.159E-01
DAV:   6    -0.136178431052E+04   -0.44524E-03   -0.10187E-02  2424   0.180E-01    0.126E-01
DAV:   7    -0.136178426116E+04    0.49364E-04   -0.35418E-03  2424   0.112E-01    0.876E-02
DAV:   8    -0.136178424255E+04    0.18602E-04   -0.13455E-03  2584   0.701E-02    0.501E-02
DAV:   9    -0.136178422800E+04    0.14555E-04   -0.28130E-04  2416   0.355E-02    0.346E-02
DAV:  10    -0.136178423039E+04   -0.23899E-05   -0.12659E-04  2456   0.210E-02    0.172E-02
DAV:  11    -0.136178423150E+04   -0.11103E-05   -0.36983E-05  2456   0.138E-02    0.886E-03
DAV:  12    -0.136178423268E+04   -0.11769E-05   -0.21183E-05  2248   0.927E-03    0.917E-03
DAV:  13    -0.136178423183E+04    0.85145E-06   -0.78966E-06  1672   0.604E-03
  14 F= -.13617842E+04 E0= -.13617842E+04  d E =-.371798E+00
 BRION: g(F)=  0.102E+00 g(S)=  0.000E+00 retain N=  7 mean eig= 3.67
 eig:   7.929  7.929  2.628  2.628  1.152  1.715  1.715
 bond charge predicted
       N       E                     dE             d eps       ncg     rms          rms(c)
DAV:   1    -0.136186389361E+04   -0.79661E-01   -0.26733E+01  1368   0.741E+00    0.856E-01
DAV:   2    -0.136199864662E+04   -0.13475E+00   -0.14256E+00  2296   0.283E+00    0.437E-01
DAV:   3    -0.136200687863E+04   -0.82320E-02   -0.11514E-01  2600   0.569E-01    0.349E-01
DAV:   4    -0.136200526293E+04    0.16157E-02   -0.10673E-02  2600   0.249E-01    0.249E-01
DAV:   5    -0.136200365725E+04    0.16057E-02   -0.58903E-03  2312   0.151E-01    0.953E-02
DAV:   6    -0.136200382411E+04   -0.16686E-03   -0.35659E-03  2472   0.110E-01    0.793E-02
DAV:   7    -0.136200380633E+04    0.17777E-04   -0.13646E-03  2472   0.693E-02    0.518E-02
DAV:   8    -0.136200380014E+04    0.61858E-05   -0.48295E-04  2592   0.429E-02    0.304E-02
DAV:   9    -0.136200379623E+04    0.39157E-05   -0.91943E-05  2464   0.206E-02    0.214E-02
DAV:  10    -0.136200379667E+04   -0.44005E-06   -0.47068E-05  2496   0.126E-02    0.100E-02
DAV:  11    -0.136200379726E+04   -0.59498E-06   -0.12547E-05  2016   0.859E-03    0.525E-03
DAV:  12    -0.136200379761E+04   -0.34386E-06   -0.72976E-06  1632   0.592E-03
  15 F= -.13620038E+04 E0= -.13620038E+04  d E =-.219566E+00
 BRION: g(F)=  0.904E-01 g(S)=  0.000E+00 retain N=  3 mean eig= 4.66
 eig:   6.114  6.114  1.756
 bond charge predicted
       N       E                     dE             d eps       ncg     rms          rms(c)
DAV:   1    -0.136208935329E+04   -0.85556E-01   -0.16545E+01  1368   0.582E+00    0.698E-01
DAV:   2    -0.136217443882E+04   -0.85086E-01   -0.90207E-01  2312   0.230E+00    0.353E-01
DAV:   3    -0.136217957804E+04   -0.51392E-02   -0.72260E-02  2608   0.440E-01    0.281E-01
DAV:   4    -0.136217849677E+04    0.10813E-02   -0.68248E-03  2608   0.200E-01    0.194E-01
DAV:   5    -0.136217758817E+04    0.90860E-03   -0.37540E-03  2336   0.119E-01    0.726E-02
DAV:   6    -0.136217770683E+04   -0.11866E-03   -0.20305E-03  2480   0.824E-02    0.624E-02
DAV:   7    -0.136217769082E+04    0.16011E-04   -0.79240E-04  2496   0.529E-02    0.395E-02
DAV:   8    -0.136217768689E+04    0.39274E-05   -0.28268E-04  2536   0.331E-02    0.232E-02
DAV:   9    -0.136217768482E+04    0.20666E-05   -0.53042E-05  2456   0.158E-02    0.164E-02
DAV:  10    -0.136217768509E+04   -0.26931E-06   -0.29762E-05  2480   0.101E-02    0.760E-03
DAV:  11    -0.136217768506E+04    0.35361E-07   -0.50014E-06  1312   0.691E-03
  16 F= -.13621777E+04 E0= -.13621777E+04  d E =-.173887E+00
 BRION: g(F)=  0.838E-01 g(S)=  0.000E+00 retain N=  3 mean eig= 4.61
 eig:   6.040  6.040  1.760
 bond charge predicted
       N       E                     dE             d eps       ncg     rms          rms(c)
DAV:   1    -0.136225680127E+04   -0.79116E-01   -0.20349E+01  1368   0.648E+00    0.747E-01
DAV:   2    -0.136236020674E+04   -0.10341E+00   -0.10923E+00  2304   0.251E+00    0.381E-01
DAV:   3    -0.136236649012E+04   -0.62834E-02   -0.87471E-02  2592   0.490E-01    0.298E-01
DAV:   4    -0.136236521667E+04    0.12735E-02   -0.81308E-03  2592   0.218E-01    0.208E-01
DAV:   5    -0.136236416507E+04    0.10516E-02   -0.42007E-03  2352   0.126E-01    0.770E-02
DAV:   6    -0.136236428153E+04   -0.11646E-03   -0.22571E-03  2488   0.865E-02    0.588E-02
DAV:   7    -0.136236428521E+04   -0.36777E-05   -0.84084E-04  2512   0.546E-02    0.387E-02
DAV:   8    -0.136236428230E+04    0.29109E-05   -0.25893E-04  2592   0.328E-02    0.238E-02
DAV:   9    -0.136236428036E+04    0.19399E-05   -0.56879E-05  2480   0.160E-02    0.163E-02
DAV:  10    -0.136236428093E+04   -0.56917E-06   -0.30204E-05  2504   0.104E-02    0.755E-03
DAV:  11    -0.136236428088E+04    0.49506E-07   -0.40505E-06  1200   0.698E-03
  17 F= -.13623643E+04 E0= -.13623643E+04  d E =-.186596E+00
 BRION: g(F)=  0.781E-01 g(S)=  0.000E+00 retain N=  3 mean eig= 4.61
 eig:   6.112  6.112  1.608
 bond charge predicted
       N       E                     dE             d eps       ncg     rms          rms(c)
DAV:   1    -0.136244261093E+04   -0.78330E-01   -0.17334E+01  1368   0.595E+00    0.678E-01
DAV:   2    -0.136253056590E+04   -0.87955E-01   -0.92889E-01  2312   0.233E+00    0.345E-01
DAV:   3    -0.136253595200E+04   -0.53861E-02   -0.74202E-02  2592   0.448E-01    0.270E-01
DAV:   4    -0.136253495051E+04    0.10015E-02   -0.65790E-03  2592   0.196E-01    0.193E-01
DAV:   5    -0.136253397701E+04    0.97350E-03   -0.35281E-03  2328   0.116E-01    0.730E-02
DAV:   6    -0.136253406902E+04   -0.92013E-04   -0.21100E-03  2440   0.831E-02    0.570E-02
DAV:   7    -0.136253406908E+04   -0.55879E-07   -0.80382E-04  2472   0.531E-02    0.379E-02
DAV:   8    -0.136253406660E+04    0.24802E-05   -0.25879E-04  2552   0.320E-02    0.227E-02
DAV:   9    -0.136253406438E+04    0.22148E-05   -0.54199E-05  2384   0.158E-02    0.160E-02
DAV:  10    -0.136253406461E+04   -0.22494E-06   -0.28423E-05  2384   0.100E-02    0.729E-03
DAV:  11    -0.136253406473E+04   -0.11903E-06   -0.50089E-06  1344   0.695E-03
  18 F= -.13625341E+04 E0= -.13625341E+04  d E =-.169784E+00
 BRION: g(F)=  0.736E-01 g(S)=  0.000E+00 retain N=  3 mean eig= 4.60
 eig:   6.113  6.113  1.580
 bond charge predicted
       N       E                     dE             d eps       ncg     rms          rms(c)
DAV:   1    -0.136261008827E+04   -0.76024E-01   -0.11712E+01  1368   0.490E+00    0.559E-01
DAV:   2    -0.136267002431E+04   -0.59936E-01   -0.63114E-01  2296   0.193E+00    0.284E-01
DAV:   3    -0.136267368390E+04   -0.36596E-02   -0.49799E-02  2608   0.367E-01    0.224E-01
DAV:   4    -0.136267302571E+04    0.65819E-03   -0.43269E-03  2608   0.161E-01    0.160E-01
DAV:   5    -0.136267239759E+04    0.62812E-03   -0.22976E-03  2304   0.933E-02    0.587E-02
DAV:   6    -0.136267246749E+04   -0.69904E-04   -0.13561E-03  2440   0.654E-02    0.455E-02
DAV:   7    -0.136267246753E+04   -0.37457E-07   -0.50553E-04  2480   0.416E-02    0.300E-02
DAV:   8    -0.136267246545E+04    0.20763E-05   -0.15667E-04  2560   0.253E-02    0.183E-02
DAV:   9    -0.136267246402E+04    0.14315E-05   -0.34217E-05  2392   0.125E-02    0.126E-02
DAV:  10    -0.136267246420E+04   -0.17398E-06   -0.16903E-05  2064   0.812E-03    0.558E-03
DAV:  11    -0.136267246423E+04   -0.35114E-07   -0.18644E-06  1016   0.562E-03
  19 F= -.13626725E+04 E0= -.13626725E+04  d E =-.138400E+00
 BRION: g(F)=  0.707E-01 g(S)=  0.000E+00 retain N=  3 mean eig= 4.74
 eig:   6.307  6.307  1.600
 bond charge predicted
       N       E                     dE             d eps       ncg     rms          rms(c)
DAV:   1    -0.136274750793E+04   -0.75044E-01   -0.15569E+01  1368   0.563E+00    0.636E-01
DAV:   2    -0.136282705461E+04   -0.79547E-01   -0.83661E-01  2304   0.222E+00    0.323E-01
DAV:   3    -0.136283187883E+04   -0.48242E-02   -0.65679E-02  2592   0.418E-01    0.252E-01
DAV:   4    -0.136283098831E+04    0.89052E-03   -0.56877E-03  2584   0.184E-01    0.180E-01
DAV:   5    -0.136283016693E+04    0.82138E-03   -0.30392E-03  2312   0.106E-01    0.649E-02
DAV:   6    -0.136283025896E+04   -0.92028E-04   -0.17470E-03  2432   0.737E-02    0.499E-02
DAV:   7    -0.136283026351E+04   -0.45509E-05   -0.62728E-04  2488   0.463E-02    0.332E-02
DAV:   8    -0.136283026076E+04    0.27521E-05   -0.18236E-04  2552   0.275E-02    0.197E-02
DAV:   9    -0.136283025926E+04    0.14997E-05   -0.40763E-05  2424   0.138E-02    0.137E-02
DAV:  10    -0.136283025977E+04   -0.51627E-06   -0.21534E-05  2312   0.900E-03    0.588E-03
DAV:  11    -0.136283025972E+04    0.51019E-07   -0.23236E-06  1080   0.598E-03
  20 F= -.13628303E+04 E0= -.13628303E+04  d E =-.157795E+00
 BRION: g(F)=  0.685E-01 g(S)=  0.000E+00 retain N=  3 mean eig= 4.73
 eig:   6.312  6.312  1.570
