 running on  160 total cores
 distrk:  each k-point on  160 cores,    1 groups
 distr:  one band on   20 cores,    8 groups
 using from now: INCAR     
 vasp.5.4.4.18Apr17-6-g9f103f2a35 (build May 01 2020 14:22:42) gamma-only       
  
 POSCAR found type information on POSCAR  O  La Zr Li Al
 POSCAR found :  5 types and     188 ions
 scaLAPACK will be used
 LDA part: xc-table for Pade appr. of Perdew
 POSCAR, INCAR and KPOINTS ok, starting setup
 FFT: planning ...
 WAVECAR not read
 WARNING: random wavefunctions but no delay for mixing, default for NELMDL
 entering main loop
       N       E                     dE             d eps       ncg     rms          rms(c)
DAV:   1     0.252407765968E+05    0.25241E+05   -0.42128E+05  1624   0.253E+03
DAV:   2     0.941795081975E+04   -0.15823E+05   -0.14584E+05  1416   0.708E+02
DAV:   3     0.266799151691E+04   -0.67500E+04   -0.61622E+04  1512   0.356E+02
DAV:   4    -0.353040027334E+03   -0.30210E+04   -0.28230E+04  2032   0.223E+02
DAV:   5    -0.139873462509E+04   -0.10457E+04   -0.10039E+04  2544   0.140E+02    0.116E+02
DAV:   6    -0.129849327715E+04    0.10024E+03   -0.15106E+03  2456   0.662E+01    0.503E+01
DAV:   7    -0.132095127396E+04   -0.22458E+02   -0.40286E+02  2560   0.344E+01    0.258E+01
DAV:   8    -0.132798819151E+04   -0.70369E+01   -0.26544E+02  2528   0.274E+01    0.256E+01
DAV:   9    -0.132203008736E+04    0.59581E+01   -0.49741E+01  2512   0.146E+01    0.807E+00
DAV:  10    -0.132277934917E+04   -0.74926E+00   -0.15754E+01  2616   0.776E+00    0.706E+00
DAV:  11    -0.132314483471E+04   -0.36549E+00   -0.63643E+00  2616   0.432E+00    0.446E+00
DAV:  12    -0.132297475227E+04    0.17008E+00   -0.23553E+00  2568   0.354E+00    0.273E+00
DAV:  13    -0.132300615162E+04   -0.31399E-01   -0.10166E+00  2544   0.182E+00    0.199E+00
DAV:  14    -0.132300455480E+04    0.15968E-02   -0.17355E-01  2624   0.940E-01    0.131E+00
DAV:  15    -0.132299908349E+04    0.54713E-02   -0.89395E-02  2456   0.526E-01    0.668E-01
DAV:  16    -0.132299963075E+04   -0.54726E-03   -0.42939E-02  2568   0.365E-01    0.441E-01
DAV:  17    -0.132299933373E+04    0.29702E-03   -0.16381E-02  2504   0.256E-01    0.272E-01
DAV:  18    -0.132299950417E+04   -0.17043E-03   -0.39942E-03  2496   0.120E-01    0.139E-01
DAV:  19    -0.132299938158E+04    0.12259E-03   -0.26346E-03  2528   0.922E-02    0.932E-02
DAV:  20    -0.132299942904E+04   -0.47460E-04   -0.71227E-04  2472   0.501E-02    0.373E-02
DAV:  21    -0.132299942525E+04    0.37888E-05   -0.25912E-04  2616   0.309E-02    0.251E-02
DAV:  22    -0.132299943597E+04   -0.10715E-04   -0.11021E-04  2528   0.190E-02    0.958E-03
DAV:  23    -0.132299944085E+04   -0.48825E-05   -0.25619E-05  1808   0.102E-02    0.615E-03
DAV:  24    -0.132299944067E+04    0.18030E-06   -0.87207E-06  1080   0.627E-03
   1 F= -.13229994E+04 E0= -.13229894E+04  d E =-.132300E+04
 BRION: g(F)=  0.677E+02 g(S)=  0.000E+00
 bond charge predicted
       N       E                     dE             d eps       ncg     rms          rms(c)
DAV:   1    -0.129460043144E+04    0.28399E+02   -0.69997E+03  1744   0.125E+02    0.300E+01
DAV:   2    -0.135102936453E+04   -0.56429E+02   -0.64830E+02  2568   0.579E+01    0.151E+01
DAV:   3    -0.134913022423E+04    0.18991E+01   -0.39376E+01  2608   0.159E+01    0.104E+01
DAV:   4    -0.134727696093E+04    0.18533E+01   -0.14819E+01  2472   0.764E+00    0.496E+00
DAV:   5    -0.134711447216E+04    0.16249E+00   -0.36838E+00  2552   0.431E+00    0.329E+00
DAV:   6    -0.134704693584E+04    0.67536E-01   -0.30156E+00  2496   0.314E+00    0.197E+00
DAV:   7    -0.134703442793E+04    0.12508E-01   -0.64848E-01  2544   0.185E+00    0.141E+00
DAV:   8    -0.134702585168E+04    0.85762E-02   -0.44897E-01  2592   0.112E+00    0.667E-01
DAV:   9    -0.134702666097E+04   -0.80929E-03   -0.65333E-02  2560   0.558E-01    0.420E-01
DAV:  10    -0.134702522303E+04    0.14379E-02   -0.21659E-02  2608   0.311E-01    0.199E-01
DAV:  11    -0.134702621912E+04   -0.99609E-03   -0.14085E-02  2624   0.212E-01    0.156E-01
DAV:  12    -0.134702608942E+04    0.12969E-03   -0.25426E-03  2616   0.107E-01    0.637E-02
DAV:  13    -0.134702613173E+04   -0.42309E-04   -0.12022E-03  2624   0.617E-02    0.276E-02
DAV:  14    -0.134702614626E+04   -0.14529E-04   -0.20681E-04  2624   0.300E-02    0.161E-02
DAV:  15    -0.134702615082E+04   -0.45569E-05   -0.71555E-05  2624   0.172E-02    0.740E-03
DAV:  16    -0.134702615320E+04   -0.23801E-05   -0.26311E-05  2488   0.103E-02    0.594E-03
DAV:  17    -0.134702615348E+04   -0.28063E-06   -0.55113E-06  1312   0.639E-03
   2 F= -.13470262E+04 E0= -.13470262E+04  d E =-.240267E+02
 BRION: g(F)=  0.426E+02 g(S)=  0.000E+00 retain N=  1 mean eig= 0.58
 eig:   0.583
 bond charge predicted
       N       E                     dE             d eps       ncg     rms          rms(c)
DAV:   1    -0.132730096854E+04    0.19725E+02   -0.29719E+03  1400   0.735E+01    0.170E+01
DAV:   2    -0.135592658301E+04   -0.28626E+02   -0.34049E+02  2544   0.338E+01    0.175E+01
DAV:   3    -0.135533955116E+04    0.58703E+00   -0.21980E+01  2592   0.109E+01    0.140E+01
DAV:   4    -0.135398773002E+04    0.13518E+01   -0.16099E+01  2256   0.561E+00    0.747E+00
DAV:   5    -0.135417982598E+04   -0.19210E+00   -0.48533E+00  2336   0.406E+00    0.656E+00
DAV:   6    -0.135345689707E+04    0.72293E+00   -0.68665E+00  2344   0.431E+00    0.156E+00
DAV:   7    -0.135351913300E+04   -0.62236E-01   -0.13378E+00  2208   0.250E+00    0.127E+00
DAV:   8    -0.135352567032E+04   -0.65373E-02   -0.46492E-01  2392   0.102E+00    0.601E-01
DAV:   9    -0.135352648825E+04   -0.81793E-03   -0.66627E-02  2560   0.549E-01    0.448E-01
DAV:  10    -0.135352686005E+04   -0.37180E-03   -0.40057E-02  2536   0.365E-01    0.250E-01
DAV:  11    -0.135352664841E+04    0.21164E-03   -0.11634E-02  2488   0.224E-01    0.210E-01
DAV:  12    -0.135352646214E+04    0.18628E-03   -0.70137E-03  2616   0.136E-01    0.105E-01
DAV:  13    -0.135352640127E+04    0.60873E-04   -0.14355E-03  2616   0.760E-02    0.490E-02
DAV:  14    -0.135352641965E+04   -0.18383E-04   -0.51445E-04  2328   0.398E-02    0.271E-02
DAV:  15    -0.135352642023E+04   -0.57978E-06   -0.14039E-04  2560   0.215E-02    0.136E-02
DAV:  16    -0.135352642081E+04   -0.57909E-06   -0.53150E-05  2544   0.141E-02    0.606E-03
DAV:  17    -0.135352642296E+04   -0.21527E-05   -0.13636E-05  2000   0.817E-03    0.443E-03
DAV:  18    -0.135352642292E+04    0.36394E-07   -0.21324E-06  1064   0.396E-03
   3 F= -.13535264E+04 E0= -.13535264E+04  d E =-.650027E+01
 BRION: g(F)=  0.950E+01 g(S)=  0.000E+00 retain N=  2 mean eig= 0.76
 eig:   0.370  1.147
 bond charge predicted
       N       E                     dE             d eps       ncg     rms          rms(c)
DAV:   1    -0.135494951258E+04   -0.14231E+01   -0.43533E+02  1368   0.283E+01    0.593E+00
DAV:   2    -0.135721171706E+04   -0.22622E+01   -0.26070E+01  2408   0.119E+01    0.289E+00
DAV:   3    -0.135721116649E+04    0.55056E-03   -0.16593E+00  2584   0.277E+00    0.224E+00
DAV:   4    -0.135714734019E+04    0.63826E-01   -0.64475E-01  2472   0.154E+00    0.107E+00
DAV:   5    -0.135714276921E+04    0.45710E-02   -0.15232E-01  2472   0.873E-01    0.808E-01
DAV:   6    -0.135713937992E+04    0.33893E-02   -0.13825E-01  2568   0.633E-01    0.335E-01
DAV:   7    -0.135713955633E+04   -0.17641E-03   -0.21396E-02  2408   0.311E-01    0.276E-01
DAV:   8    -0.135713949244E+04    0.63893E-04   -0.11251E-02  2368   0.173E-01    0.147E-01
DAV:   9    -0.135713938381E+04    0.10863E-03   -0.36353E-03  2608   0.113E-01    0.819E-02
DAV:  10    -0.135713942353E+04   -0.39722E-04   -0.13619E-03  2544   0.727E-02    0.692E-02
DAV:  11    -0.135713938871E+04    0.34818E-04   -0.55194E-04  2568   0.469E-02    0.323E-02
DAV:  12    -0.135713939392E+04   -0.52108E-05   -0.23801E-04  2576   0.271E-02    0.168E-02
DAV:  13    -0.135713939619E+04   -0.22650E-05   -0.35032E-05  2496   0.140E-02    0.115E-02
DAV:  14    -0.135713939585E+04    0.33896E-06   -0.18936E-05  2240   0.815E-03    0.520E-03
DAV:  15    -0.135713939591E+04   -0.61700E-07   -0.36859E-06  1296   0.566E-03
   4 F= -.13571394E+04 E0= -.13571394E+04  d E =-.361297E+01
 BRION: g(F)=  0.321E+01 g(S)=  0.000E+00 retain N=  3 mean eig= 1.06
 eig:   2.403  0.417  0.345
 bond charge predicted
       N       E                     dE             d eps       ncg     rms          rms(c)
DAV:   1    -0.135805114349E+04   -0.91175E+00   -0.21846E+02  1328   0.199E+01    0.348E+00
DAV:   2    -0.135905470002E+04   -0.10036E+01   -0.10885E+01  2280   0.727E+00    0.165E+00
DAV:   3    -0.135906137005E+04   -0.66700E-02   -0.70586E-01  2560   0.158E+00    0.134E+00
DAV:   4    -0.135902417722E+04    0.37193E-01   -0.20311E-01  2456   0.893E-01    0.638E-01
DAV:   5    -0.135901993426E+04    0.42430E-02   -0.72480E-02  2448   0.546E-01    0.451E-01
DAV:   6    -0.135901907087E+04    0.86339E-03   -0.45728E-02  2520   0.388E-01    0.216E-01
DAV:   7    -0.135901912729E+04   -0.56427E-04   -0.11764E-02  2368   0.211E-01    0.182E-01
DAV:   8    -0.135901900930E+04    0.11800E-03   -0.48191E-03  2272   0.117E-01    0.987E-02
DAV:   9    -0.135901893776E+04    0.71532E-04   -0.19585E-03  2608   0.751E-02    0.559E-02
DAV:  10    -0.135901896920E+04   -0.31437E-04   -0.70570E-04  2552   0.510E-02    0.561E-02
DAV:  11    -0.135901893040E+04    0.38801E-04   -0.32144E-04  2552   0.344E-02    0.197E-02
DAV:  12    -0.135901893782E+04   -0.74220E-05   -0.13586E-04  2400   0.218E-02    0.131E-02
DAV:  13    -0.135901893803E+04   -0.20485E-06   -0.22554E-05  2152   0.108E-02    0.910E-03
DAV:  14    -0.135901893802E+04    0.33178E-08   -0.19961E-05  1784   0.743E-03    0.524E-03
DAV:  15    -0.135901893779E+04    0.23814E-06   -0.22677E-06  1072   0.506E-03
   5 F= -.13590189E+04 E0= -.13590189E+04  d E =-.187954E+01
 BRION: g(F)=  0.144E+01 g(S)=  0.000E+00 retain N=  4 mean eig= 1.53
 eig:   2.405  2.405  0.647  0.647
 bond charge predicted
       N       E                     dE             d eps       ncg     rms          rms(c)
DAV:   1    -0.135941957641E+04   -0.40064E+00   -0.25735E+02  1360   0.226E+01    0.326E+00
DAV:   2    -0.136067091421E+04   -0.12513E+01   -0.13229E+01  2264   0.833E+00    0.163E+00
DAV:   3    -0.136071662516E+04   -0.45711E-01   -0.95756E-01  2592   0.176E+00    0.134E+00
DAV:   4    -0.136068687198E+04    0.29753E-01   -0.17045E-01  2504   0.865E-01    0.717E-01
DAV:   5    -0.136067963502E+04    0.72370E-02   -0.65095E-02  2464   0.514E-01    0.369E-01
DAV:   6    -0.136068039231E+04   -0.75728E-03   -0.27945E-02  2544   0.325E-01    0.242E-01
DAV:   7    -0.136068004028E+04    0.35203E-03   -0.11351E-02  2480   0.207E-01    0.146E-01
DAV:   8    -0.136068020132E+04   -0.16104E-03   -0.46463E-03  2544   0.120E-01    0.912E-02
DAV:   9    -0.136068011592E+04    0.85396E-04   -0.82768E-04  2592   0.640E-02    0.622E-02
DAV:  10    -0.136068013672E+04   -0.20799E-04   -0.97192E-04  2336   0.509E-02    0.453E-02
DAV:  11    -0.136068011534E+04    0.21377E-04   -0.33415E-04  2504   0.384E-02    0.142E-02
DAV:  12    -0.136068012171E+04   -0.63625E-05   -0.93405E-05  2296   0.209E-02    0.129E-02
DAV:  13    -0.136068012147E+04    0.23383E-06   -0.33677E-05  2352   0.110E-02    0.814E-03
DAV:  14    -0.136068012131E+04    0.15838E-06   -0.11589E-05  1816   0.672E-03    0.427E-03
DAV:  15    -0.136068012137E+04   -0.52998E-07   -0.18105E-06  1048   0.460E-03
   6 F= -.13606801E+04 E0= -.13606801E+04  d E =-.166118E+01
 BRION: g(F)=  0.923E+00 g(S)=  0.000E+00 retain N=  5 mean eig= 1.35
 eig:   2.299  2.299  0.638  0.749  0.749
 bond charge predicted
       N       E                     dE             d eps       ncg     rms          rms(c)
DAV:   1    -0.136109242798E+04   -0.41231E+00   -0.79535E+01  1352   0.126E+01    0.195E+00
DAV:   2    -0.136146938655E+04   -0.37696E+00   -0.40200E+00  2288   0.466E+00    0.921E-01
DAV:   3    -0.136148483595E+04   -0.15449E-01   -0.30432E-01  2608   0.974E-01    0.724E-01
DAV:   4    -0.136147580710E+04    0.90288E-02   -0.54485E-02  2496   0.512E-01    0.365E-01
DAV:   5    -0.136147443755E+04    0.13696E-02   -0.20600E-02  2432   0.319E-01    0.207E-01
DAV:   6    -0.136147469309E+04   -0.25555E-03   -0.10762E-02  2544   0.196E-01    0.131E-01
DAV:   7    -0.136147462371E+04    0.69388E-04   -0.23619E-03  2552   0.104E-01    0.931E-02
DAV:   8    -0.136147462199E+04    0.17121E-05   -0.14710E-03  2448   0.664E-02    0.524E-02
DAV:   9    -0.136147459175E+04    0.30240E-04   -0.26185E-04  2600   0.387E-02    0.323E-02
DAV:  10    -0.136147459785E+04   -0.60991E-05   -0.30836E-04  2392   0.302E-02    0.268E-02
DAV:  11    -0.136147459128E+04    0.65699E-05   -0.79192E-05  2400   0.198E-02    0.120E-02
DAV:  12    -0.136147459281E+04   -0.15279E-05   -0.43869E-05  2256   0.116E-02    0.867E-03
DAV:  13    -0.136147459219E+04    0.62487E-06   -0.73592E-06  1568   0.694E-03
   7 F= -.13614746E+04 E0= -.13614746E+04  d E =-.794471E+00
 BRION: g(F)=  0.525E+00 g(S)=  0.000E+00 retain N=  6 mean eig= 1.78
 eig:   3.150  3.150  1.519  1.519  0.675  0.675
 bond charge predicted
       N       E                     dE             d eps       ncg     rms          rms(c)
DAV:   1    -0.136177961608E+04   -0.30502E+00   -0.91841E+01  1384   0.137E+01    0.181E+00
DAV:   2    -0.136224860623E+04   -0.46899E+00   -0.49778E+00  2288   0.531E+00    0.944E-01
DAV:   3    -0.136227536883E+04   -0.26763E-01   -0.39336E-01  2600   0.106E+00    0.764E-01
DAV:   4    -0.136226775223E+04    0.76166E-02   -0.49417E-02  2584   0.512E-01    0.477E-01
DAV:   5    -0.136226434885E+04    0.34034E-02   -0.24720E-02  2344   0.323E-01    0.200E-01
DAV:   6    -0.136226524124E+04   -0.89239E-03   -0.11807E-02  2568   0.208E-01    0.178E-01
DAV:   7    -0.136226501440E+04    0.22683E-03   -0.46321E-03  2552   0.135E-01    0.114E-01
DAV:   8    -0.136226496719E+04    0.47214E-04   -0.22463E-03  2576   0.874E-02    0.570E-02
DAV:   9    -0.136226495096E+04    0.16227E-04   -0.32878E-04  2520   0.420E-02    0.396E-02
DAV:  10    -0.136226496237E+04   -0.11412E-04   -0.25601E-04  2528   0.288E-02    0.254E-02
DAV:  11    -0.136226495684E+04    0.55345E-05   -0.68758E-05  2464   0.191E-02    0.120E-02
DAV:  12    -0.136226495961E+04   -0.27683E-05   -0.37523E-05  2384   0.114E-02    0.123E-02
DAV:  13    -0.136226495763E+04    0.19748E-05   -0.14420E-05  1824   0.777E-03    0.499E-03
DAV:  14    -0.136226495765E+04   -0.23414E-07   -0.43747E-06  1312   0.549E-03
   8 F= -.13622650E+04 E0= -.13622650E+04  d E =-.790365E+00
 BRION: g(F)=  0.370E+00 g(S)=  0.000E+00 retain N=  7 mean eig= 2.15
 eig:   4.308  4.308  1.956  1.956  0.886  0.886  0.772
 bond charge predicted
       N       E                     dE             d eps       ncg     rms          rms(c)
DAV:   1    -0.136250787392E+04   -0.24292E+00   -0.86048E+01  1384   0.133E+01    0.160E+00
DAV:   2    -0.136295533832E+04   -0.44746E+00   -0.47517E+00  2288   0.521E+00    0.802E-01
DAV:   3    -0.136298301111E+04   -0.27673E-01   -0.38480E-01  2600   0.104E+00    0.666E-01
DAV:   4    -0.136297782298E+04    0.51881E-02   -0.38889E-02  2608   0.470E-01    0.463E-01
DAV:   5    -0.136297299658E+04    0.48264E-02   -0.18880E-02  2376   0.281E-01    0.195E-01
DAV:   6    -0.136297344451E+04   -0.44793E-03   -0.12674E-02  2400   0.215E-01    0.155E-01
DAV:   7    -0.136297341841E+04    0.26096E-04   -0.58671E-03  2448   0.146E-01    0.117E-01
DAV:   8    -0.136297338294E+04    0.35475E-04   -0.24250E-03  2608   0.926E-02    0.666E-02
DAV:   9    -0.136297334757E+04    0.35366E-04   -0.50508E-04  2448   0.473E-02    0.450E-02
DAV:  10    -0.136297335435E+04   -0.67769E-05   -0.27473E-04  2488   0.290E-02    0.267E-02
DAV:  11    -0.136297335508E+04   -0.73601E-06   -0.85756E-05  2440   0.202E-02    0.175E-02
DAV:  12    -0.136297335436E+04    0.72659E-06   -0.44792E-05  2344   0.144E-02    0.151E-02
DAV:  13    -0.136297335220E+04    0.21555E-05   -0.31284E-05  2120   0.101E-02    0.665E-03
DAV:  14    -0.136297335237E+04   -0.16826E-06   -0.92217E-06  1728   0.602E-03
   9 F= -.13629734E+04 E0= -.13629734E+04  d E =-.708395E+00
 BRION: g(F)=  0.302E+00 g(S)=  0.000E+00 retain N=  8 mean eig= 2.62
 eig:   5.500  5.500  2.541  2.541  1.685  1.685  0.766  0.766
 bond charge predicted
       N       E                     dE             d eps       ncg     rms          rms(c)
DAV:   1    -0.136323070191E+04   -0.25735E+00   -0.67869E+01  1392   0.117E+01    0.136E+00
DAV:   2    -0.136358402970E+04   -0.35333E+00   -0.37312E+00  2296   0.458E+00    0.688E-01
DAV:   3    -0.136360518641E+04   -0.21157E-01   -0.29612E-01  2584   0.891E-01    0.557E-01
DAV:   4    -0.136360074335E+04    0.44431E-02   -0.28722E-02  2584   0.400E-01    0.384E-01
DAV:   5    -0.136359682917E+04    0.39142E-02   -0.12984E-02  2352   0.240E-01    0.152E-01
DAV:   6    -0.136359713700E+04   -0.30783E-03   -0.96125E-03  2416   0.181E-01    0.109E-01
DAV:   7    -0.136359719935E+04   -0.62352E-04   -0.36875E-03  2456   0.116E-01    0.871E-02
DAV:   8    -0.136359718947E+04    0.98802E-05   -0.12526E-03  2616   0.668E-02    0.468E-02
DAV:   9    -0.136359717102E+04    0.18448E-04   -0.33415E-04  2480   0.377E-02    0.318E-02
DAV:  10    -0.136359717748E+04   -0.64601E-05   -0.12761E-04  2480   0.221E-02    0.225E-02
DAV:  11    -0.136359717488E+04    0.26096E-05   -0.58642E-05  2424   0.157E-02    0.107E-02
DAV:  12    -0.136359717563E+04   -0.75759E-06   -0.23131E-05  2312   0.107E-02    0.952E-03
DAV:  13    -0.136359717500E+04    0.63650E-06   -0.13667E-05  1760   0.686E-03    0.484E-03
DAV:  14    -0.136359717483E+04    0.16669E-06   -0.25741E-06  1088   0.524E-03
  10 F= -.13635972E+04 E0= -.13635972E+04  d E =-.623822E+00
 BRION: g(F)=  0.246E+00 g(S)=  0.000E+00 retain N=  9 mean eig= 3.37
 eig:   7.969  7.969  3.522  3.522  2.279  2.279  0.823  0.991  0.991
 bond charge predicted
       N       E                     dE             d eps       ncg     rms          rms(c)
DAV:   1    -0.136382745820E+04   -0.23028E+00   -0.71838E+01  1400   0.120E+01    0.140E+00
DAV:   2    -0.136420732750E+04   -0.37987E+00   -0.40226E+00  2296   0.477E+00    0.710E-01
DAV:   3    -0.136423106657E+04   -0.23739E-01   -0.32715E-01  2584   0.933E-01    0.581E-01
DAV:   4    -0.136422671211E+04    0.43545E-02   -0.30579E-02  2600   0.416E-01    0.412E-01
DAV:   5    -0.136422235052E+04    0.43616E-02   -0.14031E-02  2352   0.238E-01    0.169E-01
DAV:   6    -0.136422256694E+04   -0.21642E-03   -0.10120E-02  2392   0.183E-01    0.116E-01
DAV:   7    -0.136422261300E+04   -0.46057E-04   -0.47882E-03  2432   0.127E-01    0.917E-02
DAV:   8    -0.136422260011E+04    0.12890E-04   -0.14355E-03  2600   0.760E-02    0.576E-02
DAV:   9    -0.136422257679E+04    0.23322E-04   -0.40129E-04  2520   0.398E-02    0.371E-02
DAV:  10    -0.136422258249E+04   -0.57063E-05   -0.15694E-04  2536   0.233E-02    0.223E-02
DAV:  11    -0.136422258579E+04   -0.32949E-05   -0.56234E-05  2440   0.157E-02    0.155E-02
DAV:  12    -0.136422258316E+04    0.26342E-05   -0.35500E-05  2320   0.131E-02    0.111E-02
DAV:  13    -0.136422258287E+04    0.29031E-06   -0.24205E-05  2208   0.892E-03    0.630E-03
DAV:  14    -0.136422258252E+04    0.34821E-06   -0.46932E-06  1336   0.525E-03
  11 F= -.13642226E+04 E0= -.13642226E+04  d E =-.625408E+00
 BRION: g(F)=  0.212E+00 g(S)=  0.000E+00 retain N=  7 mean eig= 3.56
 eig:   7.483  7.483  2.292  2.292  2.032  2.032  1.279
 bond charge predicted
       N       E                     dE             d eps       ncg     rms          rms(c)
DAV:   1    -0.136443711459E+04   -0.21453E+00   -0.58958E+01  1384   0.108E+01    0.126E+00
DAV:   2    -0.136474383662E+04   -0.30672E+00   -0.32480E+00  2296   0.425E+00    0.643E-01
DAV:   3    -0.136476209408E+04   -0.18257E-01   -0.26190E-01  2592   0.837E-01    0.522E-01
DAV:   4    -0.136475808119E+04    0.40129E-02   -0.25055E-02  2592   0.370E-01    0.363E-01
DAV:   5    -0.136475447709E+04    0.36041E-02   -0.11273E-02  2384   0.211E-01    0.151E-01
DAV:   6    -0.136475454580E+04   -0.68711E-04   -0.77995E-03  2368   0.161E-01    0.994E-02
DAV:   7    -0.136475461649E+04   -0.70695E-04   -0.38056E-03  2400   0.112E-01    0.808E-02
DAV:   8    -0.136475460183E+04    0.14660E-04   -0.10961E-03  2616   0.661E-02    0.506E-02
DAV:   9    -0.136475458626E+04    0.15574E-04   -0.34100E-04  2568   0.361E-02    0.327E-02
DAV:  10    -0.136475459071E+04   -0.44544E-05   -0.13084E-04  2568   0.213E-02    0.213E-02
DAV:  11    -0.136475459109E+04   -0.37537E-06   -0.51897E-05  2408   0.148E-02    0.126E-02
DAV:  12    -0.136475459019E+04    0.90055E-06   -0.31341E-05  2296   0.118E-02    0.998E-03
DAV:  13    -0.136475458964E+04    0.54260E-06   -0.15731E-05  1984   0.758E-03    0.581E-03
DAV:  14    -0.136475458951E+04    0.13280E-06   -0.62151E-06  1560   0.535E-03
  12 F= -.13647546E+04 E0= -.13647546E+04  d E =-.532007E+00
 BRION: g(F)=  0.186E+00 g(S)=  0.000E+00 retain N=  3 mean eig= 5.09
 eig:   6.244  6.244  2.772
 bond charge predicted
       N       E                     dE             d eps       ncg     rms          rms(c)
DAV:   1    -0.136492428329E+04   -0.16969E+00   -0.67432E+01  1384   0.115E+01    0.134E+00
DAV:   2    -0.136527377657E+04   -0.34949E+00   -0.37009E+00  2296   0.450E+00    0.692E-01
DAV:   3    -0.136529447654E+04   -0.20700E-01   -0.29855E-01  2576   0.894E-01    0.555E-01
DAV:   4    -0.136528983848E+04    0.46381E-02   -0.29567E-02  2584   0.399E-01    0.380E-01
DAV:   5    -0.136528605525E+04    0.37832E-02   -0.12576E-02  2416   0.225E-01    0.162E-01
DAV:   6    -0.136528604472E+04    0.10534E-04   -0.83298E-03  2376   0.171E-01    0.101E-01
DAV:   7    -0.136528613833E+04   -0.93615E-04   -0.40764E-03  2408   0.119E-01    0.855E-02
DAV:   8    -0.136528612406E+04    0.14274E-04   -0.11890E-03  2608   0.679E-02    0.568E-02
DAV:   9    -0.136528610173E+04    0.22328E-04   -0.41940E-04  2560   0.390E-02    0.346E-02
DAV:  10    -0.136528610730E+04   -0.55743E-05   -0.15615E-04  2552   0.237E-02    0.237E-02
DAV:  11    -0.136528610679E+04    0.50808E-06   -0.55154E-05  2400   0.155E-02    0.136E-02
DAV:  12    -0.136528610528E+04    0.15147E-05   -0.38215E-05  2280   0.126E-02    0.993E-03
DAV:  13    -0.136528610498E+04    0.30239E-06   -0.17360E-05  2072   0.800E-03    0.588E-03
DAV:  14    -0.136528610488E+04    0.98531E-07   -0.60902E-06  1584   0.524E-03
  13 F= -.13652861E+04 E0= -.13652861E+04  d E =-.531515E+00
 BRION: g(F)=  0.156E+00 g(S)=  0.000E+00 retain N=  2 mean eig= 4.87
 eig:   4.866  4.866
 bond charge predicted
       N       E                     dE             d eps       ncg     rms          rms(c)
DAV:   1    -0.136538414106E+04   -0.98036E-01   -0.66775E+01  1384   0.116E+01    0.136E+00
DAV:   2    -0.136572970242E+04   -0.34556E+00   -0.36566E+00  2280   0.451E+00    0.697E-01
DAV:   3    -0.136574988398E+04   -0.20182E-01   -0.29689E-01  2584   0.915E-01    0.562E-01
DAV:   4    -0.136574523218E+04    0.46518E-02   -0.29965E-02  2576   0.400E-01    0.385E-01
DAV:   5    -0.136574143613E+04    0.37961E-02   -0.12413E-02  2432   0.222E-01    0.173E-01
DAV:   6    -0.136574128474E+04    0.15139E-03   -0.83838E-03  2272   0.175E-01    0.102E-01
DAV:   7    -0.136574141974E+04   -0.13499E-03   -0.46338E-03  2400   0.123E-01    0.926E-02
DAV:   8    -0.136574139725E+04    0.22489E-04   -0.12715E-03  2608   0.703E-02    0.660E-02
DAV:   9    -0.136574135976E+04    0.37491E-04   -0.51622E-04  2544   0.425E-02    0.373E-02
DAV:  10    -0.136574136622E+04   -0.64617E-05   -0.18591E-04  2520   0.258E-02    0.251E-02
DAV:  11    -0.136574136597E+04    0.24373E-06   -0.47392E-05  2440   0.147E-02    0.148E-02
DAV:  12    -0.136574136380E+04    0.21746E-05   -0.51019E-05  2048   0.138E-02    0.963E-03
DAV:  13    -0.136574136403E+04   -0.23426E-06   -0.20453E-05  2024   0.913E-03    0.743E-03
DAV:  14    -0.136574136369E+04    0.34356E-06   -0.85937E-06  1616   0.571E-03
  14 F= -.13657414E+04 E0= -.13657414E+04  d E =-.455259E+00
 BRION: g(F)=  0.126E+00 g(S)=  0.000E+00 retain N=  2 mean eig= 5.04
 eig:   5.040  5.040
 bond charge predicted
       N       E                     dE             d eps       ncg     rms          rms(c)
DAV:   1    -0.136584057345E+04   -0.99209E-01   -0.37110E+01  1376   0.862E+00    0.994E-01
DAV:   2    -0.136602820001E+04   -0.18763E+00   -0.19800E+00  2280   0.333E+00    0.512E-01
DAV:   3    -0.136603872087E+04   -0.10521E-01   -0.15572E-01  2576   0.667E-01    0.409E-01
DAV:   4    -0.136603616157E+04    0.25593E-02   -0.15546E-02  2608   0.287E-01    0.283E-01
DAV:   5    -0.136603396033E+04    0.22012E-02   -0.70076E-03  2424   0.171E-01    0.122E-01
DAV:   6    -0.136603392666E+04    0.33670E-04   -0.48043E-03  2312   0.135E-01    0.803E-02
DAV:   7    -0.136603399104E+04   -0.64375E-04   -0.24559E-03  2408   0.906E-02    0.696E-02
DAV:   8    -0.136603396907E+04    0.21968E-04   -0.68114E-04  2584   0.512E-02    0.451E-02
DAV:   9    -0.136603395185E+04    0.17220E-04   -0.28775E-04  2536   0.315E-02    0.252E-02
DAV:  10    -0.136603395671E+04   -0.48569E-05   -0.99552E-05  2536   0.194E-02    0.194E-02
DAV:  11    -0.136603395504E+04    0.16662E-05   -0.36672E-05  2344   0.127E-02    0.106E-02
DAV:  12    -0.136603395468E+04    0.36438E-06   -0.27291E-05  2080   0.105E-02    0.896E-03
DAV:  13    -0.136603395412E+04    0.55518E-06   -0.10530E-05  1760   0.694E-03    0.576E-03
DAV:  14    -0.136603395396E+04    0.16260E-06   -0.58394E-06  1544   0.510E-03
  15 F= -.13660340E+04 E0= -.13660340E+04  d E =-.292590E+00
 BRION: g(F)=  0.106E+00 g(S)=  0.000E+00 retain N=  2 mean eig= 4.46
 eig:   4.463  4.463
 bond charge predicted
       N       E                     dE             d eps       ncg     rms          rms(c)
DAV:   1    -0.136608984651E+04   -0.55892E-01   -0.39400E+01  1384   0.888E+00    0.102E+00
DAV:   2    -0.136629069733E+04   -0.20085E+00   -0.21142E+00  2280   0.345E+00    0.520E-01
DAV:   3    -0.136630241231E+04   -0.11715E-01   -0.16785E-01  2560   0.689E-01    0.423E-01
DAV:   4    -0.136630013057E+04    0.22817E-02   -0.15849E-02  2600   0.293E-01    0.306E-01
DAV:   5    -0.136629758302E+04    0.25476E-02   -0.76402E-03  2376   0.175E-01    0.139E-01
DAV:   6    -0.136629749053E+04    0.92488E-04   -0.60623E-03  2240   0.147E-01    0.930E-02
DAV:   7    -0.136629754618E+04   -0.55655E-04   -0.32542E-03  2472   0.104E-01    0.821E-02
DAV:   8    -0.136629751693E+04    0.29257E-04   -0.89029E-04  2584   0.603E-02    0.572E-02
DAV:   9    -0.136629748035E+04    0.36573E-04   -0.38559E-04  2496   0.355E-02    0.292E-02
DAV:  10    -0.136629748721E+04   -0.68537E-05   -0.12730E-04  2480   0.216E-02    0.203E-02
DAV:  11    -0.136629748832E+04   -0.11148E-05   -0.32324E-05  2248   0.122E-02    0.147E-02
DAV:  12    -0.136629748561E+04    0.27154E-05   -0.38837E-05  1992   0.122E-02    0.106E-02
DAV:  13    -0.136629748534E+04    0.26356E-06   -0.18621E-05  1952   0.835E-03    0.755E-03
DAV:  14    -0.136629748487E+04    0.47631E-06   -0.62335E-06  1544   0.539E-03
  16 F= -.13662975E+04 E0= -.13662975E+04  d E =-.263531E+00
 BRION: g(F)=  0.886E-01 g(S)=  0.000E+00 retain N=  2 mean eig= 4.27
 eig:   4.266  4.266
 bond charge predicted
       N       E                     dE             d eps       ncg     rms          rms(c)
DAV:   1    -0.136633262358E+04   -0.35138E-01   -0.34787E+01  1376   0.836E+00    0.948E-01
DAV:   2    -0.136650740890E+04   -0.17479E+00   -0.18366E+00  2272   0.323E+00    0.483E-01
DAV:   3    -0.136651739197E+04   -0.99831E-02   -0.14323E-01  2560   0.646E-01    0.395E-01
DAV:   4    -0.136651546246E+04    0.19295E-02   -0.13305E-02  2576   0.268E-01    0.290E-01
DAV:   5    -0.136651309194E+04    0.23705E-02   -0.68747E-03  2344   0.167E-01    0.129E-01
DAV:   6    -0.136651303872E+04    0.53221E-04   -0.56458E-03  2240   0.141E-01    0.913E-02
DAV:   7    -0.136651309564E+04   -0.56919E-04   -0.29398E-03  2432   0.972E-02    0.805E-02
DAV:   8    -0.136651305675E+04    0.38891E-04   -0.85029E-04  2560   0.584E-02    0.522E-02
DAV:   9    -0.136651302729E+04    0.29456E-04   -0.35539E-04  2504   0.346E-02    0.268E-02
DAV:  10    -0.136651303412E+04   -0.68270E-05   -0.11409E-04  2496   0.205E-02    0.198E-02
DAV:  11    -0.136651303383E+04    0.28491E-06   -0.32709E-05  2360   0.124E-02    0.141E-02
DAV:  12    -0.136651303250E+04    0.13281E-05   -0.35097E-05  2160   0.115E-02    0.116E-02
DAV:  13    -0.136651303143E+04    0.10763E-05   -0.15779E-05  1864   0.799E-03    0.721E-03
DAV:  14    -0.136651303100E+04    0.42391E-06   -0.46180E-06  1352   0.524E-03
  17 F= -.13665130E+04 E0= -.13665130E+04  d E =-.215546E+00
 BRION: g(F)=  0.744E-01 g(S)=  0.000E+00 retain N=  2 mean eig= 4.51
 eig:   4.508  4.508
 bond charge predicted
       N       E                     dE             d eps       ncg     rms          rms(c)
DAV:   1    -0.136653125273E+04   -0.18221E-01   -0.32460E+01  1376   0.804E+00    0.897E-01
DAV:   2    -0.136669435684E+04   -0.16310E+00   -0.17063E+00  2312   0.312E+00    0.461E-01
DAV:   3    -0.136670296030E+04   -0.86035E-02   -0.12581E-01  2568   0.594E-01    0.376E-01
DAV:   4    -0.136670116945E+04    0.17908E-02   -0.11521E-02  2608   0.248E-01    0.278E-01
DAV:   5    -0.136669878073E+04    0.23887E-02   -0.62112E-03  2264   0.165E-01    0.120E-01
DAV:   6    -0.136669880012E+04   -0.19384E-04   -0.58149E-03  2272   0.141E-01    0.890E-02
DAV:   7    -0.136669884084E+04   -0.40721E-04   -0.25604E-03  2384   0.909E-02    0.768E-02
DAV:   8    -0.136669880231E+04    0.38525E-04   -0.70127E-04  2528   0.537E-02    0.432E-02
DAV:   9    -0.136669877641E+04    0.25902E-04   -0.32546E-04  2432   0.331E-02    0.222E-02
DAV:  10    -0.136669878515E+04   -0.87411E-05   -0.95540E-05  2448   0.195E-02    0.202E-02
DAV:  11    -0.136669878157E+04    0.35820E-05   -0.51253E-05  2248   0.142E-02    0.115E-02
DAV:  12    -0.136669878110E+04    0.46440E-06   -0.22333E-05  2056   0.105E-02    0.961E-03
DAV:  13    -0.136669878056E+04    0.54132E-06   -0.13186E-05  1776   0.691E-03    0.528E-03
DAV:  14    -0.136669878024E+04    0.32417E-06   -0.18758E-06   976   0.465E-03
  18 F= -.13666988E+04 E0= -.13666988E+04  d E =-.185749E+00
 BRION: g(F)=  0.634E-01 g(S)=  0.000E+00 retain N=  2 mean eig= 4.19
 eig:   4.193  4.193
 bond charge predicted
       N       E                     dE             d eps       ncg     rms          rms(c)
DAV:   1    -0.136668265654E+04    0.16124E-01   -0.35459E+01  1376   0.845E+00    0.948E-01
DAV:   2    -0.136686261660E+04   -0.17996E+00   -0.18905E+00  2304   0.330E+00    0.487E-01
DAV:   3    -0.136687294039E+04   -0.10324E-01   -0.14581E-01  2568   0.629E-01    0.404E-01
DAV:   4    -0.136687116134E+04    0.17791E-02   -0.12959E-02  2600   0.268E-01    0.302E-01
DAV:   5    -0.136686869972E+04    0.24616E-02   -0.69744E-03  2280   0.166E-01    0.136E-01
DAV:   6    -0.136686866776E+04    0.31960E-04   -0.61829E-03  2192   0.144E-01    0.998E-02
DAV:   7    -0.136686870038E+04   -0.32626E-04   -0.31914E-03  2432   0.102E-01    0.860E-02
DAV:   8    -0.136686865648E+04    0.43902E-04   -0.97957E-04  2528   0.633E-02    0.553E-02
DAV:   9    -0.136686862197E+04    0.34511E-04   -0.37326E-04  2504   0.353E-02    0.287E-02
DAV:  10    -0.136686862953E+04   -0.75631E-05   -0.11957E-04  2496   0.208E-02    0.199E-02
DAV:  11    -0.136686863003E+04   -0.49493E-06   -0.30656E-05  2232   0.120E-02    0.160E-02
DAV:  12    -0.136686862792E+04    0.21113E-05   -0.38086E-05  2152   0.117E-02    0.125E-02
DAV:  13    -0.136686862673E+04    0.11857E-05   -0.16589E-05  1912   0.812E-03    0.779E-03
DAV:  14    -0.136686862613E+04    0.60568E-06   -0.38990E-06  1192   0.521E-03
  19 F= -.13668686E+04 E0= -.13668686E+04  d E =-.169846E+00
 BRION: g(F)=  0.532E-01 g(S)=  0.000E+00 retain N=  3 mean eig= 5.72
 eig:   7.616  7.616  1.931
 bond charge predicted
       N       E                     dE             d eps       ncg     rms          rms(c)
DAV:   1    -0.136680818833E+04    0.60438E-01   -0.41294E+01  1368   0.906E+00    0.102E+00
DAV:   2    -0.136701799992E+04   -0.20981E+00   -0.21913E+00  2312   0.354E+00    0.528E-01
DAV:   3    -0.136702841032E+04   -0.10410E-01   -0.15612E-01  2568   0.681E-01    0.426E-01
DAV:   4    -0.136702583540E+04    0.25749E-02   -0.15411E-02  2584   0.284E-01    0.301E-01
DAV:   5    -0.136702320931E+04    0.26261E-02   -0.76419E-03  2336   0.184E-01    0.123E-01
DAV:   6    -0.136702332385E+04   -0.11454E-03   -0.62186E-03  2336   0.146E-01    0.911E-02
DAV:   7    -0.136702335682E+04   -0.32966E-04   -0.23727E-03  2416   0.914E-02    0.777E-02
DAV:   8    -0.136702332496E+04    0.31855E-04   -0.81865E-04  2568   0.535E-02    0.440E-02
DAV:   9    -0.136702330218E+04    0.22787E-04   -0.28695E-04  2408   0.324E-02    0.253E-02
DAV:  10    -0.136702330891E+04   -0.67316E-05   -0.11012E-04  2424   0.200E-02    0.205E-02
DAV:  11    -0.136702330561E+04    0.32964E-05   -0.46038E-05  2352   0.142E-02    0.104E-02
DAV:  12    -0.136702330575E+04   -0.14078E-06   -0.21949E-05  2048   0.995E-03    0.911E-03
DAV:  13    -0.136702330500E+04    0.75524E-06   -0.11973E-05  1760   0.681E-03    0.453E-03
DAV:  14    -0.136702330479E+04    0.20437E-06   -0.22492E-06  1000   0.468E-03
  20 F= -.13670233E+04 E0= -.13670233E+04  d E =-.154679E+00
 BRION: g(F)=  0.434E-01 g(S)=  0.000E+00 retain N=  2 mean eig= 4.11
 eig:   4.108  4.108
