 running on  160 total cores
 distrk:  each k-point on  160 cores,    1 groups
 distr:  one band on   20 cores,    8 groups
 using from now: INCAR     
 vasp.5.4.4.18Apr17-6-g9f103f2a35 (build May 01 2020 14:22:42) gamma-only       
  
 POSCAR found type information on POSCAR  O  La Zr Li Al
 POSCAR found :  5 types and     188 ions
 scaLAPACK will be used
 LDA part: xc-table for Pade appr. of Perdew
 POSCAR, INCAR and KPOINTS ok, starting setup
 FFT: planning ...
 WAVECAR not read
 WARNING: random wavefunctions but no delay for mixing, default for NELMDL
 entering main loop
       N       E                     dE             d eps       ncg     rms          rms(c)
DAV:   1     0.252282568527E+05    0.25228E+05   -0.42130E+05  1616   0.253E+03
DAV:   2     0.948265301262E+04   -0.15746E+05   -0.14530E+05  1424   0.711E+02
DAV:   3     0.269414259382E+04   -0.67885E+04   -0.61899E+04  1504   0.356E+02
DAV:   4    -0.335618079088E+03   -0.30298E+04   -0.28305E+04  2032   0.225E+02
DAV:   5    -0.138830541039E+04   -0.10527E+04   -0.10084E+04  2528   0.140E+02    0.116E+02
DAV:   6    -0.129379119151E+04    0.94514E+02   -0.15451E+03  2464   0.674E+01    0.503E+01
DAV:   7    -0.131678886138E+04   -0.22998E+02   -0.43194E+02  2544   0.352E+01    0.276E+01
DAV:   8    -0.131911424586E+04   -0.23254E+01   -0.22993E+02  2520   0.275E+01    0.218E+01
DAV:   9    -0.131828316728E+04    0.83108E+00   -0.32165E+01  2568   0.131E+01    0.980E+00
DAV:  10    -0.131788107119E+04    0.40210E+00   -0.15633E+01  2560   0.675E+00    0.664E+00
DAV:  11    -0.131815845338E+04   -0.27738E+00   -0.46678E+00  2616   0.403E+00    0.496E+00
DAV:  12    -0.131826388104E+04   -0.10543E+00   -0.21877E+00  2520   0.262E+00    0.440E+00
DAV:  13    -0.131818070513E+04    0.83176E-01   -0.13395E+00  2496   0.236E+00    0.195E+00
DAV:  14    -0.131818587998E+04   -0.51749E-02   -0.25177E-01  2496   0.113E+00    0.129E+00
DAV:  15    -0.131817952818E+04    0.63518E-02   -0.10716E-01  2536   0.661E-01    0.103E+00
DAV:  16    -0.131817507438E+04    0.44538E-02   -0.35026E-02  2576   0.337E-01    0.624E-01
DAV:  17    -0.131817438181E+04    0.69257E-03   -0.12204E-02  2600   0.230E-01    0.522E-01
DAV:  18    -0.131817357402E+04    0.80779E-03   -0.62429E-03  2504   0.138E-01    0.219E-01
DAV:  19    -0.131817329791E+04    0.27611E-03   -0.33011E-03  2488   0.109E-01    0.154E-01
DAV:  20    -0.131817323632E+04    0.61597E-04   -0.16539E-03  2504   0.698E-02    0.951E-02
DAV:  21    -0.131817320474E+04    0.31574E-04   -0.52521E-04  2584   0.469E-02    0.497E-02
DAV:  22    -0.131817321039E+04   -0.56517E-05   -0.14343E-04  2584   0.199E-02    0.131E-02
DAV:  23    -0.131817321374E+04   -0.33475E-05   -0.56325E-05  2488   0.152E-02    0.200E-02
DAV:  24    -0.131817321725E+04   -0.35054E-05   -0.17903E-05  1760   0.819E-03    0.766E-03
DAV:  25    -0.131817321678E+04    0.47081E-06   -0.63424E-06  1144   0.590E-03
   1 F= -.13181732E+04 E0= -.13181456E+04  d E =-.131817E+04
 BRION: g(F)=  0.765E+02 g(S)=  0.000E+00
 bond charge predicted
       N       E                     dE             d eps       ncg     rms          rms(c)
DAV:   1    -0.124881334605E+04    0.69360E+02   -0.10613E+04  1728   0.157E+02    0.416E+01
DAV:   2    -0.133896792203E+04   -0.90155E+02   -0.10443E+03  2568   0.725E+01    0.195E+01
DAV:   3    -0.133503650062E+04    0.39314E+01   -0.62811E+01  2624   0.201E+01    0.127E+01
DAV:   4    -0.133150370589E+04    0.35328E+01   -0.25706E+01  2360   0.108E+01    0.564E+00
DAV:   5    -0.133150152460E+04    0.21813E-02   -0.89766E+00  2512   0.615E+00    0.441E+00
DAV:   6    -0.133137041185E+04    0.13111E+00   -0.39821E+00  2608   0.348E+00    0.225E+00
DAV:   7    -0.133131717521E+04    0.53237E-01   -0.49192E-01  2528   0.192E+00    0.109E+00
DAV:   8    -0.133132408019E+04   -0.69050E-02   -0.43662E-01  2616   0.118E+00    0.799E-01
DAV:   9    -0.133132699240E+04   -0.29122E-02   -0.79739E-02  2560   0.578E-01    0.618E-01
DAV:  10    -0.133132490340E+04    0.20890E-02   -0.44825E-02  2488   0.359E-01    0.322E-01
DAV:  11    -0.133132554874E+04   -0.64533E-03   -0.25122E-02  2592   0.277E-01    0.215E-01
DAV:  12    -0.133132520531E+04    0.34342E-03   -0.55415E-03  2520   0.166E-01    0.138E-01
DAV:  13    -0.133132521537E+04   -0.10053E-04   -0.28099E-03  2544   0.101E-01    0.644E-02
DAV:  14    -0.133132523535E+04   -0.19985E-04   -0.94812E-04  2608   0.543E-02    0.347E-02
DAV:  15    -0.133132523899E+04   -0.36339E-05   -0.14833E-04  2584   0.311E-02    0.212E-02
DAV:  16    -0.133132523928E+04   -0.29728E-06   -0.69658E-05  2568   0.147E-02    0.147E-02
DAV:  17    -0.133132523802E+04    0.12686E-05   -0.20698E-05  2280   0.902E-03    0.673E-03
DAV:  18    -0.133132523797E+04    0.43350E-07   -0.48974E-06  1312   0.558E-03
   2 F= -.13313252E+04 E0= -.13313252E+04  d E =-.131520E+02
 BRION: g(F)=  0.228E+03 g(S)=  0.000E+00 retain N=  1 mean eig= 0.33
 eig:   0.327
 bond charge predicted
       N       E                     dE             d eps       ncg     rms          rms(c)
DAV:   1    -0.131245499172E+04    0.18870E+02   -0.35882E+03  1328   0.744E+01    0.278E+01
DAV:   2    -0.135271933177E+04   -0.40264E+02   -0.51196E+02  2552   0.378E+01    0.251E+01
DAV:   3    -0.134833269323E+04    0.43866E+01   -0.39384E+01  2560   0.134E+01    0.184E+01
DAV:   4    -0.134667643123E+04    0.16563E+01   -0.64429E+01  2072   0.104E+01    0.102E+01
DAV:   5    -0.134707850308E+04   -0.40207E+00   -0.12579E+01  2408   0.590E+00    0.108E+01
DAV:   6    -0.134500301566E+04    0.20755E+01   -0.12100E+01  2416   0.398E+00    0.261E+00
DAV:   7    -0.134507540835E+04   -0.72393E-01   -0.23216E+00  2560   0.280E+00    0.921E-01
DAV:   8    -0.134509686764E+04   -0.21459E-01   -0.31392E-01  2608   0.114E+00    0.926E-01
DAV:   9    -0.134508481401E+04    0.12054E-01   -0.63758E-02  2600   0.522E-01    0.532E-01
DAV:  10    -0.134508358932E+04    0.12247E-02   -0.54929E-02  2568   0.387E-01    0.187E-01
DAV:  11    -0.134508390111E+04   -0.31179E-03   -0.85087E-03  2560   0.208E-01    0.112E-01
DAV:  12    -0.134508393805E+04   -0.36945E-04   -0.29001E-03  2376   0.966E-02    0.567E-02
DAV:  13    -0.134508399426E+04   -0.56207E-04   -0.91324E-04  2584   0.618E-02    0.564E-02
DAV:  14    -0.134508394937E+04    0.44892E-04   -0.57867E-04  2560   0.475E-02    0.269E-02
DAV:  15    -0.134508396768E+04   -0.18310E-04   -0.33906E-04  2544   0.331E-02    0.261E-02
DAV:  16    -0.134508396426E+04    0.34178E-05   -0.62806E-05  2544   0.160E-02    0.167E-02
DAV:  17    -0.134508396225E+04    0.20122E-05   -0.19570E-05  2344   0.870E-03    0.100E-02
DAV:  18    -0.134508396099E+04    0.12551E-05   -0.18893E-05  1904   0.763E-03    0.245E-03
DAV:  19    -0.134508396129E+04   -0.30150E-06   -0.32012E-06  1304   0.491E-03
   3 F= -.13450840E+04 E0= -.13450840E+04  d E =-.137587E+02
 BRION: g(F)=  0.171E+02 g(S)=  0.000E+00 retain N=  2 mean eig= 3.06
 eig:   0.218  5.911
 bond charge predicted
       N       E                     dE             d eps       ncg     rms          rms(c)
DAV:   1    -0.134546535336E+04   -0.38139E+00   -0.79950E+02  1392   0.395E+01    0.869E+00
DAV:   2    -0.134985230875E+04   -0.43870E+01   -0.51511E+01  2328   0.160E+01    0.410E+00
DAV:   3    -0.134992982358E+04   -0.77515E-01   -0.44392E+00  2600   0.436E+00    0.356E+00
DAV:   4    -0.134976592198E+04    0.16390E+00   -0.91202E-01  2528   0.206E+00    0.199E+00
DAV:   5    -0.134971753971E+04    0.48382E-01   -0.56237E-01  2256   0.150E+00    0.116E+00
DAV:   6    -0.134971380301E+04    0.37367E-02   -0.27595E-01  2504   0.105E+00    0.928E-01
DAV:   7    -0.134970819970E+04    0.56033E-02   -0.15078E-01  2504   0.669E-01    0.505E-01
DAV:   8    -0.134970688089E+04    0.13188E-02   -0.23861E-02  2600   0.322E-01    0.309E-01
DAV:   9    -0.134970640037E+04    0.48052E-03   -0.87785E-03  2608   0.181E-01    0.147E-01
DAV:  10    -0.134970664853E+04   -0.24816E-03   -0.44416E-03  2232   0.119E-01    0.128E-01
DAV:  11    -0.134970641835E+04    0.23018E-03   -0.14752E-03  2560   0.801E-02    0.517E-02
DAV:  12    -0.134970644806E+04   -0.29709E-04   -0.94842E-04  2560   0.534E-02    0.345E-02
DAV:  13    -0.134970644925E+04   -0.11926E-05   -0.14274E-04  2584   0.266E-02    0.240E-02
DAV:  14    -0.134970644551E+04    0.37451E-05   -0.92724E-05  2320   0.158E-02    0.921E-03
DAV:  15    -0.134970644711E+04   -0.16014E-05   -0.22695E-05  2232   0.967E-03    0.420E-03
DAV:  16    -0.134970644721E+04   -0.10132E-06   -0.24456E-06  1128   0.459E-03
   4 F= -.13497064E+04 E0= -.13497064E+04  d E =-.462249E+01
 BRION: g(F)=  0.732E+01 g(S)=  0.000E+00 retain N=  2 mean eig= 0.36
 eig:   0.359  0.359
 bond charge predicted
       N       E                     dE             d eps       ncg     rms          rms(c)
DAV:   1    -0.135095115747E+04   -0.12447E+01   -0.24949E+02  1368   0.216E+01    0.363E+00
DAV:   2    -0.135220337867E+04   -0.12522E+01   -0.13694E+01  2296   0.812E+00    0.199E+00
DAV:   3    -0.135221322503E+04   -0.98464E-02   -0.95754E-01  2624   0.184E+00    0.162E+00
DAV:   4    -0.135215536657E+04    0.57858E-01   -0.31487E-01  2496   0.112E+00    0.719E-01
DAV:   5    -0.135215166270E+04    0.37039E-02   -0.10974E-01  2488   0.689E-01    0.611E-01
DAV:   6    -0.135214880190E+04    0.28608E-02   -0.94715E-02  2528   0.536E-01    0.280E-01
DAV:   7    -0.135214903056E+04   -0.22866E-03   -0.18060E-02  2440   0.273E-01    0.245E-01
DAV:   8    -0.135214857001E+04    0.46055E-03   -0.65646E-03  2408   0.136E-01    0.103E-01
DAV:   9    -0.135214863944E+04   -0.69426E-04   -0.30933E-03  2600   0.914E-02    0.791E-02
DAV:  10    -0.135214860964E+04    0.29800E-04   -0.63183E-04  2432   0.527E-02    0.552E-02
DAV:  11    -0.135214859930E+04    0.10340E-04   -0.58228E-04  2488   0.396E-02    0.266E-02
DAV:  12    -0.135214860012E+04   -0.82320E-06   -0.15280E-04  2488   0.230E-02    0.160E-02
DAV:  13    -0.135214860015E+04   -0.27227E-07   -0.39176E-05  2408   0.121E-02    0.801E-03
DAV:  14    -0.135214860069E+04   -0.54670E-06   -0.12794E-05  1864   0.660E-03    0.424E-03
DAV:  15    -0.135214860064E+04    0.55326E-07   -0.20955E-06  1048   0.461E-03
   5 F= -.13521486E+04 E0= -.13521486E+04  d E =-.244215E+01
 BRION: g(F)=  0.387E+01 g(S)=  0.000E+00 retain N=  3 mean eig= 0.61
 eig:   1.210  0.304  0.304
 bond charge predicted
       N       E                     dE             d eps       ncg     rms          rms(c)
DAV:   1    -0.135308601278E+04   -0.93741E+00   -0.17073E+02  1368   0.182E+01    0.293E+00
DAV:   2    -0.135393484742E+04   -0.84883E+00   -0.90162E+00  2296   0.663E+00    0.149E+00
DAV:   3    -0.135395428374E+04   -0.19436E-01   -0.59242E-01  2584   0.139E+00    0.123E+00
DAV:   4    -0.135392680801E+04    0.27476E-01   -0.15399E-01  2488   0.803E-01    0.579E-01
DAV:   5    -0.135392600262E+04    0.80539E-03   -0.60391E-02  2464   0.474E-01    0.419E-01
DAV:   6    -0.135392488854E+04    0.11141E-02   -0.36917E-02  2576   0.339E-01    0.178E-01
DAV:   7    -0.135392496520E+04   -0.76662E-04   -0.73569E-03  2488   0.182E-01    0.147E-01
DAV:   8    -0.135392485059E+04    0.11461E-03   -0.24092E-03  2592   0.880E-02    0.630E-02
DAV:   9    -0.135392487425E+04   -0.23654E-04   -0.11061E-03  2592   0.569E-02    0.488E-02
DAV:  10    -0.135392486669E+04    0.75587E-05   -0.24851E-04  2496   0.327E-02    0.306E-02
DAV:  11    -0.135392486780E+04   -0.11100E-05   -0.20276E-04  2536   0.236E-02    0.170E-02
DAV:  12    -0.135392486507E+04    0.27222E-05   -0.43873E-05  2376   0.140E-02    0.686E-03
DAV:  13    -0.135392486605E+04   -0.97817E-06   -0.14907E-05  2000   0.767E-03    0.456E-03
DAV:  14    -0.135392486595E+04    0.98764E-07   -0.17425E-06  1048   0.439E-03
   6 F= -.13539249E+04 E0= -.13539249E+04  d E =-.177627E+01
 BRION: g(F)=  0.248E+01 g(S)=  0.000E+00 retain N=  4 mean eig= 0.98
 eig:   2.930  0.204  0.391  0.391
 bond charge predicted
       N       E                     dE             d eps       ncg     rms          rms(c)
DAV:   1    -0.135352546219E+04    0.39940E+00   -0.50031E+02  1376   0.314E+01    0.441E+00
DAV:   2    -0.135624218825E+04   -0.27167E+01   -0.28428E+01  2280   0.115E+01    0.238E+00
DAV:   3    -0.135633147609E+04   -0.89288E-01   -0.19854E+00  2608   0.255E+00    0.207E+00
DAV:   4    -0.135628072078E+04    0.50755E-01   -0.29776E-01  2600   0.114E+00    0.135E+00
DAV:   5    -0.135623377015E+04    0.46951E-01   -0.17666E-01  2264   0.817E-01    0.504E-01
DAV:   6    -0.135624165011E+04   -0.78800E-02   -0.12445E-01  2432   0.612E-01    0.593E-01
DAV:   7    -0.135623797551E+04    0.36746E-02   -0.32903E-02  2552   0.348E-01    0.369E-01
DAV:   8    -0.135623691528E+04    0.10602E-02   -0.16936E-02  2536   0.220E-01    0.136E-01
DAV:   9    -0.135623698020E+04   -0.64917E-04   -0.20989E-03  2376   0.965E-02    0.943E-02
DAV:  10    -0.135623699787E+04   -0.17673E-04   -0.66221E-04  2392   0.460E-02    0.398E-02
DAV:  11    -0.135623700655E+04   -0.86841E-05   -0.15025E-04  2624   0.297E-02    0.260E-02
DAV:  12    -0.135623700623E+04    0.32307E-06   -0.15762E-04  2536   0.212E-02    0.178E-02
DAV:  13    -0.135623700503E+04    0.11961E-05   -0.49609E-05  2496   0.134E-02    0.106E-02
DAV:  14    -0.135623700514E+04   -0.10575E-06   -0.81502E-06  1608   0.651E-03
   7 F= -.13562370E+04 E0= -.13562370E+04  d E =-.231214E+01
 BRION: g(F)=  0.786E+00 g(S)=  0.000E+00 retain N=  5 mean eig= 1.24
 eig:   4.911  0.245  0.346  0.346  0.362
 bond charge predicted
       N       E                     dE             d eps       ncg     rms          rms(c)
DAV:   1    -0.135661688651E+04   -0.37988E+00   -0.56584E+01  1392   0.108E+01    0.190E+00
DAV:   2    -0.135690201256E+04   -0.28513E+00   -0.30831E+00  2296   0.409E+00    0.872E-01
DAV:   3    -0.135691758216E+04   -0.15570E-01   -0.25849E-01  2608   0.877E-01    0.708E-01
DAV:   4    -0.135691162772E+04    0.59544E-02   -0.43230E-02  2584   0.463E-01    0.359E-01
DAV:   5    -0.135691128761E+04    0.34011E-03   -0.17955E-02  2440   0.263E-01    0.208E-01
DAV:   6    -0.135691120135E+04    0.86260E-04   -0.75213E-03  2584   0.169E-01    0.120E-01
DAV:   7    -0.135691118603E+04    0.15317E-04   -0.27300E-03  2528   0.100E-01    0.764E-02
DAV:   8    -0.135691117985E+04    0.61876E-05   -0.62783E-04  2624   0.513E-02    0.472E-02
DAV:   9    -0.135691116807E+04    0.11774E-04   -0.25579E-04  2624   0.325E-02    0.250E-02
DAV:  10    -0.135691117563E+04   -0.75574E-05   -0.11712E-04  2384   0.207E-02    0.191E-02
DAV:  11    -0.135691117349E+04    0.21417E-05   -0.45588E-05  2480   0.129E-02    0.907E-03
DAV:  12    -0.135691117331E+04    0.18181E-06   -0.11663E-05  1848   0.753E-03    0.510E-03
DAV:  13    -0.135691117341E+04   -0.10646E-06   -0.28933E-06  1112   0.543E-03
   8 F= -.13569112E+04 E0= -.13569112E+04  d E =-.674168E+00
 BRION: g(F)=  0.591E+00 g(S)=  0.000E+00 retain N=  6 mean eig= 1.60
 eig:   6.905  0.813  0.537  0.223  0.565  0.565
 bond charge predicted
       N       E                     dE             d eps       ncg     rms          rms(c)
DAV:   1    -0.135727327056E+04   -0.36210E+00   -0.95560E+01  1392   0.140E+01    0.174E+00
DAV:   2    -0.135775965292E+04   -0.48638E+00   -0.50968E+00  2288   0.528E+00    0.869E-01
DAV:   3    -0.135778852293E+04   -0.28870E-01   -0.39907E-01  2608   0.107E+00    0.702E-01
DAV:   4    -0.135778196238E+04    0.65606E-02   -0.40735E-02  2600   0.487E-01    0.470E-01
DAV:   5    -0.135777726180E+04    0.47006E-02   -0.23685E-02  2312   0.323E-01    0.172E-01
DAV:   6    -0.135777828465E+04   -0.10228E-02   -0.13287E-02  2512   0.219E-01    0.173E-01
DAV:   7    -0.135777812982E+04    0.15483E-03   -0.39947E-03  2560   0.122E-01    0.112E-01
DAV:   8    -0.135777804433E+04    0.85491E-04   -0.15542E-03  2600   0.757E-02    0.521E-02
DAV:   9    -0.135777803422E+04    0.10114E-04   -0.25267E-04  2424   0.361E-02    0.365E-02
DAV:  10    -0.135777803782E+04   -0.35999E-05   -0.13002E-04  2392   0.226E-02    0.160E-02
DAV:  11    -0.135777803888E+04   -0.10621E-05   -0.33141E-05  2480   0.140E-02    0.881E-03
DAV:  12    -0.135777804078E+04   -0.19004E-05   -0.22781E-05  2208   0.866E-03    0.958E-03
DAV:  13    -0.135777803937E+04    0.14110E-05   -0.56004E-06  1376   0.623E-03    0.476E-03
DAV:  14    -0.135777803983E+04   -0.45466E-06   -0.95578E-06  1584   0.653E-03
   9 F= -.13577780E+04 E0= -.13577780E+04  d E =-.866866E+00
 BRION: g(F)=  0.611E+00 g(S)=  0.000E+00 retain N=  7 mean eig= 1.80
 eig:   6.853  1.934  1.934  0.262  0.568  0.568  0.478
 bond charge predicted
       N       E                     dE             d eps       ncg     rms          rms(c)
DAV:   1    -0.135820327246E+04   -0.42523E+00   -0.54167E+01  1384   0.105E+01    0.130E+00
DAV:   2    -0.135848547778E+04   -0.28221E+00   -0.29730E+00  2288   0.400E+00    0.662E-01
DAV:   3    -0.135850200053E+04   -0.16523E-01   -0.23845E-01  2600   0.814E-01    0.542E-01
DAV:   4    -0.135849793409E+04    0.40664E-02   -0.25668E-02  2616   0.381E-01    0.358E-01
DAV:   5    -0.135849517229E+04    0.27618E-02   -0.12972E-02  2368   0.232E-01    0.134E-01
DAV:   6    -0.135849562812E+04   -0.45583E-03   -0.68015E-03  2512   0.154E-01    0.118E-01
DAV:   7    -0.135849555474E+04    0.73384E-04   -0.23692E-03  2536   0.956E-02    0.762E-02
DAV:   8    -0.135849554033E+04    0.14412E-04   -0.10215E-03  2592   0.597E-02    0.407E-02
DAV:   9    -0.135849553390E+04    0.64300E-05   -0.16778E-04  2496   0.285E-02    0.304E-02
DAV:  10    -0.135849553411E+04   -0.20687E-06   -0.92101E-05  2536   0.181E-02    0.145E-02
DAV:  11    -0.135849553520E+04   -0.10940E-05   -0.28589E-05  2392   0.120E-02    0.735E-03
DAV:  12    -0.135849553578E+04   -0.57649E-06   -0.10499E-05  1880   0.758E-03    0.678E-03
DAV:  13    -0.135849553545E+04    0.32307E-06   -0.65113E-06  1472   0.554E-03
  10 F= -.13584955E+04 E0= -.13584955E+04  d E =-.717496E+00
 BRION: g(F)=  0.447E+00 g(S)=  0.000E+00 retain N=  7 mean eig= 1.98
 eig:   6.562  2.252  2.252  0.255  0.919  0.919  0.736
 bond charge predicted
       N       E                     dE             d eps       ncg     rms          rms(c)
DAV:   1    -0.135889770295E+04   -0.40217E+00   -0.76765E+01  1392   0.124E+01    0.155E+00
DAV:   2    -0.135929670833E+04   -0.39901E+00   -0.42140E+00  2280   0.473E+00    0.799E-01
DAV:   3    -0.135931976090E+04   -0.23053E-01   -0.34387E-01  2592   0.989E-01    0.651E-01
DAV:   4    -0.135931320796E+04    0.65529E-02   -0.37484E-02  2568   0.458E-01    0.424E-01
DAV:   5    -0.135930891897E+04    0.42890E-02   -0.20302E-02  2352   0.286E-01    0.161E-01
DAV:   6    -0.135930958464E+04   -0.66566E-03   -0.10063E-02  2496   0.188E-01    0.146E-01
DAV:   7    -0.135930945409E+04    0.13055E-03   -0.32454E-03  2544   0.113E-01    0.933E-02
DAV:   8    -0.135930942512E+04    0.28970E-04   -0.14486E-03  2576   0.704E-02    0.478E-02
DAV:   9    -0.135930941428E+04    0.10842E-04   -0.22944E-04  2448   0.339E-02    0.350E-02
DAV:  10    -0.135930941600E+04   -0.17237E-05   -0.14866E-04  2504   0.227E-02    0.170E-02
DAV:  11    -0.135930941626E+04   -0.25603E-06   -0.40940E-05  2408   0.149E-02    0.808E-03
DAV:  12    -0.135930941800E+04   -0.17391E-05   -0.19158E-05  2184   0.895E-03    0.874E-03
DAV:  13    -0.135930941701E+04    0.99042E-06   -0.75316E-06  1512   0.640E-03
  11 F= -.13593094E+04 E0= -.13593094E+04  d E =-.813882E+00
 BRION: g(F)=  0.364E+00 g(S)=  0.000E+00 retain N=  8 mean eig= 1.88
 eig:   6.545  1.720  1.720  1.802  1.802  0.078  0.706  0.706
 bond charge predicted
       N       E                     dE             d eps       ncg     rms          rms(c)
DAV:   1    -0.135963835310E+04   -0.32894E+00   -0.31156E+01  1384   0.785E+00    0.100E+00
DAV:   2    -0.135979945946E+04   -0.16111E+00   -0.17061E+00  2288   0.298E+00    0.504E-01
DAV:   3    -0.135980844549E+04   -0.89860E-02   -0.13765E-01  2624   0.618E-01    0.406E-01
DAV:   4    -0.135980556229E+04    0.28832E-02   -0.15183E-02  2600   0.294E-01    0.253E-01
DAV:   5    -0.135980399961E+04    0.15627E-02   -0.74532E-03  2344   0.176E-01    0.971E-02
DAV:   6    -0.135980423062E+04   -0.23102E-03   -0.38007E-03  2528   0.115E-01    0.828E-02
DAV:   7    -0.135980420846E+04    0.22169E-04   -0.11314E-03  2552   0.666E-02    0.549E-02
DAV:   8    -0.135980420134E+04    0.71204E-05   -0.45574E-04  2616   0.398E-02    0.285E-02
DAV:   9    -0.135980419716E+04    0.41744E-05   -0.81954E-05  2472   0.203E-02    0.209E-02
DAV:  10    -0.135980419780E+04   -0.63564E-06   -0.53801E-05  2408   0.141E-02    0.112E-02
DAV:  11    -0.135980419775E+04    0.43088E-07   -0.16687E-05  2128   0.955E-03    0.522E-03
DAV:  12    -0.135980419840E+04   -0.64183E-06   -0.80694E-06  1728   0.584E-03
  12 F= -.13598042E+04 E0= -.13598042E+04  d E =-.494781E+00
 BRION: g(F)=  0.331E+00 g(S)=  0.000E+00 retain N=  9 mean eig= 3.12
 eig:   6.735  7.210  7.210  2.089  2.089  0.270  0.824  0.824  0.854
 bond charge predicted
       N       E                     dE             d eps       ncg     rms          rms(c)
DAV:   1    -0.136016292842E+04   -0.35873E+00   -0.72630E+01  1392   0.121E+01    0.142E+00
DAV:   2    -0.136055093675E+04   -0.38801E+00   -0.40952E+00  2304   0.473E+00    0.739E-01
DAV:   3    -0.136057379067E+04   -0.22854E-01   -0.33229E-01  2608   0.957E-01    0.603E-01
DAV:   4    -0.136056865213E+04    0.51385E-02   -0.32487E-02  2600   0.433E-01    0.425E-01
DAV:   5    -0.136056356348E+04    0.50887E-02   -0.14850E-02  2360   0.248E-01    0.177E-01
DAV:   6    -0.136056362954E+04   -0.66061E-04   -0.11296E-02  2352   0.196E-01    0.117E-01
DAV:   7    -0.136056371578E+04   -0.86244E-04   -0.47192E-03  2440   0.127E-01    0.982E-02
DAV:   8    -0.136056367299E+04    0.42792E-04   -0.14093E-03  2600   0.745E-02    0.545E-02
DAV:   9    -0.136056365421E+04    0.18784E-04   -0.48411E-04  2552   0.420E-02    0.339E-02
DAV:  10    -0.136056366336E+04   -0.91503E-05   -0.14129E-04  2552   0.242E-02    0.255E-02
DAV:  11    -0.136056366039E+04    0.29691E-05   -0.70581E-05  2472   0.169E-02    0.142E-02
DAV:  12    -0.136056366001E+04    0.37575E-06   -0.40616E-05  2360   0.135E-02    0.118E-02
DAV:  13    -0.136056365911E+04    0.90105E-06   -0.19817E-05  2016   0.839E-03    0.608E-03
DAV:  14    -0.136056365903E+04    0.86060E-07   -0.67209E-06  1616   0.579E-03
  13 F= -.13605637E+04 E0= -.13605637E+04  d E =-.759461E+00
 BRION: g(F)=  0.288E+00 g(S)=  0.000E+00 retain N=  7 mean eig= 3.26
 eig:   7.627  7.627  1.696  1.696  2.169  1.077  0.936
 bond charge predicted
       N       E                     dE             d eps       ncg     rms          rms(c)
DAV:   1    -0.136077631554E+04   -0.21266E+00   -0.11069E+02  1392   0.149E+01    0.177E+00
DAV:   2    -0.136136434267E+04   -0.58803E+00   -0.62118E+00  2296   0.588E+00    0.932E-01
DAV:   3    -0.136139917988E+04   -0.34837E-01   -0.51198E-01  2600   0.118E+00    0.765E-01
DAV:   4    -0.136139115212E+04    0.80278E-02   -0.50453E-02  2600   0.537E-01    0.540E-01
DAV:   5    -0.136138294046E+04    0.82117E-02   -0.23674E-02  2376   0.306E-01    0.234E-01
DAV:   6    -0.136138285504E+04    0.85423E-04   -0.18308E-02  2336   0.247E-01    0.151E-01
DAV:   7    -0.136138299045E+04   -0.13541E-03   -0.77635E-03  2424   0.164E-01    0.126E-01
DAV:   8    -0.136138291560E+04    0.74846E-04   -0.23016E-03  2600   0.952E-02    0.733E-02
DAV:   9    -0.136138287813E+04    0.37476E-04   -0.81883E-04  2552   0.540E-02    0.433E-02
DAV:  10    -0.136138289464E+04   -0.16513E-04   -0.24257E-04  2568   0.309E-02    0.325E-02
DAV:  11    -0.136138289153E+04    0.31125E-05   -0.11508E-04  2496   0.215E-02    0.203E-02
DAV:  12    -0.136138288994E+04    0.15902E-05   -0.75219E-05  2360   0.178E-02    0.171E-02
DAV:  13    -0.136138288763E+04    0.23041E-05   -0.36766E-05  2256   0.113E-02    0.880E-03
DAV:  14    -0.136138288748E+04    0.15313E-06   -0.12970E-05  1776   0.686E-03    0.321E-03
DAV:  15    -0.136138288754E+04   -0.57713E-07   -0.14574E-06   952   0.431E-03
  14 F= -.13613829E+04 E0= -.13613829E+04  d E =-.819229E+00
 BRION: g(F)=  0.223E+00 g(S)=  0.000E+00 retain N=  5 mean eig= 3.90
 eig:   7.592  7.592  1.623  1.623  1.069
 bond charge predicted
       N       E                     dE             d eps       ncg     rms          rms(c)
DAV:   1    -0.136157810047E+04   -0.19521E+00   -0.53858E+01  1384   0.104E+01    0.120E+00
DAV:   2    -0.136185167556E+04   -0.27358E+00   -0.28783E+00  2296   0.406E+00    0.622E-01
DAV:   3    -0.136186795528E+04   -0.16280E-01   -0.23040E-01  2584   0.789E-01    0.504E-01
DAV:   4    -0.136186478654E+04    0.31687E-02   -0.21027E-02  2584   0.345E-01    0.368E-01
DAV:   5    -0.136186095183E+04    0.38347E-02   -0.11506E-02  2280   0.212E-01    0.149E-01
DAV:   6    -0.136186113938E+04   -0.18755E-03   -0.85505E-03  2368   0.166E-01    0.115E-01
DAV:   7    -0.136186111026E+04    0.29127E-04   -0.32774E-03  2400   0.108E-01    0.832E-02
DAV:   8    -0.136186109086E+04    0.19397E-04   -0.12363E-03  2568   0.668E-02    0.484E-02
DAV:   9    -0.136186107401E+04    0.16847E-04   -0.29575E-04  2464   0.352E-02    0.317E-02
DAV:  10    -0.136186107728E+04   -0.32722E-05   -0.10823E-04  2480   0.193E-02    0.188E-02
DAV:  11    -0.136186107789E+04   -0.60053E-06   -0.37523E-05  2440   0.133E-02    0.119E-02
DAV:  12    -0.136186107775E+04    0.13852E-06   -0.23222E-05  2264   0.101E-02    0.107E-02
DAV:  13    -0.136186107676E+04    0.98720E-06   -0.13298E-05  1776   0.701E-03    0.533E-03
DAV:  14    -0.136186107660E+04    0.16180E-06   -0.41961E-06  1272   0.515E-03
  15 F= -.13618611E+04 E0= -.13618611E+04  d E =-.478189E+00
 BRION: g(F)=  0.196E+00 g(S)=  0.000E+00 retain N=  5 mean eig= 4.48
 eig:   7.903  7.903  3.161  1.724  1.724
 bond charge predicted
       N       E                     dE             d eps       ncg     rms          rms(c)
DAV:   1    -0.136205566250E+04   -0.19459E+00   -0.47823E+01  1384   0.978E+00    0.114E+00
DAV:   2    -0.136230104567E+04   -0.24538E+00   -0.25787E+00  2288   0.385E+00    0.591E-01
DAV:   3    -0.136231458661E+04   -0.13541E-01   -0.20109E-01  2584   0.762E-01    0.472E-01
DAV:   4    -0.136231106863E+04    0.35180E-02   -0.19842E-02  2568   0.329E-01    0.325E-01
DAV:   5    -0.136230795667E+04    0.31120E-02   -0.10343E-02  2296   0.202E-01    0.125E-01
DAV:   6    -0.136230819039E+04   -0.23372E-03   -0.65355E-03  2416   0.144E-01    0.995E-02
DAV:   7    -0.136230817387E+04    0.16519E-04   -0.21551E-03  2432   0.877E-02    0.703E-02
DAV:   8    -0.136230816460E+04    0.92644E-05   -0.92231E-04  2616   0.552E-02    0.389E-02
DAV:   9    -0.136230815600E+04    0.86007E-05   -0.19286E-04  2464   0.296E-02    0.278E-02
DAV:  10    -0.136230815623E+04   -0.22638E-06   -0.80587E-05  2496   0.173E-02    0.165E-02
DAV:  11    -0.136230815593E+04    0.29641E-06   -0.34470E-05  2384   0.122E-02    0.805E-03
DAV:  12    -0.136230815645E+04   -0.51485E-06   -0.13004E-05  1888   0.832E-03    0.748E-03
DAV:  13    -0.136230815592E+04    0.52797E-06   -0.67690E-06  1488   0.572E-03
  16 F= -.13623082E+04 E0= -.13623082E+04  d E =-.447079E+00
 BRION: g(F)=  0.176E+00 g(S)=  0.000E+00 retain N=  4 mean eig= 4.62
 eig:   6.884  6.884  2.358  2.358
 bond charge predicted
       N       E                     dE             d eps       ncg     rms          rms(c)
DAV:   1    -0.136243547498E+04   -0.12732E+00   -0.59996E+01  1368   0.109E+01    0.125E+00
DAV:   2    -0.136273986177E+04   -0.30439E+00   -0.31971E+00  2296   0.430E+00    0.656E-01
DAV:   3    -0.136275734188E+04   -0.17480E-01   -0.25149E-01  2600   0.818E-01    0.535E-01
DAV:   4    -0.136275383530E+04    0.35066E-02   -0.22547E-02  2592   0.356E-01    0.392E-01
DAV:   5    -0.136274928583E+04    0.45495E-02   -0.12297E-02  2216   0.220E-01    0.160E-01
DAV:   6    -0.136274949007E+04   -0.20424E-03   -0.10332E-02  2296   0.174E-01    0.125E-01
DAV:   7    -0.136274946338E+04    0.26696E-04   -0.36105E-03  2416   0.111E-01    0.945E-02
DAV:   8    -0.136274942175E+04    0.41631E-04   -0.14259E-03  2568   0.706E-02    0.520E-02
DAV:   9    -0.136274939703E+04    0.24714E-04   -0.37145E-04  2352   0.385E-02    0.327E-02
DAV:  10    -0.136274940253E+04   -0.54947E-05   -0.11883E-04  2400   0.207E-02    0.204E-02
DAV:  11    -0.136274940130E+04    0.12308E-05   -0.40087E-05  2384   0.137E-02    0.113E-02
DAV:  12    -0.136274940174E+04   -0.44057E-06   -0.25700E-05  2208   0.101E-02    0.100E-02
DAV:  13    -0.136274940097E+04    0.77131E-06   -0.10964E-05  1760   0.665E-03    0.535E-03
DAV:  14    -0.136274940078E+04    0.18548E-06   -0.40488E-06  1240   0.514E-03
  17 F= -.13627494E+04 E0= -.13627494E+04  d E =-.441245E+00
 BRION: g(F)=  0.149E+00 g(S)=  0.000E+00 retain N=  3 mean eig= 4.81
 eig:   6.413  6.413  1.610
 bond charge predicted
       N       E                     dE             d eps       ncg     rms          rms(c)
DAV:   1    -0.136289660541E+04   -0.14720E+00   -0.45873E+01  1360   0.959E+00    0.113E+00
DAV:   2    -0.136313540325E+04   -0.23880E+00   -0.25171E+00  2288   0.380E+00    0.585E-01
DAV:   3    -0.136314922656E+04   -0.13823E-01   -0.20078E-01  2584   0.746E-01    0.470E-01
DAV:   4    -0.136314606264E+04    0.31639E-02   -0.19289E-02  2576   0.328E-01    0.333E-01
DAV:   5    -0.136314276537E+04    0.32973E-02   -0.10028E-02  2352   0.200E-01    0.133E-01
DAV:   6    -0.136314292668E+04   -0.16130E-03   -0.72100E-03  2400   0.155E-01    0.103E-01
DAV:   7    -0.136314291179E+04    0.14882E-04   -0.26914E-03  2432   0.977E-02    0.771E-02
DAV:   8    -0.136314289601E+04    0.15785E-04   -0.10781E-03  2560   0.606E-02    0.427E-02
DAV:   9    -0.136314288340E+04    0.12612E-04   -0.24258E-04  2464   0.322E-02    0.290E-02
DAV:  10    -0.136314288463E+04   -0.12300E-05   -0.88603E-05  2480   0.180E-02    0.182E-02
DAV:  11    -0.136314288464E+04   -0.81782E-08   -0.36520E-05  2416   0.127E-02    0.103E-02
DAV:  12    -0.136314288469E+04   -0.51165E-07   -0.19944E-05  2200   0.954E-03    0.905E-03
DAV:  13    -0.136314288407E+04    0.61585E-06   -0.10710E-05  1752   0.649E-03    0.484E-03
DAV:  14    -0.136314288390E+04    0.17506E-06   -0.34869E-06  1208   0.499E-03
  18 F= -.13631429E+04 E0= -.13631429E+04  d E =-.393483E+00
 BRION: g(F)=  0.127E+00 g(S)=  0.000E+00 retain N=  3 mean eig= 5.01
 eig:   6.722  6.722  1.577
 bond charge predicted
       N       E                     dE             d eps       ncg     rms          rms(c)
DAV:   1    -0.136327670908E+04   -0.13383E+00   -0.24644E+01  1360   0.701E+00    0.825E-01
DAV:   2    -0.136340581297E+04   -0.12910E+00   -0.13652E+00  2296   0.279E+00    0.428E-01
DAV:   3    -0.136341346231E+04   -0.76493E-02   -0.11079E-01  2592   0.544E-01    0.349E-01
DAV:   4    -0.136341179777E+04    0.16645E-02   -0.10550E-02  2592   0.244E-01    0.250E-01
DAV:   5    -0.136340995672E+04    0.18410E-02   -0.56378E-03  2304   0.146E-01    0.102E-01
DAV:   6    -0.136341002475E+04   -0.68025E-04   -0.40418E-03  2336   0.113E-01    0.793E-02
DAV:   7    -0.136341001961E+04    0.51342E-05   -0.16610E-03  2400   0.740E-02    0.588E-02
DAV:   8    -0.136341000958E+04    0.10033E-04   -0.64103E-04  2568   0.478E-02    0.336E-02
DAV:   9    -0.136341000252E+04    0.70647E-05   -0.14972E-04  2488   0.249E-02    0.226E-02
DAV:  10    -0.136341000367E+04   -0.11566E-05   -0.46961E-05  2512   0.133E-02    0.145E-02
DAV:  11    -0.136341000375E+04   -0.81709E-07   -0.21913E-05  2184   0.979E-03    0.936E-03
DAV:  12    -0.136341000322E+04    0.52885E-06   -0.12347E-05  1896   0.784E-03    0.750E-03
DAV:  13    -0.136341000288E+04    0.34245E-06   -0.79066E-06  1696   0.551E-03
  19 F= -.13634100E+04 E0= -.13634100E+04  d E =-.267119E+00
 BRION: g(F)=  0.113E+00 g(S)=  0.000E+00 retain N=  3 mean eig= 4.52
 eig:   5.982  5.982  1.601
 bond charge predicted
       N       E                     dE             d eps       ncg     rms          rms(c)
DAV:   1    -0.136353830307E+04   -0.12830E+00   -0.17748E+01  1360   0.594E+00    0.697E-01
DAV:   2    -0.136363039204E+04   -0.92089E-01   -0.97331E-01  2296   0.232E+00    0.359E-01
DAV:   3    -0.136363555926E+04   -0.51672E-02   -0.76932E-02  2592   0.467E-01    0.287E-01
DAV:   4    -0.136363422171E+04    0.13375E-02   -0.76271E-03  2592   0.207E-01    0.199E-01
DAV:   5    -0.136363303377E+04    0.11879E-02   -0.38578E-03  2312   0.124E-01    0.770E-02
DAV:   6    -0.136363311385E+04   -0.80074E-04   -0.25884E-03  2400   0.915E-02    0.607E-02
DAV:   7    -0.136363311331E+04    0.53814E-06   -0.92042E-04  2416   0.564E-02    0.449E-02
DAV:   8    -0.136363311050E+04    0.28052E-05   -0.38219E-04  2560   0.354E-02    0.249E-02
DAV:   9    -0.136363310629E+04    0.42111E-05   -0.80174E-05  2408   0.191E-02    0.176E-02
DAV:  10    -0.136363310672E+04   -0.42669E-06   -0.35008E-05  2440   0.114E-02    0.107E-02
DAV:  11    -0.136363310638E+04    0.33887E-06   -0.12010E-05  1792   0.797E-03    0.527E-03
DAV:  12    -0.136363310681E+04   -0.43397E-06   -0.86249E-06  1696   0.613E-03
  20 F= -.13636331E+04 E0= -.13636331E+04  d E =-.223104E+00
 BRION: g(F)=  0.102E+00 g(S)=  0.000E+00 retain N=  3 mean eig= 4.39
 eig:   5.775  5.775  1.616
