 running on  160 total cores
 distrk:  each k-point on  160 cores,    1 groups
 distr:  one band on   20 cores,    8 groups
 using from now: INCAR     
 vasp.5.4.4.18Apr17-6-g9f103f2a35 (build May 01 2020 14:22:42) gamma-only       
  
 POSCAR found type information on POSCAR  O  La Zr Li Al
 POSCAR found :  5 types and     188 ions
 scaLAPACK will be used
 LDA part: xc-table for Pade appr. of Perdew
 POSCAR, INCAR and KPOINTS ok, starting setup
 FFT: planning ...
 WAVECAR not read
 WARNING: random wavefunctions but no delay for mixing, default for NELMDL
 entering main loop
       N       E                     dE             d eps       ncg     rms          rms(c)
DAV:   1     0.253313510528E+05    0.25331E+05   -0.42115E+05  1600   0.253E+03
DAV:   2     0.943743273491E+04   -0.15894E+05   -0.14752E+05  1432   0.704E+02
DAV:   3     0.272452521607E+04   -0.67129E+04   -0.60899E+04  1496   0.355E+02
DAV:   4    -0.355234591665E+03   -0.30798E+04   -0.28719E+04  2056   0.222E+02
DAV:   5    -0.139742331759E+04   -0.10422E+04   -0.10057E+04  2536   0.142E+02    0.117E+02
DAV:   6    -0.128774423068E+04    0.10968E+03   -0.14667E+03  2448   0.665E+01    0.502E+01
DAV:   7    -0.131051685221E+04   -0.22773E+02   -0.39476E+02  2568   0.344E+01    0.256E+01
DAV:   8    -0.131626151133E+04   -0.57447E+01   -0.23714E+02  2536   0.262E+01    0.239E+01
DAV:   9    -0.131234849488E+04    0.39130E+01   -0.39615E+01  2576   0.136E+01    0.879E+00
DAV:  10    -0.131266440227E+04   -0.31591E+00   -0.18440E+01  2608   0.736E+00    0.668E+00
DAV:  11    -0.131311021315E+04   -0.44581E+00   -0.46620E+00  2616   0.401E+00    0.464E+00
DAV:  12    -0.131303458220E+04    0.75631E-01   -0.19446E+00  2568   0.297E+00    0.348E+00
DAV:  13    -0.131298149876E+04    0.53083E-01   -0.13784E+00  2504   0.206E+00    0.214E+00
DAV:  14    -0.131298135900E+04    0.13976E-03   -0.20927E-01  2576   0.106E+00    0.138E+00
DAV:  15    -0.131298103370E+04    0.32530E-03   -0.75363E-02  2584   0.529E-01    0.850E-01
DAV:  16    -0.131297909990E+04    0.19338E-02   -0.34501E-02  2592   0.317E-01    0.538E-01
DAV:  17    -0.131297948338E+04   -0.38347E-03   -0.12474E-02  2576   0.227E-01    0.258E-01
DAV:  18    -0.131297951381E+04   -0.30428E-04   -0.46912E-03  2512   0.124E-01    0.146E-01
DAV:  19    -0.131297957501E+04   -0.61202E-04   -0.29354E-03  2576   0.103E-01    0.116E-01
DAV:  20    -0.131297958130E+04   -0.62909E-05   -0.86028E-04  2496   0.511E-02    0.430E-02
DAV:  21    -0.131297959162E+04   -0.10318E-04   -0.29437E-04  2584   0.351E-02    0.474E-02
DAV:  22    -0.131297959892E+04   -0.73014E-05   -0.12813E-04  2552   0.183E-02    0.211E-02
DAV:  23    -0.131297960997E+04   -0.11050E-04   -0.35672E-05  2240   0.127E-02    0.122E-02
DAV:  24    -0.131297960717E+04    0.27957E-05   -0.11637E-05  1192   0.691E-03    0.749E-03
DAV:  25    -0.131297960923E+04   -0.20624E-05   -0.91715E-06  1304   0.689E-03    0.186E-03
DAV:  26    -0.131297960914E+04    0.91590E-07   -0.22328E-06   968   0.434E-03
   1 F= -.13129796E+04 E0= -.13129725E+04  d E =-.131298E+04
 BRION: g(F)=  0.838E+02 g(S)=  0.000E+00
 bond charge predicted
       N       E                     dE             d eps       ncg     rms          rms(c)
DAV:   1    -0.125836852372E+04    0.54611E+02   -0.97691E+03  1672   0.145E+02    0.388E+01
DAV:   2    -0.134280569583E+04   -0.84437E+02   -0.97018E+02  2592   0.688E+01    0.194E+01
DAV:   3    -0.133955092909E+04    0.32548E+01   -0.54089E+01  2624   0.183E+01    0.124E+01
DAV:   4    -0.133697295436E+04    0.25780E+01   -0.24407E+01  2408   0.984E+00    0.576E+00
DAV:   5    -0.133687613704E+04    0.96817E-01   -0.64224E+00  2528   0.538E+00    0.421E+00
DAV:   6    -0.133675003715E+04    0.12610E+00   -0.42766E+00  2584   0.355E+00    0.233E+00
DAV:   7    -0.133672541253E+04    0.24625E-01   -0.57275E-01  2544   0.196E+00    0.134E+00
DAV:   8    -0.133672649507E+04   -0.10825E-02   -0.53707E-01  2584   0.124E+00    0.861E-01
DAV:   9    -0.133673202274E+04   -0.55277E-02   -0.11614E-01  2552   0.642E-01    0.741E-01
DAV:  10    -0.133672494007E+04    0.70827E-02   -0.37099E-02  2616   0.403E-01    0.350E-01
DAV:  11    -0.133672544251E+04   -0.50244E-03   -0.26803E-02  2536   0.280E-01    0.151E-01
DAV:  12    -0.133672583890E+04   -0.39639E-03   -0.41640E-03  2624   0.147E-01    0.107E-01
DAV:  13    -0.133672572056E+04    0.11834E-03   -0.16095E-03  2616   0.809E-02    0.322E-02
DAV:  14    -0.133672576356E+04   -0.42993E-04   -0.42983E-04  2528   0.433E-02    0.148E-02
DAV:  15    -0.133672577426E+04   -0.10707E-04   -0.10769E-04  2624   0.205E-02    0.109E-02
DAV:  16    -0.133672577672E+04   -0.24528E-05   -0.36358E-05  2472   0.130E-02    0.740E-03
DAV:  17    -0.133672577830E+04   -0.15849E-05   -0.17137E-05  2192   0.795E-03    0.371E-03
DAV:  18    -0.133672577849E+04   -0.19086E-06   -0.24569E-06  1088   0.459E-03
   2 F= -.13367258E+04 E0= -.13367258E+04  d E =-.237462E+02
 BRION: g(F)=  0.959E+02 g(S)=  0.000E+00 retain N=  1 mean eig= 0.48
 eig:   0.477
 bond charge predicted
       N       E                     dE             d eps       ncg     rms          rms(c)
DAV:   1    -0.130593613561E+04    0.30790E+02   -0.40877E+03  1360   0.840E+01    0.236E+01
DAV:   2    -0.135047674451E+04   -0.44541E+02   -0.53344E+02  2560   0.417E+01    0.244E+01
DAV:   3    -0.134911352051E+04    0.13632E+01   -0.35661E+01  2600   0.134E+01    0.192E+01
DAV:   4    -0.134705653406E+04    0.20570E+01   -0.34175E+01  2160   0.804E+00    0.101E+01
DAV:   5    -0.134773314604E+04   -0.67661E+00   -0.95792E+00  2408   0.505E+00    0.927E+00
DAV:   6    -0.134638051597E+04    0.13526E+01   -0.16737E+01  2384   0.514E+00    0.271E+00
DAV:   7    -0.134638601734E+04   -0.55014E-02   -0.24516E+00  2400   0.335E+00    0.147E+00
DAV:   8    -0.134641709980E+04   -0.31082E-01   -0.76316E-01  2624   0.145E+00    0.817E-01
DAV:   9    -0.134641875706E+04   -0.16573E-02   -0.89334E-02  2576   0.615E-01    0.551E-01
DAV:  10    -0.134642032771E+04   -0.15707E-02   -0.59215E-02  2456   0.415E-01    0.322E-01
DAV:  11    -0.134642037559E+04   -0.47873E-04   -0.17815E-02  2512   0.270E-01    0.289E-01
DAV:  12    -0.134641965813E+04    0.71746E-03   -0.99069E-03  2576   0.157E-01    0.103E-01
DAV:  13    -0.134641976593E+04   -0.10780E-03   -0.34148E-03  2552   0.977E-02    0.549E-02
DAV:  14    -0.134641977545E+04   -0.95202E-05   -0.63573E-04  2552   0.492E-02    0.274E-02
DAV:  15    -0.134641978663E+04   -0.11175E-04   -0.22532E-04  2616   0.246E-02    0.115E-02
DAV:  16    -0.134641979271E+04   -0.60800E-05   -0.73286E-05  2552   0.136E-02    0.850E-03
DAV:  17    -0.134641979502E+04   -0.23099E-05   -0.17577E-05  1576   0.761E-03    0.446E-03
DAV:  18    -0.134641979552E+04   -0.50466E-06   -0.68159E-06  1184   0.500E-03
   3 F= -.13464198E+04 E0= -.13464198E+04  d E =-.969402E+01
 BRION: g(F)=  0.147E+02 g(S)=  0.000E+00 retain N=  2 mean eig= 1.30
 eig:   0.306  2.291
 bond charge predicted
       N       E                     dE             d eps       ncg     rms          rms(c)
DAV:   1    -0.134643202489E+04   -0.12230E-01   -0.68841E+02  1376   0.343E+01    0.788E+00
DAV:   2    -0.135074258222E+04   -0.43106E+01   -0.49674E+01  2344   0.150E+01    0.382E+00
DAV:   3    -0.135074855112E+04   -0.59689E-02   -0.36835E+00  2536   0.450E+00    0.331E+00
DAV:   4    -0.135059046575E+04    0.15809E+00   -0.11793E+00  2384   0.200E+00    0.162E+00
DAV:   5    -0.135058229105E+04    0.81747E-02   -0.49554E-01  2424   0.136E+00    0.141E+00
DAV:   6    -0.135055807484E+04    0.24216E-01   -0.26613E-01  2520   0.104E+00    0.783E-01
DAV:   7    -0.135055778079E+04    0.29405E-03   -0.14115E-01  2504   0.643E-01    0.536E-01
DAV:   8    -0.135055603327E+04    0.17475E-02   -0.24523E-02  2600   0.318E-01    0.305E-01
DAV:   9    -0.135055502002E+04    0.10133E-02   -0.10266E-02  2472   0.186E-01    0.147E-01
DAV:  10    -0.135055549670E+04   -0.47668E-03   -0.77528E-03  2352   0.140E-01    0.143E-01
DAV:  11    -0.135055518466E+04    0.31204E-03   -0.12088E-03  2536   0.824E-02    0.695E-02
DAV:  12    -0.135055520326E+04   -0.18596E-04   -0.13818E-03  2424   0.575E-02    0.401E-02
DAV:  13    -0.135055520196E+04    0.13017E-05   -0.21853E-04  2528   0.319E-02    0.228E-02
DAV:  14    -0.135055520102E+04    0.94030E-06   -0.73998E-05  2520   0.142E-02    0.917E-03
DAV:  15    -0.135055520198E+04   -0.96389E-06   -0.11757E-05  2072   0.795E-03    0.501E-03
DAV:  16    -0.135055520178E+04    0.20236E-06   -0.43964E-06  1352   0.511E-03
   4 F= -.13505552E+04 E0= -.13505552E+04  d E =-.413541E+01
 BRION: g(F)=  0.590E+01 g(S)=  0.000E+00 retain N=  3 mean eig= 1.64
 eig:   4.133  0.395  0.395
 bond charge predicted
       N       E                     dE             d eps       ncg     rms          rms(c)
DAV:   1    -0.135184602101E+04   -0.12908E+01   -0.22925E+02  1360   0.207E+01    0.354E+00
DAV:   2    -0.135304674882E+04   -0.12007E+01   -0.12850E+01  2304   0.776E+00    0.192E+00
DAV:   3    -0.135306480330E+04   -0.18054E-01   -0.89931E-01  2616   0.173E+00    0.156E+00
DAV:   4    -0.135302027073E+04    0.44533E-01   -0.28158E-01  2512   0.103E+00    0.712E-01
DAV:   5    -0.135301808290E+04    0.21878E-02   -0.82611E-02  2472   0.604E-01    0.550E-01
DAV:   6    -0.135301653726E+04    0.15456E-02   -0.69173E-02  2536   0.446E-01    0.251E-01
DAV:   7    -0.135301645728E+04    0.79980E-04   -0.13297E-02  2416   0.232E-01    0.207E-01
DAV:   8    -0.135301625150E+04    0.20578E-03   -0.48592E-03  2448   0.116E-01    0.888E-02
DAV:   9    -0.135301628375E+04   -0.32255E-04   -0.18669E-03  2592   0.735E-02    0.634E-02
DAV:  10    -0.135301627525E+04    0.85055E-05   -0.41732E-04  2416   0.438E-02    0.462E-02
DAV:  11    -0.135301627034E+04    0.49135E-05   -0.37427E-04  2456   0.317E-02    0.202E-02
DAV:  12    -0.135301626998E+04    0.35453E-06   -0.88929E-05  2416   0.188E-02    0.120E-02
DAV:  13    -0.135301627092E+04   -0.93743E-06   -0.24454E-05  2360   0.984E-03    0.728E-03
DAV:  14    -0.135301627098E+04   -0.62588E-07   -0.89500E-06  1688   0.587E-03
   5 F= -.13530163E+04 E0= -.13530163E+04  d E =-.246107E+01
 BRION: g(F)=  0.290E+01 g(S)=  0.000E+00 retain N=  4 mean eig= 1.37
 eig:   4.245  0.297  0.473  0.473
 bond charge predicted
       N       E                     dE             d eps       ncg     rms          rms(c)
DAV:   1    -0.135383913923E+04   -0.82287E+00   -0.16587E+02  1352   0.175E+01    0.295E+00
DAV:   2    -0.135463145599E+04   -0.79232E+00   -0.83881E+00  2280   0.643E+00    0.145E+00
DAV:   3    -0.135464394567E+04   -0.12490E-01   -0.54556E-01  2608   0.134E+00    0.116E+00
DAV:   4    -0.135461587279E+04    0.28073E-01   -0.17292E-01  2416   0.805E-01    0.513E-01
DAV:   5    -0.135461626421E+04   -0.39142E-03   -0.52609E-02  2464   0.459E-01    0.411E-01
DAV:   6    -0.135461528876E+04    0.97545E-03   -0.38862E-02  2480   0.324E-01    0.169E-01
DAV:   7    -0.135461521276E+04    0.76002E-04   -0.57493E-03  2440   0.169E-01    0.124E-01
DAV:   8    -0.135461521031E+04    0.24513E-05   -0.28636E-03  2544   0.863E-02    0.489E-02
DAV:   9    -0.135461523442E+04   -0.24111E-04   -0.56677E-04  2624   0.485E-02    0.436E-02
DAV:  10    -0.135461522191E+04    0.12508E-04   -0.22759E-04  2600   0.278E-02    0.207E-02
DAV:  11    -0.135461522579E+04   -0.38840E-05   -0.12526E-04  2544   0.200E-02    0.134E-02
DAV:  12    -0.135461522652E+04   -0.72207E-06   -0.19022E-05  2216   0.929E-03    0.104E-02
DAV:  13    -0.135461522545E+04    0.10710E-05   -0.11642E-05  1656   0.693E-03    0.383E-03
DAV:  14    -0.135461522557E+04   -0.12649E-06   -0.46443E-06  1328   0.553E-03
   6 F= -.13546152E+04 E0= -.13546152E+04  d E =-.159895E+01
 BRION: g(F)=  0.170E+01 g(S)=  0.000E+00 retain N=  5 mean eig= 1.52
 eig:   2.928  2.928  0.617  0.617  0.532
 bond charge predicted
       N       E                     dE             d eps       ncg     rms          rms(c)
DAV:   1    -0.135485541409E+04   -0.24019E+00   -0.29916E+02  1384   0.239E+01    0.350E+00
DAV:   2    -0.135637553270E+04   -0.15201E+01   -0.15875E+01  2280   0.907E+00    0.178E+00
DAV:   3    -0.135642724992E+04   -0.51717E-01   -0.11167E+00  2616   0.180E+00    0.142E+00
DAV:   4    -0.135638710098E+04    0.40149E-01   -0.21720E-01  2520   0.954E-01    0.691E-01
DAV:   5    -0.135638318956E+04    0.39114E-02   -0.70618E-02  2480   0.512E-01    0.398E-01
DAV:   6    -0.135638365608E+04   -0.46652E-03   -0.30100E-02  2600   0.302E-01    0.185E-01
DAV:   7    -0.135638352241E+04    0.13367E-03   -0.76577E-03  2360   0.179E-01    0.123E-01
DAV:   8    -0.135638366951E+04   -0.14710E-03   -0.29616E-03  2472   0.922E-02    0.745E-02
DAV:   9    -0.135638362224E+04    0.47271E-04   -0.74432E-04  2624   0.564E-02    0.396E-02
DAV:  10    -0.135638364735E+04   -0.25104E-04   -0.40711E-04  2592   0.350E-02    0.284E-02
DAV:  11    -0.135638364079E+04    0.65562E-05   -0.12451E-04  2576   0.235E-02    0.122E-02
DAV:  12    -0.135638364317E+04   -0.23835E-05   -0.41365E-05  2336   0.127E-02    0.839E-03
DAV:  13    -0.135638364337E+04   -0.20210E-06   -0.11555E-05  1768   0.699E-03    0.564E-03
DAV:  14    -0.135638364316E+04    0.21298E-06   -0.27700E-06  1096   0.548E-03
   7 F= -.13563836E+04 E0= -.13563836E+04  d E =-.176842E+01
 BRION: g(F)=  0.949E+00 g(S)=  0.000E+00 retain N=  6 mean eig= 1.39
 eig:   4.024  1.468  1.468  0.312  0.543  0.543
 bond charge predicted
       N       E                     dE             d eps       ncg     rms          rms(c)
DAV:   1    -0.135682108434E+04   -0.43744E+00   -0.58838E+01  1384   0.109E+01    0.184E+00
DAV:   2    -0.135711625388E+04   -0.29517E+00   -0.31333E+00  2296   0.422E+00    0.856E-01
DAV:   3    -0.135712821905E+04   -0.11965E-01   -0.23724E-01  2624   0.825E-01    0.672E-01
DAV:   4    -0.135712089290E+04    0.73262E-02   -0.48009E-02  2504   0.469E-01    0.296E-01
DAV:   5    -0.135712100217E+04   -0.10927E-03   -0.15099E-02  2488   0.257E-01    0.202E-01
DAV:   6    -0.135712100996E+04   -0.77858E-05   -0.91579E-03  2600   0.165E-01    0.975E-02
DAV:   7    -0.135712096349E+04    0.46472E-04   -0.14941E-03  2464   0.849E-02    0.721E-02
DAV:   8    -0.135712096916E+04   -0.56724E-05   -0.73179E-04  2528   0.457E-02    0.323E-02
DAV:   9    -0.135712096799E+04    0.11728E-05   -0.17558E-04  2576   0.278E-02    0.198E-02
DAV:  10    -0.135712097308E+04   -0.50935E-05   -0.70427E-05  2456   0.161E-02    0.154E-02
DAV:  11    -0.135712097182E+04    0.12606E-05   -0.33067E-05  2368   0.115E-02    0.765E-03
DAV:  12    -0.135712097200E+04   -0.17669E-06   -0.10743E-05  1776   0.695E-03    0.525E-03
DAV:  13    -0.135712097183E+04    0.16637E-06   -0.21402E-06  1048   0.515E-03
   8 F= -.13571210E+04 E0= -.13571210E+04  d E =-.737329E+00
 BRION: g(F)=  0.637E+00 g(S)=  0.000E+00 retain N=  7 mean eig= 1.87
 eig:   5.145  2.876  2.876  0.262  0.681  0.681  0.566
 bond charge predicted
       N       E                     dE             d eps       ncg     rms          rms(c)
DAV:   1    -0.135748243307E+04   -0.36146E+00   -0.12406E+02  1368   0.159E+01    0.207E+00
DAV:   2    -0.135811731905E+04   -0.63489E+00   -0.67124E+00  2288   0.624E+00    0.105E+00
DAV:   3    -0.135815283536E+04   -0.35516E-01   -0.52842E-01  2608   0.121E+00    0.843E-01
DAV:   4    -0.135814240265E+04    0.10433E-01   -0.61648E-02  2600   0.575E-01    0.514E-01
DAV:   5    -0.135813851238E+04    0.38903E-02   -0.29247E-02  2392   0.339E-01    0.207E-01
DAV:   6    -0.135813942473E+04   -0.91236E-03   -0.12452E-02  2600   0.214E-01    0.159E-01
DAV:   7    -0.135813932974E+04    0.94986E-04   -0.46930E-03  2536   0.133E-01    0.101E-01
DAV:   8    -0.135813935160E+04   -0.21857E-04   -0.18241E-03  2616   0.810E-02    0.604E-02
DAV:   9    -0.135813932905E+04    0.22549E-04   -0.32586E-04  2584   0.413E-02    0.428E-02
DAV:  10    -0.135813933966E+04   -0.10613E-04   -0.32072E-04  2488   0.307E-02    0.261E-02
DAV:  11    -0.135813933479E+04    0.48706E-05   -0.86379E-05  2496   0.210E-02    0.105E-02
DAV:  12    -0.135813933787E+04   -0.30777E-05   -0.38157E-05  2376   0.118E-02    0.104E-02
DAV:  13    -0.135813933649E+04    0.13802E-05   -0.91386E-06  1648   0.708E-03    0.436E-03
DAV:  14    -0.135813933677E+04   -0.28100E-06   -0.68357E-06  1520   0.621E-03
   9 F= -.13581393E+04 E0= -.13581393E+04  d E =-.101836E+01
 BRION: g(F)=  0.479E+00 g(S)=  0.000E+00 retain N=  8 mean eig= 1.93
 eig:   5.723  3.048  3.048  0.955  0.955  0.302  0.702  0.702
 bond charge predicted
       N       E                     dE             d eps       ncg     rms          rms(c)
DAV:   1    -0.135848505581E+04   -0.34572E+00   -0.58728E+01  1384   0.110E+01    0.143E+00
DAV:   2    -0.135878642310E+04   -0.30137E+00   -0.32170E+00  2304   0.433E+00    0.734E-01
DAV:   3    -0.135880294872E+04   -0.16526E-01   -0.25101E-01  2592   0.859E-01    0.590E-01
DAV:   4    -0.135879795091E+04    0.49978E-02   -0.30603E-02  2584   0.407E-01    0.360E-01
DAV:   5    -0.135879606336E+04    0.18875E-02   -0.15816E-02  2328   0.243E-01    0.150E-01
DAV:   6    -0.135879646989E+04   -0.40653E-03   -0.65405E-03  2584   0.157E-01    0.121E-01
DAV:   7    -0.135879641868E+04    0.51215E-04   -0.27712E-03  2576   0.985E-02    0.737E-02
DAV:   8    -0.135879641671E+04    0.19669E-05   -0.76258E-04  2624   0.569E-02    0.427E-02
DAV:   9    -0.135879641083E+04    0.58824E-05   -0.16979E-04  2600   0.276E-02    0.283E-02
DAV:  10    -0.135879641962E+04   -0.87971E-05   -0.11393E-04  2416   0.189E-02    0.182E-02
DAV:  11    -0.135879641705E+04    0.25782E-05   -0.36574E-05  2408   0.133E-02    0.761E-03
DAV:  12    -0.135879641781E+04   -0.76523E-06   -0.15333E-05  1872   0.834E-03    0.672E-03
DAV:  13    -0.135879641720E+04    0.61523E-06   -0.20777E-06   992   0.544E-03
  10 F= -.13587964E+04 E0= -.13587964E+04  d E =-.657080E+00
 BRION: g(F)=  0.376E+00 g(S)=  0.000E+00 retain N=  9 mean eig= 2.40
 eig:   6.350  4.875  4.875  1.505  1.505  0.374  0.731  0.731  0.683
 bond charge predicted
       N       E                     dE             d eps       ncg     rms          rms(c)
DAV:   1    -0.135900951559E+04   -0.21310E+00   -0.13069E+02  1392   0.164E+01    0.198E+00
DAV:   2    -0.135968070861E+04   -0.67119E+00   -0.71097E+00  2288   0.641E+00    0.995E-01
DAV:   3    -0.135971813034E+04   -0.37422E-01   -0.55876E-01  2616   0.126E+00    0.793E-01
DAV:   4    -0.135970817057E+04    0.99598E-02   -0.58633E-02  2600   0.575E-01    0.523E-01
DAV:   5    -0.135970171586E+04    0.64547E-02   -0.26621E-02  2376   0.326E-01    0.204E-01
DAV:   6    -0.135970240127E+04   -0.68540E-03   -0.14421E-02  2472   0.225E-01    0.151E-01
DAV:   7    -0.135970242242E+04   -0.21156E-04   -0.56447E-03  2464   0.142E-01    0.106E-01
DAV:   8    -0.135970243713E+04   -0.14709E-04   -0.20546E-03  2616   0.861E-02    0.631E-02
DAV:   9    -0.135970241592E+04    0.21213E-04   -0.45159E-04  2568   0.455E-02    0.452E-02
DAV:  10    -0.135970242186E+04   -0.59440E-05   -0.24913E-04  2616   0.293E-02    0.265E-02
DAV:  11    -0.135970242188E+04   -0.16211E-07   -0.10592E-04  2504   0.212E-02    0.135E-02
DAV:  12    -0.135970242195E+04   -0.72687E-07   -0.35923E-05  2360   0.143E-02    0.109E-02
DAV:  13    -0.135970242159E+04    0.36701E-06   -0.21860E-05  2088   0.828E-03    0.571E-03
DAV:  14    -0.135970242148E+04    0.10783E-06   -0.42683E-06  1256   0.558E-03
  11 F= -.13597024E+04 E0= -.13597024E+04  d E =-.906004E+00
 BRION: g(F)=  0.306E+00 g(S)=  0.000E+00 retain N= 10 mean eig= 2.92
 eig:   6.337  6.379  6.379  3.027  3.027  0.960  0.746  0.746  0.803  0.803
 bond charge predicted
       N       E                     dE             d eps       ncg     rms          rms(c)
DAV:   1    -0.135997032766E+04   -0.26791E+00   -0.56416E+01  1384   0.108E+01    0.130E+00
DAV:   2    -0.136026613435E+04   -0.29581E+00   -0.31485E+00  2280   0.432E+00    0.671E-01
DAV:   3    -0.136028296678E+04   -0.16832E-01   -0.25091E-01  2608   0.853E-01    0.544E-01
DAV:   4    -0.136027869468E+04    0.42721E-02   -0.26437E-02  2616   0.385E-01    0.367E-01
DAV:   5    -0.136027550888E+04    0.31858E-02   -0.12875E-02  2344   0.222E-01    0.143E-01
DAV:   6    -0.136027582216E+04   -0.31328E-03   -0.69061E-03  2456   0.155E-01    0.110E-01
DAV:   7    -0.136027579989E+04    0.22264E-04   -0.28394E-03  2456   0.100E-01    0.742E-02
DAV:   8    -0.136027581139E+04   -0.11499E-04   -0.11821E-03  2600   0.648E-02    0.467E-02
DAV:   9    -0.136027580051E+04    0.10880E-04   -0.21290E-04  2544   0.322E-02    0.342E-02
DAV:  10    -0.136027580086E+04   -0.34271E-06   -0.99314E-05  2584   0.183E-02    0.183E-02
DAV:  11    -0.136027580267E+04   -0.18096E-05   -0.43796E-05  2504   0.134E-02    0.110E-02
DAV:  12    -0.136027580150E+04    0.11638E-05   -0.17688E-05  2128   0.102E-02    0.762E-03
DAV:  13    -0.136027580152E+04   -0.22614E-07   -0.11978E-05  1768   0.654E-03    0.445E-03
DAV:  14    -0.136027580135E+04    0.17650E-06   -0.13878E-06   968   0.429E-03
  12 F= -.13602758E+04 E0= -.13602758E+04  d E =-.573380E+00
 BRION: g(F)=  0.254E+00 g(S)=  0.000E+00 retain N=  9 mean eig= 2.93
 eig:   7.659  7.659  3.083  2.249  2.249  0.729  0.927  0.927  0.871
 bond charge predicted
       N       E                     dE             d eps       ncg     rms          rms(c)
DAV:   1    -0.136052359849E+04   -0.24780E+00   -0.50332E+01  1392   0.102E+01    0.123E+00
DAV:   2    -0.136078950594E+04   -0.26591E+00   -0.28306E+00  2304   0.413E+00    0.637E-01
DAV:   3    -0.136080435967E+04   -0.14854E-01   -0.22347E-01  2616   0.800E-01    0.529E-01
DAV:   4    -0.136080067616E+04    0.36835E-02   -0.22952E-02  2624   0.357E-01    0.372E-01
DAV:   5    -0.136079702024E+04    0.36559E-02   -0.12577E-02  2304   0.223E-01    0.148E-01
DAV:   6    -0.136079736635E+04   -0.34611E-03   -0.85046E-03  2432   0.171E-01    0.126E-01
DAV:   7    -0.136079727747E+04    0.88878E-04   -0.33457E-03  2408   0.107E-01    0.877E-02
DAV:   8    -0.136079725884E+04    0.18633E-04   -0.14178E-03  2608   0.708E-02    0.470E-02
DAV:   9    -0.136079724960E+04    0.92349E-05   -0.26918E-04  2536   0.343E-02    0.330E-02
DAV:  10    -0.136079725158E+04   -0.19779E-05   -0.81385E-05  2560   0.177E-02    0.206E-02
DAV:  11    -0.136079725249E+04   -0.91246E-06   -0.46710E-05  2400   0.140E-02    0.135E-02
DAV:  12    -0.136079725115E+04    0.13387E-05   -0.23612E-05  2240   0.110E-02    0.106E-02
DAV:  13    -0.136079725050E+04    0.65244E-06   -0.15028E-05  1864   0.722E-03    0.525E-03
DAV:  14    -0.136079725024E+04    0.26617E-06   -0.20580E-06  1016   0.481E-03
  13 F= -.13607973E+04 E0= -.13607973E+04  d E =-.521449E+00
 BRION: g(F)=  0.221E+00 g(S)=  0.000E+00 retain N=  9 mean eig= 3.24
 eig:   7.990  7.990  3.504  3.504  1.437  1.437  1.127  1.127  1.001
 bond charge predicted
       N       E                     dE             d eps       ncg     rms          rms(c)
DAV:   1    -0.136101740616E+04   -0.22016E+00   -0.46045E+01  1384   0.971E+00    0.116E+00
DAV:   2    -0.136126061097E+04   -0.24320E+00   -0.25808E+00  2296   0.396E+00    0.602E-01
DAV:   3    -0.136127353080E+04   -0.12920E-01   -0.19997E-01  2592   0.779E-01    0.494E-01
DAV:   4    -0.136127000644E+04    0.35244E-02   -0.21020E-02  2592   0.337E-01    0.346E-01
DAV:   5    -0.136126665084E+04    0.33556E-02   -0.11438E-02  2296   0.214E-01    0.141E-01
DAV:   6    -0.136126692206E+04   -0.27121E-03   -0.78791E-03  2416   0.165E-01    0.119E-01
DAV:   7    -0.136126685651E+04    0.65544E-04   -0.30829E-03  2368   0.104E-01    0.860E-02
DAV:   8    -0.136126683997E+04    0.16543E-04   -0.13831E-03  2560   0.680E-02    0.476E-02
DAV:   9    -0.136126682745E+04    0.12518E-04   -0.26494E-04  2528   0.347E-02    0.325E-02
DAV:  10    -0.136126682910E+04   -0.16445E-05   -0.93907E-05  2552   0.185E-02    0.195E-02
DAV:  11    -0.136126683027E+04   -0.11755E-05   -0.43394E-05  2432   0.139E-02    0.129E-02
DAV:  12    -0.136126682915E+04    0.11176E-05   -0.21797E-05  2264   0.108E-02    0.107E-02
DAV:  13    -0.136126682842E+04    0.73606E-06   -0.15814E-05  1848   0.715E-03    0.533E-03
DAV:  14    -0.136126682813E+04    0.28389E-06   -0.25453E-06  1080   0.491E-03
  14 F= -.13612668E+04 E0= -.13612668E+04  d E =-.469578E+00
 BRION: g(F)=  0.200E+00 g(S)=  0.000E+00 retain N=  8 mean eig= 3.47
 eig:   7.919  7.919  3.160  3.160  1.661  1.661  1.133  1.133
 bond charge predicted
       N       E                     dE             d eps       ncg     rms          rms(c)
DAV:   1    -0.136149195869E+04   -0.22513E+00   -0.38700E+01  1384   0.886E+00    0.106E+00
DAV:   2    -0.136169699820E+04   -0.20504E+00   -0.21740E+00  2304   0.361E+00    0.553E-01
DAV:   3    -0.136170790487E+04   -0.10907E-01   -0.16832E-01  2584   0.685E-01    0.448E-01
DAV:   4    -0.136170482860E+04    0.30763E-02   -0.17615E-02  2592   0.310E-01    0.307E-01
DAV:   5    -0.136170230435E+04    0.25243E-02   -0.89283E-03  2312   0.189E-01    0.124E-01
DAV:   6    -0.136170249147E+04   -0.18712E-03   -0.56661E-03  2416   0.139E-01    0.968E-02
DAV:   7    -0.136170246486E+04    0.26614E-04   -0.22070E-03  2432   0.882E-02    0.705E-02
DAV:   8    -0.136170245692E+04    0.79376E-05   -0.99302E-04  2576   0.583E-02    0.421E-02
DAV:   9    -0.136170244628E+04    0.10643E-04   -0.19903E-04  2520   0.298E-02    0.289E-02
DAV:  10    -0.136170244604E+04    0.24021E-06   -0.76744E-05  2552   0.166E-02    0.168E-02
DAV:  11    -0.136170244688E+04   -0.84018E-06   -0.31235E-05  2392   0.117E-02    0.105E-02
DAV:  12    -0.136170244619E+04    0.68924E-06   -0.15585E-05  2096   0.914E-03    0.817E-03
DAV:  13    -0.136170244586E+04    0.32822E-06   -0.10581E-05  1744   0.626E-03    0.418E-03
DAV:  14    -0.136170244570E+04    0.16020E-06   -0.19325E-06  1008   0.445E-03
  15 F= -.13617024E+04 E0= -.13617024E+04  d E =-.435618E+00
 BRION: g(F)=  0.183E+00 g(S)=  0.000E+00 retain N=  4 mean eig= 3.79
 eig:   5.932  5.932  1.645  1.645
 bond charge predicted
       N       E                     dE             d eps       ncg     rms          rms(c)
DAV:   1    -0.136190448436E+04   -0.20204E+00   -0.41100E+01  1384   0.913E+00    0.110E+00
DAV:   2    -0.136212091239E+04   -0.21643E+00   -0.22957E+00  2320   0.368E+00    0.568E-01
DAV:   3    -0.136213269315E+04   -0.11781E-01   -0.17992E-01  2608   0.699E-01    0.462E-01
DAV:   4    -0.136212960119E+04    0.30920E-02   -0.18397E-02  2600   0.319E-01    0.317E-01
DAV:   5    -0.136212691144E+04    0.26897E-02   -0.90362E-03  2320   0.192E-01    0.132E-01
DAV:   6    -0.136212706345E+04   -0.15200E-03   -0.63005E-03  2400   0.147E-01    0.101E-01
DAV:   7    -0.136212703908E+04    0.24367E-04   -0.25357E-03  2408   0.947E-02    0.769E-02
DAV:   8    -0.136212702569E+04    0.13393E-04   -0.10652E-03  2576   0.602E-02    0.445E-02
DAV:   9    -0.136212701361E+04    0.12075E-04   -0.24805E-04  2536   0.316E-02    0.293E-02
DAV:  10    -0.136212701499E+04   -0.13840E-05   -0.84269E-05  2568   0.180E-02    0.192E-02
DAV:  11    -0.136212701507E+04   -0.70882E-07   -0.39922E-05  2408   0.129E-02    0.117E-02
DAV:  12    -0.136212701429E+04    0.77851E-06   -0.20036E-05  2168   0.101E-02    0.949E-03
DAV:  13    -0.136212701369E+04    0.59642E-06   -0.13383E-05  1776   0.697E-03    0.459E-03
DAV:  14    -0.136212701356E+04    0.13561E-06   -0.28423E-06  1112   0.484E-03
  16 F= -.13621270E+04 E0= -.13621270E+04  d E =-.424568E+00
 BRION: g(F)=  0.165E+00 g(S)=  0.000E+00 retain N=  3 mean eig= 3.97
 eig:   5.249  5.249  1.423
 bond charge predicted
       N       E                     dE             d eps       ncg     rms          rms(c)
DAV:   1    -0.136231014071E+04   -0.18313E+00   -0.17907E+01  1392   0.602E+00    0.711E-01
DAV:   2    -0.136240238194E+04   -0.92241E-01   -0.97595E-01  2288   0.240E+00    0.366E-01
DAV:   3    -0.136240748595E+04   -0.51040E-02   -0.77541E-02  2576   0.470E-01    0.292E-01
DAV:   4    -0.136240605672E+04    0.14292E-02   -0.79394E-03  2576   0.209E-01    0.197E-01
DAV:   5    -0.136240500707E+04    0.10496E-02   -0.40326E-03  2304   0.128E-01    0.800E-02
DAV:   6    -0.136240507852E+04   -0.71442E-04   -0.24221E-03  2440   0.948E-02    0.629E-02
DAV:   7    -0.136240507878E+04   -0.26349E-06   -0.10155E-03  2416   0.597E-02    0.462E-02
DAV:   8    -0.136240507414E+04    0.46357E-05   -0.40247E-04  2552   0.376E-02    0.274E-02
DAV:   9    -0.136240506996E+04    0.41812E-05   -0.87729E-05  2504   0.196E-02    0.189E-02
DAV:  10    -0.136240506969E+04    0.26956E-06   -0.41702E-05  2536   0.120E-02    0.113E-02
DAV:  11    -0.136240506970E+04   -0.10637E-07   -0.17017E-05  2064   0.914E-03    0.622E-03
DAV:  12    -0.136240506964E+04    0.65585E-07   -0.69048E-06  1664   0.662E-03
  17 F= -.13624051E+04 E0= -.13624051E+04  d E =-.278056E+00
 BRION: g(F)=  0.153E+00 g(S)=  0.000E+00 retain N=  3 mean eig= 3.24
 eig:   4.227  4.227  1.280
 bond charge predicted
       N       E                     dE             d eps       ncg     rms          rms(c)
DAV:   1    -0.136258959596E+04   -0.18453E+00   -0.31337E+01  1384   0.795E+00    0.953E-01
DAV:   2    -0.136275168335E+04   -0.16209E+00   -0.17133E+00  2288   0.315E+00    0.484E-01
DAV:   3    -0.136276099451E+04   -0.93112E-02   -0.13740E-01  2584   0.618E-01    0.388E-01
DAV:   4    -0.136275868996E+04    0.23045E-02   -0.13995E-02  2592   0.277E-01    0.260E-01
DAV:   5    -0.136275700687E+04    0.16831E-02   -0.66498E-03  2360   0.162E-01    0.106E-01
DAV:   6    -0.136275712650E+04   -0.11962E-03   -0.37178E-03  2448   0.113E-01    0.784E-02
DAV:   7    -0.136275711855E+04    0.79415E-05   -0.15533E-03  2440   0.754E-02    0.566E-02
DAV:   8    -0.136275711923E+04   -0.67131E-06   -0.68765E-04  2584   0.490E-02    0.378E-02
DAV:   9    -0.136275711000E+04    0.92236E-05   -0.14492E-04  2464   0.253E-02    0.259E-02
DAV:  10    -0.136275710859E+04    0.14123E-05   -0.66850E-05  2504   0.151E-02    0.143E-02
DAV:  11    -0.136275710912E+04   -0.53061E-06   -0.21643E-05  2280   0.997E-03    0.813E-03
DAV:  12    -0.136275710875E+04    0.37468E-06   -0.10742E-05  1824   0.771E-03    0.586E-03
DAV:  13    -0.136275710875E+04   -0.65484E-09   -0.70166E-06  1632   0.544E-03
  18 F= -.13627571E+04 E0= -.13627571E+04  d E =-.352039E+00
 BRION: g(F)=  0.140E+00 g(S)=  0.000E+00 retain N=  3 mean eig= 4.19
 eig:   5.574  5.574  1.411
 bond charge predicted
       N       E                     dE             d eps       ncg     rms          rms(c)
DAV:   1    -0.136291268804E+04   -0.15558E+00   -0.47741E+01  1368   0.977E+00    0.112E+00
DAV:   2    -0.136315619757E+04   -0.24351E+00   -0.25624E+00  2304   0.380E+00    0.575E-01
DAV:   3    -0.136317041266E+04   -0.14215E-01   -0.20472E-01  2584   0.744E-01    0.457E-01
DAV:   4    -0.136316730216E+04    0.31105E-02   -0.19386E-02  2584   0.328E-01    0.318E-01
DAV:   5    -0.136316453496E+04    0.27672E-02   -0.88959E-03  2360   0.191E-01    0.137E-01
DAV:   6    -0.136316453897E+04   -0.40160E-05   -0.61517E-03  2352   0.147E-01    0.889E-02
DAV:   7    -0.136316459758E+04   -0.58606E-04   -0.27902E-03  2440   0.979E-02    0.745E-02
DAV:   8    -0.136316457831E+04    0.19268E-04   -0.87286E-04  2592   0.582E-02    0.478E-02
DAV:   9    -0.136316456175E+04    0.16562E-04   -0.30799E-04  2544   0.331E-02    0.279E-02
DAV:  10    -0.136316456532E+04   -0.35734E-05   -0.98155E-05  2568   0.195E-02    0.193E-02
DAV:  11    -0.136316456475E+04    0.56974E-06   -0.37158E-05  2400   0.128E-02    0.110E-02
DAV:  12    -0.136316456433E+04    0.42154E-06   -0.25471E-05  2200   0.104E-02    0.907E-03
DAV:  13    -0.136316456379E+04    0.53871E-06   -0.11557E-05  1776   0.694E-03    0.518E-03
DAV:  14    -0.136316456365E+04    0.14494E-06   -0.44529E-06  1360   0.502E-03
  19 F= -.13631646E+04 E0= -.13631646E+04  d E =-.407455E+00
 BRION: g(F)=  0.125E+00 g(S)=  0.000E+00 retain N=  3 mean eig= 5.03
 eig:   6.789  6.789  1.510
 bond charge predicted
       N       E                     dE             d eps       ncg     rms          rms(c)
DAV:   1    -0.136330805205E+04   -0.14349E+00   -0.26248E+01  1368   0.725E+00    0.834E-01
DAV:   2    -0.136344126345E+04   -0.13321E+00   -0.14013E+00  2296   0.282E+00    0.426E-01
DAV:   3    -0.136344909470E+04   -0.78312E-02   -0.11195E-01  2584   0.553E-01    0.336E-01
DAV:   4    -0.136344730759E+04    0.17871E-02   -0.10827E-02  2584   0.244E-01    0.230E-01
DAV:   5    -0.136344590850E+04    0.13991E-02   -0.51005E-03  2352   0.142E-01    0.943E-02
DAV:   6    -0.136344596851E+04   -0.60009E-04   -0.30199E-03  2392   0.102E-01    0.663E-02
DAV:   7    -0.136344598595E+04   -0.17440E-04   -0.13679E-03  2464   0.697E-02    0.506E-02
DAV:   8    -0.136344598034E+04    0.56064E-05   -0.47778E-04  2536   0.424E-02    0.329E-02
DAV:   9    -0.136344597422E+04    0.61246E-05   -0.12717E-04  2488   0.228E-02    0.220E-02
DAV:  10    -0.136344597417E+04    0.53362E-07   -0.52682E-05  2544   0.136E-02    0.132E-02
DAV:  11    -0.136344597448E+04   -0.31275E-06   -0.19111E-05  2200   0.957E-03    0.771E-03
DAV:  12    -0.136344597405E+04    0.42506E-06   -0.98043E-06  1760   0.742E-03
  20 F= -.13634460E+04 E0= -.13634460E+04  d E =-.281410E+00
 BRION: g(F)=  0.115E+00 g(S)=  0.000E+00 retain N=  3 mean eig= 5.31
 eig:   7.029  7.029  1.865
