 running on  160 total cores
 distrk:  each k-point on  160 cores,    1 groups
 distr:  one band on   20 cores,    8 groups
 using from now: INCAR     
 vasp.5.4.4.18Apr17-6-g9f103f2a35 (build May 01 2020 14:22:42) gamma-only       
  
 POSCAR found type information on POSCAR  O  La Zr Li Al
 POSCAR found :  5 types and     188 ions
 scaLAPACK will be used
 LDA part: xc-table for Pade appr. of Perdew
 POSCAR, INCAR and KPOINTS ok, starting setup
 FFT: planning ...
 WAVECAR not read
 WARNING: random wavefunctions but no delay for mixing, default for NELMDL
 entering main loop
       N       E                     dE             d eps       ncg     rms          rms(c)
DAV:   1     0.252981066056E+05    0.25298E+05   -0.41994E+05  1592   0.253E+03
DAV:   2     0.943914489555E+04   -0.15859E+05   -0.14740E+05  1448   0.707E+02
DAV:   3     0.268848950808E+04   -0.67507E+04   -0.61376E+04  1504   0.355E+02
DAV:   4    -0.352511456637E+03   -0.30410E+04   -0.28435E+04  2064   0.224E+02
DAV:   5    -0.140646552024E+04   -0.10540E+04   -0.10106E+04  2536   0.138E+02    0.116E+02
DAV:   6    -0.130106087648E+04    0.10540E+03   -0.14810E+03  2416   0.663E+01    0.501E+01
DAV:   7    -0.132467054861E+04   -0.23610E+02   -0.40701E+02  2552   0.339E+01    0.257E+01
DAV:   8    -0.133069648611E+04   -0.60259E+01   -0.25008E+02  2536   0.267E+01    0.243E+01
DAV:   9    -0.132609712424E+04    0.45994E+01   -0.45056E+01  2528   0.141E+01    0.820E+00
DAV:  10    -0.132672931009E+04   -0.63219E+00   -0.16185E+01  2616   0.770E+00    0.697E+00
DAV:  11    -0.132710292396E+04   -0.37361E+00   -0.60261E+00  2616   0.423E+00    0.442E+00
DAV:  12    -0.132691702566E+04    0.18590E+00   -0.25422E+00  2552   0.355E+00    0.281E+00
DAV:  13    -0.132697284251E+04   -0.55817E-01   -0.89304E-01  2544   0.172E+00    0.184E+00
DAV:  14    -0.132696401025E+04    0.88323E-02   -0.23331E-01  2616   0.102E+00    0.101E+00
DAV:  15    -0.132697010406E+04   -0.60938E-02   -0.92969E-02  2584   0.573E-01    0.793E-01
DAV:  16    -0.132697021092E+04   -0.10687E-03   -0.29237E-02  2616   0.341E-01    0.469E-01
DAV:  17    -0.132696973150E+04    0.47942E-03   -0.20556E-02  2400   0.265E-01    0.243E-01
DAV:  18    -0.132697004899E+04   -0.31749E-03   -0.42010E-03  2440   0.138E-01    0.909E-02
DAV:  19    -0.132697011450E+04   -0.65509E-04   -0.19148E-03  2544   0.845E-02    0.882E-02
DAV:  20    -0.132697015615E+04   -0.41655E-04   -0.54408E-04  2576   0.417E-02    0.308E-02
DAV:  21    -0.132697016942E+04   -0.13264E-04   -0.20772E-04  2616   0.249E-02    0.341E-02
DAV:  22    -0.132697018578E+04   -0.16360E-04   -0.72391E-05  2496   0.157E-02    0.105E-02
DAV:  23    -0.132697018625E+04   -0.46864E-06   -0.22253E-05  1264   0.835E-03    0.111E-02
DAV:  24    -0.132697019044E+04   -0.41959E-05   -0.10945E-05  1336   0.787E-03    0.397E-03
DAV:  25    -0.132697019031E+04    0.13277E-06   -0.86340E-06  1408   0.590E-03
   1 F= -.13269702E+04 E0= -.13269702E+04  d E =-.132697E+04
 BRION: g(F)=  0.562E+02 g(S)=  0.000E+00
 bond charge predicted
       N       E                     dE             d eps       ncg     rms          rms(c)
DAV:   1    -0.129687898842E+04    0.30091E+02   -0.69554E+03  1624   0.124E+02    0.266E+01
DAV:   2    -0.134982783223E+04   -0.52949E+02   -0.61015E+02  2576   0.553E+01    0.139E+01
DAV:   3    -0.134818122585E+04    0.16466E+01   -0.34874E+01  2608   0.151E+01    0.930E+00
DAV:   4    -0.134635825761E+04    0.18230E+01   -0.12572E+01  2360   0.704E+00    0.449E+00
DAV:   5    -0.134616066506E+04    0.19759E+00   -0.32154E+00  2536   0.394E+00    0.313E+00
DAV:   6    -0.134604501343E+04    0.11565E+00   -0.26974E+00  2528   0.300E+00    0.164E+00
DAV:   7    -0.134605043533E+04   -0.54219E-02   -0.58414E-01  2520   0.174E+00    0.133E+00
DAV:   8    -0.134603876931E+04    0.11666E-01   -0.35144E-01  2624   0.995E-01    0.582E-01
DAV:   9    -0.134604093681E+04   -0.21675E-02   -0.55131E-02  2600   0.525E-01    0.413E-01
DAV:  10    -0.134603933423E+04    0.16026E-02   -0.16920E-02  2592   0.296E-01    0.219E-01
DAV:  11    -0.134604036409E+04   -0.10299E-02   -0.21389E-02  2600   0.243E-01    0.189E-01
DAV:  12    -0.134604010455E+04    0.25954E-03   -0.32710E-03  2528   0.127E-01    0.866E-02
DAV:  13    -0.134604012193E+04   -0.17373E-04   -0.16547E-03  2624   0.712E-02    0.282E-02
DAV:  14    -0.134604014133E+04   -0.19406E-04   -0.19328E-04  2624   0.321E-02    0.146E-02
DAV:  15    -0.134604014688E+04   -0.55472E-05   -0.64121E-05  2576   0.153E-02    0.855E-03
DAV:  16    -0.134604014855E+04   -0.16688E-05   -0.15530E-05  1824   0.929E-03    0.602E-03
DAV:  17    -0.134604014893E+04   -0.38419E-06   -0.82910E-06  1808   0.654E-03
   2 F= -.13460401E+04 E0= -.13460401E+04  d E =-.190700E+02
 BRION: g(F)=  0.415E+02 g(S)=  0.000E+00 retain N=  1 mean eig= 0.55
 eig:   0.553
 bond charge predicted
       N       E                     dE             d eps       ncg     rms          rms(c)
DAV:   1    -0.133402193787E+04    0.12018E+02   -0.23583E+03  1448   0.659E+01    0.151E+01
DAV:   2    -0.135412844896E+04   -0.20107E+02   -0.24511E+02  2584   0.308E+01    0.139E+01
DAV:   3    -0.135342718196E+04    0.70127E+00   -0.16585E+01  2576   0.983E+00    0.109E+01
DAV:   4    -0.135235204232E+04    0.10751E+01   -0.11741E+01  2208   0.494E+00    0.563E+00
DAV:   5    -0.135253175421E+04   -0.17971E+00   -0.39366E+00  2304   0.352E+00    0.561E+00
DAV:   6    -0.135198762901E+04    0.54413E+00   -0.45074E+00  2432   0.349E+00    0.132E+00
DAV:   7    -0.135204082881E+04   -0.53200E-01   -0.10587E+00  2288   0.207E+00    0.115E+00
DAV:   8    -0.135204146260E+04   -0.63379E-03   -0.27970E-01  2592   0.886E-01    0.718E-01
DAV:   9    -0.135203455092E+04    0.69117E-02   -0.78232E-02  2504   0.532E-01    0.290E-01
DAV:  10    -0.135203655204E+04   -0.20011E-02   -0.28811E-02  2544   0.302E-01    0.236E-01
DAV:  11    -0.135203600491E+04    0.54713E-03   -0.42471E-03  2616   0.166E-01    0.141E-01
DAV:  12    -0.135203600935E+04   -0.44400E-05   -0.46033E-03  2320   0.103E-01    0.571E-02
DAV:  13    -0.135203604632E+04   -0.36973E-04   -0.75214E-04  2560   0.622E-02    0.484E-02
DAV:  14    -0.135203602796E+04    0.18358E-04   -0.27017E-04  2552   0.328E-02    0.272E-02
DAV:  15    -0.135203602838E+04   -0.41770E-06   -0.14574E-04  2568   0.219E-02    0.987E-03
DAV:  16    -0.135203603061E+04   -0.22336E-05   -0.25847E-05  2424   0.112E-02    0.625E-03
DAV:  17    -0.135203603099E+04   -0.38059E-06   -0.38823E-06  1216   0.563E-03
   3 F= -.13520360E+04 E0= -.13520360E+04  d E =-.599588E+01
 BRION: g(F)=  0.967E+01 g(S)=  0.000E+00 retain N=  2 mean eig= 1.00
 eig:   0.370  1.627
 bond charge predicted
       N       E                     dE             d eps       ncg     rms          rms(c)
DAV:   1    -0.135278444629E+04   -0.74842E+00   -0.40674E+02  1384   0.265E+01    0.548E+00
DAV:   2    -0.135504316727E+04   -0.22587E+01   -0.25406E+01  2232   0.107E+01    0.268E+00
DAV:   3    -0.135508562215E+04   -0.42455E-01   -0.19977E+00  2560   0.290E+00    0.231E+00
DAV:   4    -0.135501006804E+04    0.75554E-01   -0.47127E-01  2504   0.136E+00    0.125E+00
DAV:   5    -0.135499711665E+04    0.12951E-01   -0.26813E-01  2352   0.966E-01    0.867E-01
DAV:   6    -0.135499008638E+04    0.70303E-02   -0.10625E-01  2504   0.677E-01    0.653E-01
DAV:   7    -0.135498813519E+04    0.19512E-02   -0.81175E-02  2496   0.455E-01    0.348E-01
DAV:   8    -0.135498741570E+04    0.71949E-03   -0.96420E-03  2608   0.211E-01    0.233E-01
DAV:   9    -0.135498708014E+04    0.33555E-03   -0.56660E-03  2464   0.124E-01    0.897E-02
DAV:  10    -0.135498716918E+04   -0.89035E-04   -0.13535E-03  2560   0.730E-02    0.655E-02
DAV:  11    -0.135498711399E+04    0.55188E-04   -0.40844E-04  2560   0.437E-02    0.305E-02
DAV:  12    -0.135498713092E+04   -0.16931E-04   -0.35095E-04  2488   0.298E-02    0.202E-02
DAV:  13    -0.135498712561E+04    0.53106E-05   -0.67106E-05  2520   0.176E-02    0.767E-03
DAV:  14    -0.135498712864E+04   -0.30275E-05   -0.39555E-05  2376   0.105E-02    0.881E-03
DAV:  15    -0.135498712756E+04    0.10773E-05   -0.42599E-06  1320   0.588E-03    0.556E-03
DAV:  16    -0.135498712766E+04   -0.97498E-07   -0.12783E-05  1656   0.619E-03    0.290E-03
DAV:  17    -0.135498712772E+04   -0.59765E-07   -0.11040E-06  1056   0.346E-03
   4 F= -.13549871E+04 E0= -.13549871E+04  d E =-.295110E+01
 BRION: g(F)=  0.329E+01 g(S)=  0.000E+00 retain N=  3 mean eig= 1.36
 eig:   3.418  0.333  0.333
 bond charge predicted
       N       E                     dE             d eps       ncg     rms          rms(c)
DAV:   1    -0.135586527564E+04   -0.87815E+00   -0.17169E+02  1352   0.180E+01    0.283E+00
DAV:   2    -0.135671011829E+04   -0.84484E+00   -0.90649E+00  2280   0.661E+00    0.148E+00
DAV:   3    -0.135672803545E+04   -0.17917E-01   -0.66878E-01  2608   0.145E+00    0.125E+00
DAV:   4    -0.135669635351E+04    0.31682E-01   -0.15125E-01  2544   0.784E-01    0.638E-01
DAV:   5    -0.135668929599E+04    0.70575E-02   -0.59956E-02  2408   0.514E-01    0.383E-01
DAV:   6    -0.135668926729E+04    0.28691E-04   -0.40231E-02  2560   0.382E-01    0.235E-01
DAV:   7    -0.135668917301E+04    0.94281E-04   -0.13447E-02  2304   0.214E-01    0.185E-01
DAV:   8    -0.135668909628E+04    0.76738E-04   -0.39835E-03  2408   0.110E-01    0.974E-02
DAV:   9    -0.135668902152E+04    0.74754E-04   -0.14133E-03  2576   0.663E-02    0.585E-02
DAV:  10    -0.135668906502E+04   -0.43503E-04   -0.73359E-04  2480   0.495E-02    0.630E-02
DAV:  11    -0.135668901399E+04    0.51030E-04   -0.37439E-04  2512   0.368E-02    0.239E-02
DAV:  12    -0.135668902080E+04   -0.68028E-05   -0.16890E-04  2440   0.236E-02    0.169E-02
DAV:  13    -0.135668902018E+04    0.61600E-06   -0.32453E-05  2368   0.118E-02    0.104E-02
DAV:  14    -0.135668901990E+04    0.28228E-06   -0.13812E-05  1792   0.660E-03    0.487E-03
DAV:  15    -0.135668901994E+04   -0.39567E-07   -0.13745E-06  1032   0.409E-03
   5 F= -.13566890E+04 E0= -.13566890E+04  d E =-.170189E+01
 BRION: g(F)=  0.144E+01 g(S)=  0.000E+00 retain N=  4 mean eig= 1.30
 eig:   3.068  0.966  0.582  0.582
 bond charge predicted
       N       E                     dE             d eps       ncg     rms          rms(c)
DAV:   1    -0.135720912797E+04   -0.52011E+00   -0.13681E+02  1384   0.165E+01    0.232E+00
DAV:   2    -0.135787396942E+04   -0.66484E+00   -0.70476E+00  2280   0.607E+00    0.115E+00
DAV:   3    -0.135790103547E+04   -0.27066E-01   -0.51921E-01  2600   0.126E+00    0.955E-01
DAV:   4    -0.135788661374E+04    0.14422E-01   -0.76367E-02  2560   0.604E-01    0.573E-01
DAV:   5    -0.135788095381E+04    0.56599E-02   -0.38128E-02  2400   0.365E-01    0.259E-01
DAV:   6    -0.135788151577E+04   -0.56196E-03   -0.16090E-02  2528   0.248E-01    0.191E-01
DAV:   7    -0.135788135727E+04    0.15850E-03   -0.76656E-03  2488   0.160E-01    0.114E-01
DAV:   8    -0.135788140539E+04   -0.48119E-04   -0.24297E-03  2584   0.927E-02    0.691E-02
DAV:   9    -0.135788137363E+04    0.31755E-04   -0.46703E-04  2568   0.462E-02    0.486E-02
DAV:  10    -0.135788139489E+04   -0.21256E-04   -0.50715E-04  2336   0.360E-02    0.365E-02
DAV:  11    -0.135788137697E+04    0.17920E-04   -0.15727E-04  2520   0.273E-02    0.134E-02
DAV:  12    -0.135788138244E+04   -0.54764E-05   -0.88365E-05  2368   0.166E-02    0.127E-02
DAV:  13    -0.135788138048E+04    0.19601E-05   -0.19738E-05  2088   0.949E-03    0.521E-03
DAV:  14    -0.135788138058E+04   -0.96174E-07   -0.61783E-06  1464   0.577E-03
   6 F= -.13578814E+04 E0= -.13578814E+04  d E =-.119236E+01
 BRION: g(F)=  0.873E+00 g(S)=  0.000E+00 retain N=  5 mean eig= 1.62
 eig:   2.973  2.973  0.789  0.789  0.580
 bond charge predicted
       N       E                     dE             d eps       ncg     rms          rms(c)
DAV:   1    -0.135815359733E+04   -0.27222E+00   -0.18278E+02  1368   0.193E+01    0.239E+00
DAV:   2    -0.135904443052E+04   -0.89083E+00   -0.93355E+00  2288   0.717E+00    0.122E+00
DAV:   3    -0.135909164920E+04   -0.47219E-01   -0.71847E-01  2608   0.145E+00    0.972E-01
DAV:   4    -0.135907669632E+04    0.14953E-01   -0.78012E-02  2592   0.650E-01    0.622E-01
DAV:   5    -0.135906847614E+04    0.82202E-02   -0.40442E-02  2344   0.425E-01    0.234E-01
DAV:   6    -0.135906994781E+04   -0.14717E-02   -0.23441E-02  2560   0.290E-01    0.204E-01
DAV:   7    -0.135906984486E+04    0.10295E-03   -0.71846E-03  2552   0.164E-01    0.140E-01
DAV:   8    -0.135906977761E+04    0.67250E-04   -0.28549E-03  2616   0.101E-01    0.708E-02
DAV:   9    -0.135906975708E+04    0.20530E-04   -0.49163E-04  2560   0.500E-02    0.514E-02
DAV:  10    -0.135906975874E+04   -0.16586E-05   -0.35287E-04  2328   0.357E-02    0.298E-02
DAV:  11    -0.135906975793E+04    0.80519E-06   -0.10988E-04  2504   0.242E-02    0.147E-02
DAV:  12    -0.135906976237E+04   -0.44422E-05   -0.69920E-05  2416   0.150E-02    0.155E-02
DAV:  13    -0.135906975936E+04    0.30155E-05   -0.20779E-05  2032   0.949E-03    0.752E-03
DAV:  14    -0.135906975940E+04   -0.40993E-07   -0.84860E-06  1776   0.627E-03
   7 F= -.13590698E+04 E0= -.13590698E+04  d E =-.118838E+01
 BRION: g(F)=  0.690E+00 g(S)=  0.000E+00 retain N=  6 mean eig= 1.78
 eig:   3.231  3.231  1.444  1.444  0.654  0.654
 bond charge predicted
       N       E                     dE             d eps       ncg     rms          rms(c)
DAV:   1    -0.135937931326E+04   -0.30955E+00   -0.49414E+01  1384   0.987E+00    0.135E+00
DAV:   2    -0.135962881112E+04   -0.24950E+00   -0.26538E+00  2272   0.375E+00    0.666E-01
DAV:   3    -0.135964098056E+04   -0.12169E-01   -0.20854E-01  2608   0.785E-01    0.534E-01
DAV:   4    -0.135963597702E+04    0.50035E-02   -0.26466E-02  2584   0.369E-01    0.322E-01
DAV:   5    -0.135963396400E+04    0.20130E-02   -0.12945E-02  2344   0.223E-01    0.137E-01
DAV:   6    -0.135963430351E+04   -0.33950E-03   -0.60064E-03  2552   0.146E-01    0.108E-01
DAV:   7    -0.135963426714E+04    0.36362E-04   -0.20889E-03  2504   0.877E-02    0.730E-02
DAV:   8    -0.135963425604E+04    0.11108E-04   -0.75444E-04  2608   0.518E-02    0.405E-02
DAV:   9    -0.135963424729E+04    0.87500E-05   -0.13975E-04  2584   0.265E-02    0.279E-02
DAV:  10    -0.135963425226E+04   -0.49714E-05   -0.13526E-04  2248   0.201E-02    0.192E-02
DAV:  11    -0.135963424893E+04    0.33245E-05   -0.41264E-05  2360   0.146E-02    0.819E-03
DAV:  12    -0.135963425059E+04   -0.16552E-05   -0.26164E-05  2128   0.907E-03    0.805E-03
DAV:  13    -0.135963424942E+04    0.11725E-05   -0.31965E-06  1136   0.599E-03    0.438E-03
DAV:  14    -0.135963425053E+04   -0.11172E-05   -0.16940E-05  1648   0.728E-03    0.537E-03
DAV:  15    -0.135963425001E+04    0.52295E-06   -0.11423E-06   976   0.462E-03
   8 F= -.13596343E+04 E0= -.13596343E+04  d E =-.564491E+00
 BRION: g(F)=  0.435E+00 g(S)=  0.000E+00 retain N=  7 mean eig= 2.09
 eig:   3.200  3.200  3.131  3.131  0.669  0.669  0.611
 bond charge predicted
       N       E                     dE             d eps       ncg     rms          rms(c)
DAV:   1    -0.135984692224E+04   -0.21267E+00   -0.11350E+02  1376   0.154E+01    0.183E+00
DAV:   2    -0.136043663219E+04   -0.58971E+00   -0.62795E+00  2288   0.594E+00    0.919E-01
DAV:   3    -0.136047564943E+04   -0.39017E-01   -0.52087E-01  2576   0.122E+00    0.764E-01
DAV:   4    -0.136047019719E+04    0.54522E-02   -0.51779E-02  2584   0.540E-01    0.552E-01
DAV:   5    -0.136046464154E+04    0.55556E-02   -0.26869E-02  2400   0.316E-01    0.241E-01
DAV:   6    -0.136046506514E+04   -0.42359E-03   -0.15417E-02  2400   0.244E-01    0.184E-01
DAV:   7    -0.136046509132E+04   -0.26185E-04   -0.96655E-03  2424   0.180E-01    0.137E-01
DAV:   8    -0.136046504449E+04    0.46835E-04   -0.33675E-03  2552   0.113E-01    0.907E-02
DAV:   9    -0.136046498473E+04    0.59754E-04   -0.78249E-04  2576   0.571E-02    0.551E-02
DAV:  10    -0.136046499193E+04   -0.71979E-05   -0.29101E-04  2624   0.318E-02    0.303E-02
DAV:  11    -0.136046500013E+04   -0.81964E-05   -0.82457E-05  2504   0.201E-02    0.233E-02
DAV:  12    -0.136046499401E+04    0.61224E-05   -0.63214E-05  2376   0.169E-02    0.159E-02
DAV:  13    -0.136046499285E+04    0.11597E-05   -0.40090E-05  2304   0.116E-02    0.820E-03
DAV:  14    -0.136046499289E+04   -0.44180E-07   -0.92685E-06  1760   0.612E-03
   9 F= -.13604650E+04 E0= -.13604650E+04  d E =-.830743E+00
 BRION: g(F)=  0.321E+00 g(S)=  0.000E+00 retain N=  8 mean eig= 2.71
 eig:   5.741  5.741  3.247  3.247  1.011  1.011  1.036  0.618
 bond charge predicted
       N       E                     dE             d eps       ncg     rms          rms(c)
DAV:   1    -0.136058045848E+04   -0.11547E+00   -0.12689E+02  1384   0.161E+01    0.190E+00
DAV:   2    -0.136123647854E+04   -0.65602E+00   -0.69369E+00  2288   0.625E+00    0.943E-01
DAV:   3    -0.136127665349E+04   -0.40175E-01   -0.55828E-01  2592   0.126E+00    0.773E-01
DAV:   4    -0.136126975945E+04    0.68940E-02   -0.54703E-02  2600   0.555E-01    0.551E-01
DAV:   5    -0.136126273557E+04    0.70239E-02   -0.24826E-02  2392   0.323E-01    0.235E-01
DAV:   6    -0.136126301830E+04   -0.28273E-03   -0.17655E-02  2384   0.253E-01    0.154E-01
DAV:   7    -0.136126319718E+04   -0.17887E-03   -0.82473E-03  2432   0.166E-01    0.127E-01
DAV:   8    -0.136126314665E+04    0.50532E-04   -0.24990E-03  2608   0.999E-02    0.771E-02
DAV:   9    -0.136126311016E+04    0.36482E-04   -0.76203E-04  2544   0.544E-02    0.477E-02
DAV:  10    -0.136126312444E+04   -0.14276E-04   -0.27128E-04  2584   0.318E-02    0.316E-02
DAV:  11    -0.136126312714E+04   -0.27037E-05   -0.11688E-04  2488   0.225E-02    0.208E-02
DAV:  12    -0.136126312348E+04    0.36603E-05   -0.68981E-05  2336   0.180E-02    0.161E-02
DAV:  13    -0.136126312207E+04    0.14084E-05   -0.42325E-05  2296   0.119E-02    0.845E-03
DAV:  14    -0.136126312200E+04    0.71203E-07   -0.11787E-05  1760   0.672E-03    0.357E-03
DAV:  15    -0.136126312201E+04   -0.36671E-08   -0.15252E-06   984   0.430E-03
  10 F= -.13612631E+04 E0= -.13612631E+04  d E =-.798129E+00
 BRION: g(F)=  0.261E+00 g(S)=  0.000E+00 retain N=  7 mean eig= 2.88
 eig:   6.027  6.027  2.547  2.547  1.176  1.176  0.665
 bond charge predicted
       N       E                     dE             d eps       ncg     rms          rms(c)
DAV:   1    -0.136142281902E+04   -0.15970E+00   -0.79970E+01  1384   0.128E+01    0.155E+00
DAV:   2    -0.136184016664E+04   -0.41735E+00   -0.44279E+00  2288   0.500E+00    0.770E-01
DAV:   3    -0.136186516917E+04   -0.25003E-01   -0.35296E-01  2592   0.100E+00    0.636E-01
DAV:   4    -0.136186050572E+04    0.46635E-02   -0.35999E-02  2624   0.447E-01    0.448E-01
DAV:   5    -0.136185582941E+04    0.46763E-02   -0.16076E-02  2328   0.264E-01    0.188E-01
DAV:   6    -0.136185612274E+04   -0.29333E-03   -0.11839E-02  2384   0.208E-01    0.132E-01
DAV:   7    -0.136185617586E+04   -0.53129E-04   -0.51894E-03  2376   0.132E-01    0.105E-01
DAV:   8    -0.136185614477E+04    0.31098E-04   -0.17303E-03  2600   0.809E-02    0.614E-02
DAV:   9    -0.136185612331E+04    0.21460E-04   -0.48253E-04  2560   0.441E-02    0.381E-02
DAV:  10    -0.136185613283E+04   -0.95270E-05   -0.16099E-04  2592   0.249E-02    0.257E-02
DAV:  11    -0.136185613358E+04   -0.74218E-06   -0.72222E-05  2504   0.179E-02    0.170E-02
DAV:  12    -0.136185613139E+04    0.21853E-05   -0.42977E-05  2328   0.142E-02    0.132E-02
DAV:  13    -0.136185613041E+04    0.97556E-06   -0.26186E-05  2152   0.936E-03    0.640E-03
DAV:  14    -0.136185613035E+04    0.69529E-07   -0.67921E-06  1616   0.562E-03
  11 F= -.13618561E+04 E0= -.13618561E+04  d E =-.593008E+00
 BRION: g(F)=  0.222E+00 g(S)=  0.000E+00 retain N=  8 mean eig= 3.47
 eig:   7.823  7.823  3.773  3.773  1.469  1.469  0.825  0.825
 bond charge predicted
       N       E                     dE             d eps       ncg     rms          rms(c)
DAV:   1    -0.136194114973E+04   -0.85019E-01   -0.85029E+01  1384   0.132E+01    0.154E+00
DAV:   2    -0.136238740789E+04   -0.44626E+00   -0.47288E+00  2296   0.520E+00    0.781E-01
DAV:   3    -0.136241391892E+04   -0.26511E-01   -0.37744E-01  2592   0.102E+00    0.640E-01
DAV:   4    -0.136240898980E+04    0.49291E-02   -0.36234E-02  2608   0.454E-01    0.465E-01
DAV:   5    -0.136240349565E+04    0.54942E-02   -0.16819E-02  2352   0.266E-01    0.204E-01
DAV:   6    -0.136240341940E+04    0.76250E-04   -0.13023E-02  2320   0.216E-01    0.128E-01
DAV:   7    -0.136240361945E+04   -0.20005E-03   -0.65860E-03  2408   0.146E-01    0.114E-01
DAV:   8    -0.136240356255E+04    0.56898E-04   -0.18162E-03  2600   0.865E-02    0.734E-02
DAV:   9    -0.136240351803E+04    0.44517E-04   -0.65800E-04  2568   0.486E-02    0.405E-02
DAV:  10    -0.136240353146E+04   -0.13426E-04   -0.22341E-04  2568   0.291E-02    0.263E-02
DAV:  11    -0.136240353481E+04   -0.33465E-05   -0.69715E-05  2488   0.181E-02    0.189E-02
DAV:  12    -0.136240353222E+04    0.25884E-05   -0.64474E-05  2304   0.162E-02    0.157E-02
DAV:  13    -0.136240353035E+04    0.18638E-05   -0.31174E-05  2272   0.109E-02    0.935E-03
DAV:  14    -0.136240352996E+04    0.39207E-06   -0.12093E-05  1744   0.647E-03    0.309E-03
DAV:  15    -0.136240352996E+04    0.49331E-08   -0.11682E-06   968   0.397E-03
  12 F= -.13624035E+04 E0= -.13624035E+04  d E =-.547400E+00
 BRION: g(F)=  0.174E+00 g(S)=  0.000E+00 retain N=  4 mean eig= 4.97
 eig:   7.948  7.948  1.988  1.988
 bond charge predicted
       N       E                     dE             d eps       ncg     rms          rms(c)
DAV:   1    -0.136254368809E+04   -0.14016E+00   -0.20474E+01  1392   0.645E+00    0.779E-01
DAV:   2    -0.136264804338E+04   -0.10436E+00   -0.11007E+00  2280   0.247E+00    0.397E-01
DAV:   3    -0.136265399427E+04   -0.59509E-02   -0.87424E-02  2584   0.500E-01    0.328E-01
DAV:   4    -0.136265255057E+04    0.14437E-02   -0.90716E-03  2600   0.220E-01    0.226E-01
DAV:   5    -0.136265119012E+04    0.13604E-02   -0.47559E-03  2320   0.146E-01    0.856E-02
DAV:   6    -0.136265135447E+04   -0.16435E-03   -0.33276E-03  2416   0.108E-01    0.776E-02
DAV:   7    -0.136265133350E+04    0.20971E-04   -0.10906E-03  2424   0.631E-02    0.569E-02
DAV:   8    -0.136265131684E+04    0.16663E-04   -0.46915E-04  2560   0.399E-02    0.276E-02
DAV:   9    -0.136265131133E+04    0.55084E-05   -0.99213E-05  2320   0.208E-02    0.184E-02
DAV:  10    -0.136265131261E+04   -0.12730E-05   -0.37090E-05  2328   0.119E-02    0.112E-02
DAV:  11    -0.136265131189E+04    0.71050E-06   -0.10000E-05  1840   0.785E-03
  13 F= -.13626513E+04 E0= -.13626513E+04  d E =-.247782E+00
 BRION: g(F)=  0.174E+00 g(S)=  0.000E+00 retain N=  4 mean eig= 3.91
 eig:   6.648  6.648  1.449  0.878
 bond charge predicted
       N       E                     dE             d eps       ncg     rms          rms(c)
DAV:   1    -0.136276336162E+04   -0.11205E+00   -0.56685E+01  1376   0.107E+01    0.125E+00
DAV:   2    -0.136305801521E+04   -0.29465E+00   -0.31202E+00  2296   0.417E+00    0.638E-01
DAV:   3    -0.136307539399E+04   -0.17379E-01   -0.24879E-01  2576   0.830E-01    0.520E-01
DAV:   4    -0.136307210761E+04    0.32864E-02   -0.24831E-02  2608   0.367E-01    0.370E-01
DAV:   5    -0.136306871247E+04    0.33951E-02   -0.10727E-02  2392   0.216E-01    0.161E-01
DAV:   6    -0.136306870314E+04    0.93221E-05   -0.79622E-03  2360   0.169E-01    0.992E-02
DAV:   7    -0.136306880671E+04   -0.10357E-03   -0.36935E-03  2424   0.111E-01    0.869E-02
DAV:   8    -0.136306877957E+04    0.27141E-04   -0.11199E-03  2600   0.671E-02    0.556E-02
DAV:   9    -0.136306875757E+04    0.21997E-04   -0.38956E-04  2544   0.376E-02    0.314E-02
DAV:  10    -0.136306876562E+04   -0.80486E-05   -0.12577E-04  2560   0.218E-02    0.216E-02
DAV:  11    -0.136306876615E+04   -0.52250E-06   -0.38848E-05  2464   0.137E-02    0.145E-02
DAV:  12    -0.136306876430E+04    0.18413E-05   -0.38023E-05  2264   0.122E-02    0.107E-02
DAV:  13    -0.136306876369E+04    0.61942E-06   -0.16961E-05  1976   0.831E-03    0.612E-03
DAV:  14    -0.136306876350E+04    0.18791E-06   -0.53072E-06  1440   0.527E-03
  14 F= -.13630688E+04 E0= -.13630688E+04  d E =-.417452E+00
 BRION: g(F)=  0.139E+00 g(S)=  0.000E+00 retain N=  3 mean eig= 3.84
 eig:   5.205  5.205  1.123
 bond charge predicted
       N       E                     dE             d eps       ncg     rms          rms(c)
DAV:   1    -0.136319424333E+04   -0.12548E+00   -0.37132E+01  1376   0.869E+00    0.986E-01
DAV:   2    -0.136338263749E+04   -0.18839E+00   -0.19848E+00  2288   0.331E+00    0.496E-01
DAV:   3    -0.136339402115E+04   -0.11384E-01   -0.15974E-01  2576   0.665E-01    0.402E-01
DAV:   4    -0.136339195192E+04    0.20692E-02   -0.14764E-02  2600   0.285E-01    0.294E-01
DAV:   5    -0.136338946771E+04    0.24842E-02   -0.69306E-03  2336   0.180E-01    0.129E-01
DAV:   6    -0.136338941234E+04    0.55367E-04   -0.59660E-03  2296   0.151E-01    0.882E-02
DAV:   7    -0.136338950239E+04   -0.90049E-04   -0.30411E-03  2408   0.995E-02    0.787E-02
DAV:   8    -0.136338947081E+04    0.31578E-04   -0.79163E-04  2600   0.567E-02    0.463E-02
DAV:   9    -0.136338944846E+04    0.22357E-04   -0.30230E-04  2488   0.332E-02    0.250E-02
DAV:  10    -0.136338945677E+04   -0.83101E-05   -0.12528E-04  2488   0.209E-02    0.191E-02
DAV:  11    -0.136338945494E+04    0.18238E-05   -0.41213E-05  2352   0.140E-02    0.117E-02
DAV:  12    -0.136338945476E+04    0.18826E-06   -0.26764E-05  2168   0.107E-02    0.109E-02
DAV:  13    -0.136338945355E+04    0.12096E-05   -0.13614E-05  1800   0.739E-03    0.592E-03
DAV:  14    -0.136338945327E+04    0.27592E-06   -0.43356E-06  1328   0.511E-03
  15 F= -.13633895E+04 E0= -.13633895E+04  d E =-.320690E+00
 BRION: g(F)=  0.127E+00 g(S)=  0.000E+00 retain N=  3 mean eig= 3.29
 eig:   1.007  4.427  4.427
 bond charge predicted
       N       E                     dE             d eps       ncg     rms          rms(c)
DAV:   1    -0.136351122224E+04   -0.12177E+00   -0.28761E+01  1376   0.762E+00    0.864E-01
DAV:   2    -0.136365650338E+04   -0.14528E+00   -0.15370E+00  2288   0.291E+00    0.441E-01
DAV:   3    -0.136366553804E+04   -0.90347E-02   -0.12579E-01  2576   0.590E-01    0.363E-01
DAV:   4    -0.136366406386E+04    0.14742E-02   -0.11833E-02  2616   0.253E-01    0.263E-01
DAV:   5    -0.136366231879E+04    0.17451E-02   -0.54074E-03  2344   0.150E-01    0.116E-01
DAV:   6    -0.136366228775E+04    0.31038E-04   -0.40533E-03  2272   0.119E-01    0.779E-02
DAV:   7    -0.136366233032E+04   -0.42565E-04   -0.20648E-03  2464   0.825E-02    0.674E-02
DAV:   8    -0.136366230728E+04    0.23039E-04   -0.63910E-04  2576   0.507E-02    0.447E-02
DAV:   9    -0.136366228993E+04    0.17347E-04   -0.23288E-04  2504   0.285E-02    0.237E-02
DAV:  10    -0.136366229426E+04   -0.43314E-05   -0.72575E-05  2552   0.163E-02    0.155E-02
DAV:  11    -0.136366229510E+04   -0.83499E-06   -0.16835E-05  2064   0.972E-03    0.120E-02
DAV:  12    -0.136366229352E+04    0.15778E-05   -0.21520E-05  1824   0.934E-03    0.885E-03
DAV:  13    -0.136366229323E+04    0.29418E-06   -0.10636E-05  1760   0.691E-03    0.588E-03
DAV:  14    -0.136366229279E+04    0.43641E-06   -0.32638E-06  1136   0.470E-03
  16 F= -.13636623E+04 E0= -.13636623E+04  d E =-.272840E+00
 BRION: g(F)=  0.114E+00 g(S)=  0.000E+00 retain N=  3 mean eig= 4.33
 eig:   5.701  5.701  1.600
 bond charge predicted
       N       E                     dE             d eps       ncg     rms          rms(c)
DAV:   1    -0.136377300829E+04   -0.11072E+00   -0.32829E+01  1376   0.806E+00    0.897E-01
DAV:   2    -0.136393545605E+04   -0.16245E+00   -0.17010E+00  2280   0.308E+00    0.452E-01
DAV:   3    -0.136394526644E+04   -0.98104E-02   -0.13527E-01  2568   0.602E-01    0.364E-01
DAV:   4    -0.136394363607E+04    0.16304E-02   -0.11931E-02  2600   0.251E-01    0.267E-01
DAV:   5    -0.136394156523E+04    0.20708E-02   -0.54954E-03  2288   0.159E-01    0.117E-01
DAV:   6    -0.136394154537E+04    0.19857E-04   -0.47728E-03  2264   0.127E-01    0.773E-02
DAV:   7    -0.136394159491E+04   -0.49532E-04   -0.20484E-03  2408   0.827E-02    0.657E-02
DAV:   8    -0.136394157866E+04    0.16251E-04   -0.62119E-04  2568   0.483E-02    0.421E-02
DAV:   9    -0.136394155787E+04    0.20788E-04   -0.22397E-04  2464   0.289E-02    0.230E-02
DAV:  10    -0.136394156333E+04   -0.54600E-05   -0.10338E-04  2440   0.185E-02    0.156E-02
DAV:  11    -0.136394156238E+04    0.95059E-06   -0.24555E-05  2232   0.115E-02    0.926E-03
DAV:  12    -0.136394156234E+04    0.35434E-07   -0.17784E-05  2000   0.856E-03    0.850E-03
DAV:  13    -0.136394156165E+04    0.68790E-06   -0.86980E-06  1744   0.633E-03
  17 F= -.13639416E+04 E0= -.13639416E+04  d E =-.279269E+00
 BRION: g(F)=  0.106E+00 g(S)=  0.000E+00 retain N=  3 mean eig= 5.88
 eig:   7.935  7.935  1.763
 bond charge predicted
       N       E                     dE             d eps       ncg     rms          rms(c)
DAV:   1    -0.136405085456E+04   -0.10929E+00   -0.22404E+01  1368   0.667E+00    0.744E-01
DAV:   2    -0.136416177316E+04   -0.11092E+00   -0.11640E+00  2288   0.257E+00    0.381E-01
DAV:   3    -0.136416833793E+04   -0.65648E-02   -0.92774E-02  2568   0.501E-01    0.306E-01
DAV:   4    -0.136416708135E+04    0.12566E-02   -0.84165E-03  2592   0.211E-01    0.221E-01
DAV:   5    -0.136416564841E+04    0.14329E-02   -0.40566E-03  2320   0.133E-01    0.945E-02
DAV:   6    -0.136416563234E+04    0.16068E-04   -0.31254E-03  2288   0.105E-01    0.649E-02
DAV:   7    -0.136416567097E+04   -0.38628E-04   -0.14657E-03  2440   0.695E-02    0.547E-02
DAV:   8    -0.136416565530E+04    0.15669E-04   -0.42203E-04  2560   0.407E-02    0.335E-02
DAV:   9    -0.136416564481E+04    0.10485E-04   -0.15388E-04  2464   0.238E-02    0.188E-02
DAV:  10    -0.136416564815E+04   -0.33368E-05   -0.66545E-05  2464   0.152E-02    0.134E-02
DAV:  11    -0.136416564713E+04    0.10197E-05   -0.18636E-05  2024   0.101E-02    0.768E-03
DAV:  12    -0.136416564717E+04   -0.36060E-07   -0.13243E-05  1728   0.767E-03    0.700E-03
DAV:  13    -0.136416564655E+04    0.61182E-06   -0.39160E-06  1200   0.565E-03
  18 F= -.13641656E+04 E0= -.13641656E+04  d E =-.224085E+00
 BRION: g(F)=  0.101E+00 g(S)=  0.000E+00 retain N=  3 mean eig= 4.45
 eig:   5.869  5.869  1.604
 bond charge predicted
       N       E                     dE             d eps       ncg     rms          rms(c)
DAV:   1    -0.136425606373E+04   -0.90417E-01   -0.33580E+01  1368   0.812E+00    0.899E-01
DAV:   2    -0.136442176931E+04   -0.16571E+00   -0.17363E+00  2288   0.314E+00    0.460E-01
DAV:   3    -0.136443163763E+04   -0.98683E-02   -0.13735E-01  2568   0.607E-01    0.371E-01
DAV:   4    -0.136442993827E+04    0.16994E-02   -0.11992E-02  2584   0.251E-01    0.271E-01
DAV:   5    -0.136442780700E+04    0.21313E-02   -0.58006E-03  2288   0.157E-01    0.117E-01
DAV:   6    -0.136442780056E+04    0.64450E-05   -0.46602E-03  2272   0.122E-01    0.780E-02
DAV:   7    -0.136442783750E+04   -0.36941E-04   -0.19617E-03  2432   0.804E-02    0.640E-02
DAV:   8    -0.136442782002E+04    0.17476E-04   -0.64381E-04  2552   0.493E-02    0.419E-02
DAV:   9    -0.136442780277E+04    0.17248E-04   -0.21697E-04  2464   0.284E-02    0.237E-02
DAV:  10    -0.136442780617E+04   -0.33972E-05   -0.84116E-05  2496   0.170E-02    0.146E-02
DAV:  11    -0.136442780617E+04    0.10477E-08   -0.19465E-05  2120   0.103E-02    0.945E-03
DAV:  12    -0.136442780573E+04    0.44171E-06   -0.18129E-05  1856   0.818E-03    0.773E-03
DAV:  13    -0.136442780539E+04    0.33747E-06   -0.71434E-06  1656   0.592E-03
  19 F= -.13644278E+04 E0= -.13644278E+04  d E =-.262159E+00
 BRION: g(F)=  0.917E-01 g(S)=  0.000E+00 retain N=  2 mean eig= 3.26
 eig:   3.260  3.260
 bond charge predicted
       N       E                     dE             d eps       ncg     rms          rms(c)
DAV:   1    -0.136452153320E+04   -0.93727E-01   -0.20348E+01  1368   0.634E+00    0.707E-01
DAV:   2    -0.136462163084E+04   -0.10010E+00   -0.10476E+00  2304   0.247E+00    0.361E-01
DAV:   3    -0.136462708572E+04   -0.54549E-02   -0.79293E-02  2584   0.468E-01    0.287E-01
DAV:   4    -0.136462581238E+04    0.12733E-02   -0.70895E-03  2584   0.194E-01    0.203E-01
DAV:   5    -0.136462453733E+04    0.12750E-02   -0.37965E-03  2280   0.129E-01    0.781E-02
DAV:   6    -0.136462461561E+04   -0.78282E-04   -0.27192E-03  2360   0.952E-02    0.623E-02
DAV:   7    -0.136462462371E+04   -0.81025E-05   -0.92624E-04  2424   0.569E-02    0.479E-02
DAV:   8    -0.136462461287E+04    0.10839E-04   -0.34845E-04  2520   0.345E-02    0.256E-02
DAV:   9    -0.136462460722E+04    0.56548E-05   -0.94504E-05  2248   0.199E-02    0.165E-02
DAV:  10    -0.136462460810E+04   -0.88591E-06   -0.40127E-05  2368   0.126E-02    0.107E-02
DAV:  11    -0.136462460725E+04    0.85820E-06   -0.11495E-05  1856   0.795E-03    0.457E-03
DAV:  12    -0.136462460766E+04   -0.41795E-06   -0.68653E-06  1616   0.577E-03
  20 F= -.13646246E+04 E0= -.13646246E+04  d E =-.196802E+00
 BRION: g(F)=  0.873E-01 g(S)=  0.000E+00 retain N=  3 mean eig= 3.96
 eig:   5.277  5.277  1.328
