 running on  160 total cores
 distrk:  each k-point on  160 cores,    1 groups
 distr:  one band on   20 cores,    8 groups
 using from now: INCAR     
 vasp.5.4.4.18Apr17-6-g9f103f2a35 (build May 01 2020 14:22:42) gamma-only       
  
 POSCAR found type information on POSCAR  O  La Zr Li Al
 POSCAR found :  5 types and     188 ions
 scaLAPACK will be used
 LDA part: xc-table for Pade appr. of Perdew
 POSCAR, INCAR and KPOINTS ok, starting setup
 FFT: planning ...
 WAVECAR not read
 WARNING: random wavefunctions but no delay for mixing, default for NELMDL
 entering main loop
       N       E                     dE             d eps       ncg     rms          rms(c)
DAV:   1     0.252429123289E+05    0.25243E+05   -0.42019E+05  1608   0.253E+03
DAV:   2     0.944454627796E+04   -0.15798E+05   -0.14566E+05  1432   0.710E+02
DAV:   3     0.271787302210E+04   -0.67267E+04   -0.61263E+04  1496   0.357E+02
DAV:   4    -0.340875717176E+03   -0.30587E+04   -0.28496E+04  2040   0.221E+02
DAV:   5    -0.141008190903E+04   -0.10692E+04   -0.10261E+04  2528   0.140E+02    0.116E+02
DAV:   6    -0.130272478412E+04    0.10736E+03   -0.14566E+03  2448   0.655E+01    0.504E+01
DAV:   7    -0.132481334972E+04   -0.22089E+02   -0.39451E+02  2560   0.340E+01    0.257E+01
DAV:   8    -0.133383768981E+04   -0.90243E+01   -0.28851E+02  2520   0.285E+01    0.275E+01
DAV:   9    -0.132558511541E+04    0.82526E+01   -0.59083E+01  2480   0.154E+01    0.786E+00
DAV:  10    -0.132658858294E+04   -0.10035E+01   -0.15784E+01  2624   0.828E+00    0.769E+00
DAV:  11    -0.132682793168E+04   -0.23935E+00   -0.68703E+00  2608   0.446E+00    0.409E+00
DAV:  12    -0.132670112099E+04    0.12681E+00   -0.22777E+00  2560   0.357E+00    0.277E+00
DAV:  13    -0.132675885149E+04   -0.57730E-01   -0.85505E-01  2576   0.165E+00    0.196E+00
DAV:  14    -0.132674935641E+04    0.94951E-02   -0.26719E-01  2624   0.106E+00    0.129E+00
DAV:  15    -0.132675704823E+04   -0.76918E-02   -0.83746E-02  2560   0.554E-01    0.997E-01
DAV:  16    -0.132675471658E+04    0.23316E-02   -0.37887E-02  2608   0.363E-01    0.584E-01
DAV:  17    -0.132675370550E+04    0.10111E-02   -0.26258E-02  2496   0.303E-01    0.301E-01
DAV:  18    -0.132675404624E+04   -0.34073E-03   -0.46902E-03  2528   0.154E-01    0.144E-01
DAV:  19    -0.132675404167E+04    0.45619E-05   -0.19355E-03  2584   0.856E-02    0.108E-01
DAV:  20    -0.132675407541E+04   -0.33733E-04   -0.58661E-04  2624   0.451E-02    0.312E-02
DAV:  21    -0.132675409456E+04   -0.19149E-04   -0.16994E-04  2600   0.239E-02    0.375E-02
DAV:  22    -0.132675411333E+04   -0.18772E-04   -0.72634E-05  2432   0.175E-02    0.161E-02
DAV:  23    -0.132675410702E+04    0.63049E-05   -0.44867E-05  2232   0.122E-02    0.108E-02
DAV:  24    -0.132675411169E+04   -0.46668E-05   -0.11848E-05  1392   0.860E-03    0.283E-03
DAV:  25    -0.132675411187E+04   -0.18062E-06   -0.39009E-06  1040   0.540E-03
   1 F= -.13267541E+04 E0= -.13267541E+04  d E =-.132675E+04
 BRION: g(F)=  0.633E+02 g(S)=  0.000E+00
 bond charge predicted
       N       E                     dE             d eps       ncg     rms          rms(c)
DAV:   1    -0.129411532481E+04    0.32639E+02   -0.72040E+03  1744   0.128E+02    0.292E+01
DAV:   2    -0.135270054086E+04   -0.58585E+02   -0.67252E+02  2568   0.601E+01    0.147E+01
DAV:   3    -0.135057591215E+04    0.21246E+01   -0.38814E+01  2608   0.156E+01    0.997E+00
DAV:   4    -0.134842452845E+04    0.21514E+01   -0.14719E+01  2464   0.771E+00    0.482E+00
DAV:   5    -0.134825376060E+04    0.17077E+00   -0.37053E+00  2560   0.420E+00    0.326E+00
DAV:   6    -0.134814164951E+04    0.11211E+00   -0.27232E+00  2520   0.301E+00    0.177E+00
DAV:   7    -0.134812940904E+04    0.12240E-01   -0.56440E-01  2536   0.177E+00    0.135E+00
DAV:   8    -0.134811962767E+04    0.97814E-02   -0.37556E-01  2608   0.102E+00    0.585E-01
DAV:   9    -0.134812188409E+04   -0.22564E-02   -0.56934E-02  2576   0.521E-01    0.385E-01
DAV:  10    -0.134812081824E+04    0.10658E-02   -0.15241E-02  2616   0.283E-01    0.213E-01
DAV:  11    -0.134812161317E+04   -0.79492E-03   -0.15573E-02  2616   0.216E-01    0.153E-01
DAV:  12    -0.134812153480E+04    0.78370E-04   -0.23440E-03  2592   0.109E-01    0.692E-02
DAV:  13    -0.134812155333E+04   -0.18533E-04   -0.93466E-04  2624   0.572E-02    0.280E-02
DAV:  14    -0.134812156712E+04   -0.13791E-04   -0.16708E-04  2624   0.272E-02    0.157E-02
DAV:  15    -0.134812157073E+04   -0.36077E-05   -0.58238E-05  2624   0.155E-02    0.823E-03
DAV:  16    -0.134812157310E+04   -0.23706E-05   -0.19833E-05  2152   0.958E-03    0.563E-03
DAV:  17    -0.134812157309E+04    0.11336E-07   -0.47487E-06  1304   0.626E-03
   2 F= -.13481216E+04 E0= -.13481216E+04  d E =-.213675E+02
 BRION: g(F)=  0.298E+02 g(S)=  0.000E+00 retain N=  1 mean eig= 0.63
 eig:   0.626
 bond charge predicted
       N       E                     dE             d eps       ncg     rms          rms(c)
DAV:   1    -0.133789046480E+04    0.10231E+02   -0.25840E+03  1472   0.721E+01    0.147E+01
DAV:   2    -0.135575510026E+04   -0.17865E+02   -0.21672E+02  2408   0.310E+01    0.123E+01
DAV:   3    -0.135592236263E+04   -0.16726E+00   -0.16754E+01  2576   0.990E+00    0.992E+00
DAV:   4    -0.135504876448E+04    0.87360E+00   -0.58979E+00  2424   0.428E+00    0.554E+00
DAV:   5    -0.135498651451E+04    0.62250E-01   -0.27640E+00  2208   0.311E+00    0.420E+00
DAV:   6    -0.135471993734E+04    0.26658E+00   -0.22770E+00  2480   0.286E+00    0.179E+00
DAV:   7    -0.135474183480E+04   -0.21897E-01   -0.94173E-01  2488   0.166E+00    0.117E+00
DAV:   8    -0.135472761828E+04    0.14217E-01   -0.15446E-01  2592   0.795E-01    0.476E-01
DAV:   9    -0.135473016305E+04   -0.25448E-02   -0.53809E-02  2608   0.404E-01    0.414E-01
DAV:  10    -0.135472868582E+04    0.14772E-02   -0.12212E-02  2568   0.242E-01    0.232E-01
DAV:  11    -0.135472878529E+04   -0.99462E-04   -0.11661E-02  2568   0.168E-01    0.103E-01
DAV:  12    -0.135472870625E+04    0.79038E-04   -0.13521E-03  2616   0.857E-02    0.463E-02
DAV:  13    -0.135472875984E+04   -0.53594E-04   -0.78534E-04  2544   0.478E-02    0.402E-02
DAV:  14    -0.135472874896E+04    0.10878E-04   -0.14835E-04  2608   0.269E-02    0.215E-02
DAV:  15    -0.135472875168E+04   -0.27145E-05   -0.11304E-04  2544   0.185E-02    0.914E-03
DAV:  16    -0.135472875398E+04   -0.23011E-05   -0.24092E-05  2384   0.102E-02    0.950E-03
DAV:  17    -0.135472875230E+04    0.16756E-05   -0.45819E-06  1296   0.622E-03    0.510E-03
DAV:  18    -0.135472875309E+04   -0.78377E-06   -0.16320E-05  1704   0.691E-03    0.472E-03
DAV:  19    -0.135472875264E+04    0.44562E-06   -0.13681E-06  1040   0.462E-03
   3 F= -.13547288E+04 E0= -.13547288E+04  d E =-.660718E+01
 BRION: g(F)=  0.527E+01 g(S)=  0.000E+00 retain N=  2 mean eig= 0.95
 eig:   0.460  1.447
 bond charge predicted
       N       E                     dE             d eps       ncg     rms          rms(c)
DAV:   1    -0.135547400850E+04   -0.74526E+00   -0.32110E+02  1416   0.256E+01    0.486E+00
DAV:   2    -0.135706363902E+04   -0.15896E+01   -0.18142E+01  2272   0.968E+00    0.227E+00
DAV:   3    -0.135711371222E+04   -0.50073E-01   -0.15670E+00  2584   0.238E+00    0.191E+00
DAV:   4    -0.135706254104E+04    0.51171E-01   -0.32672E-01  2536   0.122E+00    0.971E-01
DAV:   5    -0.135705299404E+04    0.95470E-02   -0.13303E-01  2264   0.700E-01    0.601E-01
DAV:   6    -0.135705106091E+04    0.19331E-02   -0.65403E-02  2544   0.499E-01    0.359E-01
DAV:   7    -0.135705121250E+04   -0.15159E-03   -0.34468E-02  2352   0.323E-01    0.240E-01
DAV:   8    -0.135705108299E+04    0.12950E-03   -0.74572E-03  2600   0.165E-01    0.132E-01
DAV:   9    -0.135705102837E+04    0.54625E-04   -0.27459E-03  2624   0.986E-02    0.869E-02
DAV:  10    -0.135705108482E+04   -0.56455E-04   -0.10585E-03  2384   0.643E-02    0.823E-02
DAV:  11    -0.135705101081E+04    0.74008E-04   -0.86623E-04  2312   0.526E-02    0.295E-02
DAV:  12    -0.135705102350E+04   -0.12688E-04   -0.33433E-04  2344   0.345E-02    0.218E-02
DAV:  13    -0.135705102224E+04    0.12628E-05   -0.58850E-05  2512   0.163E-02    0.147E-02
DAV:  14    -0.135705102234E+04   -0.10514E-06   -0.48954E-05  2208   0.114E-02    0.724E-03
DAV:  15    -0.135705102219E+04    0.15215E-06   -0.91524E-06  1808   0.674E-03
   4 F= -.13570510E+04 E0= -.13570510E+04  d E =-.232227E+01
 BRION: g(F)=  0.163E+01 g(S)=  0.000E+00 retain N=  3 mean eig= 0.99
 eig:   2.257  0.541  0.174
 bond charge predicted
       N       E                     dE             d eps       ncg     rms          rms(c)
DAV:   1    -0.135752743836E+04   -0.47642E+00   -0.13259E+02  1368   0.162E+01    0.230E+00
DAV:   2    -0.135815620051E+04   -0.62876E+00   -0.66951E+00  2280   0.586E+00    0.118E+00
DAV:   3    -0.135817514831E+04   -0.18948E-01   -0.48863E-01  2600   0.125E+00    0.962E-01
DAV:   4    -0.135815639015E+04    0.18758E-01   -0.92805E-02  2512   0.638E-01    0.486E-01
DAV:   5    -0.135815275875E+04    0.36314E-02   -0.34208E-02  2448   0.385E-01    0.263E-01
DAV:   6    -0.135815310225E+04   -0.34351E-03   -0.20857E-02  2568   0.268E-01    0.157E-01
DAV:   7    -0.135815309048E+04    0.11772E-04   -0.54977E-03  2256   0.146E-01    0.128E-01
DAV:   8    -0.135815307364E+04    0.16837E-04   -0.19053E-03  2328   0.746E-02    0.682E-02
DAV:   9    -0.135815304481E+04    0.28833E-04   -0.67441E-04  2616   0.487E-02    0.432E-02
DAV:  10    -0.135815306025E+04   -0.15434E-04   -0.38031E-04  2544   0.374E-02    0.441E-02
DAV:  11    -0.135815304021E+04    0.20034E-04   -0.19490E-04  2416   0.263E-02    0.162E-02
DAV:  12    -0.135815304248E+04   -0.22704E-05   -0.71139E-05  2272   0.163E-02    0.102E-02
DAV:  13    -0.135815304299E+04   -0.50348E-06   -0.16299E-05  1888   0.849E-03    0.664E-03
DAV:  14    -0.135815304292E+04    0.68787E-07   -0.82732E-06  1592   0.595E-03
   5 F= -.13581530E+04 E0= -.13581530E+04  d E =-.110202E+01
 BRION: g(F)=  0.901E+00 g(S)=  0.000E+00 retain N=  4 mean eig= 1.63
 eig:   2.605  2.605  0.654  0.654
 bond charge predicted
       N       E                     dE             d eps       ncg     rms          rms(c)
DAV:   1    -0.135837141973E+04   -0.21838E+00   -0.15582E+02  1352   0.178E+01    0.224E+00
DAV:   2    -0.135912575690E+04   -0.75434E+00   -0.79657E+00  2264   0.656E+00    0.119E+00
DAV:   3    -0.135916610992E+04   -0.40353E-01   -0.62737E-01  2592   0.138E+00    0.993E-01
DAV:   4    -0.135915409120E+04    0.12019E-01   -0.73664E-02  2568   0.612E-01    0.638E-01
DAV:   5    -0.135914736242E+04    0.67288E-02   -0.41497E-02  2304   0.388E-01    0.257E-01
DAV:   6    -0.135914849749E+04   -0.11351E-02   -0.18233E-02  2568   0.265E-01    0.235E-01
DAV:   7    -0.135914810876E+04    0.38874E-03   -0.97358E-03  2544   0.183E-01    0.136E-01
DAV:   8    -0.135914807888E+04    0.29881E-04   -0.29813E-03  2576   0.108E-01    0.754E-02
DAV:   9    -0.135914806741E+04    0.11463E-04   -0.51778E-04  2600   0.496E-02    0.543E-02
DAV:  10    -0.135914808372E+04   -0.16301E-04   -0.37879E-04  2312   0.322E-02    0.326E-02
DAV:  11    -0.135914807363E+04    0.10081E-04   -0.11195E-04  2504   0.252E-02    0.139E-02
DAV:  12    -0.135914807906E+04   -0.54266E-05   -0.88614E-05  2392   0.172E-02    0.157E-02
DAV:  13    -0.135914807594E+04    0.31194E-05   -0.21871E-05  2072   0.998E-03    0.730E-03
DAV:  14    -0.135914807598E+04   -0.37413E-07   -0.86078E-06  1720   0.640E-03
   6 F= -.13591481E+04 E0= -.13591481E+04  d E =-.995033E+00
 BRION: g(F)=  0.534E+00 g(S)=  0.000E+00 retain N=  5 mean eig= 1.81
 eig:   3.262  3.262  0.913  0.913  0.705
 bond charge predicted
       N       E                     dE             d eps       ncg     rms          rms(c)
DAV:   1    -0.135931119433E+04   -0.16312E+00   -0.91915E+01  1376   0.136E+01    0.175E+00
DAV:   2    -0.135975866944E+04   -0.44748E+00   -0.46907E+00  2280   0.509E+00    0.858E-01
DAV:   3    -0.135978301673E+04   -0.24347E-01   -0.36651E-01  2616   0.101E+00    0.684E-01
DAV:   4    -0.135977523740E+04    0.77793E-02   -0.40740E-02  2568   0.471E-01    0.411E-01
DAV:   5    -0.135977209771E+04    0.31397E-02   -0.20663E-02  2344   0.296E-01    0.158E-01
DAV:   6    -0.135977286644E+04   -0.76873E-03   -0.10092E-02  2552   0.188E-01    0.146E-01
DAV:   7    -0.135977276376E+04    0.10268E-03   -0.29201E-03  2584   0.109E-01    0.998E-02
DAV:   8    -0.135977270705E+04    0.56708E-04   -0.12986E-03  2600   0.663E-02    0.487E-02
DAV:   9    -0.135977269940E+04    0.76521E-05   -0.19282E-04  2520   0.328E-02    0.338E-02
DAV:  10    -0.135977270468E+04   -0.52723E-05   -0.17612E-04  2296   0.244E-02    0.209E-02
DAV:  11    -0.135977270308E+04    0.15964E-05   -0.44330E-05  2408   0.158E-02    0.110E-02
DAV:  12    -0.135977270487E+04   -0.17877E-05   -0.34803E-05  2248   0.985E-03    0.985E-03
DAV:  13    -0.135977270342E+04    0.14441E-05   -0.50520E-06  1352   0.646E-03    0.563E-03
DAV:  14    -0.135977270407E+04   -0.64408E-06   -0.14769E-05  1616   0.709E-03    0.370E-03
DAV:  15    -0.135977270382E+04    0.24206E-06   -0.12180E-06   992   0.486E-03
   7 F= -.13597727E+04 E0= -.13597727E+04  d E =-.624628E+00
 BRION: g(F)=  0.340E+00 g(S)=  0.000E+00 retain N=  6 mean eig= 2.38
 eig:   4.937  4.937  1.464  1.464  0.746  0.746
 bond charge predicted
       N       E                     dE             d eps       ncg     rms          rms(c)
DAV:   1    -0.135986085096E+04   -0.88147E-01   -0.83040E+01  1384   0.130E+01    0.154E+00
DAV:   2    -0.136027644534E+04   -0.41559E+00   -0.43575E+00  2280   0.489E+00    0.793E-01
DAV:   3    -0.136030042836E+04   -0.23983E-01   -0.34089E-01  2600   0.977E-01    0.646E-01
DAV:   4    -0.136029498579E+04    0.54426E-02   -0.34019E-02  2592   0.440E-01    0.435E-01
DAV:   5    -0.136029086518E+04    0.41206E-02   -0.17538E-02  2368   0.271E-01    0.165E-01
DAV:   6    -0.136029148988E+04   -0.62470E-03   -0.10502E-02  2496   0.191E-01    0.144E-01
DAV:   7    -0.136029141362E+04    0.76253E-04   -0.37125E-03  2504   0.119E-01    0.100E-01
DAV:   8    -0.136029138139E+04    0.32233E-04   -0.16643E-03  2584   0.751E-02    0.530E-02
DAV:   9    -0.136029136306E+04    0.18334E-04   -0.28450E-04  2408   0.371E-02    0.386E-02
DAV:  10    -0.136029136391E+04   -0.85351E-06   -0.17884E-04  2408   0.244E-02    0.196E-02
DAV:  11    -0.136029136438E+04   -0.47100E-06   -0.45763E-05  2432   0.159E-02    0.103E-02
DAV:  12    -0.136029136627E+04   -0.18881E-05   -0.27328E-05  2304   0.101E-02    0.108E-02
DAV:  13    -0.136029136479E+04    0.14787E-05   -0.11262E-05  1736   0.695E-03    0.474E-03
DAV:  14    -0.136029136467E+04    0.12518E-06   -0.28977E-06  1120   0.514E-03
   8 F= -.13602914E+04 E0= -.13602914E+04  d E =-.518661E+00
 BRION: g(F)=  0.264E+00 g(S)=  0.000E+00 retain N=  7 mean eig= 2.73
 eig:   6.024  6.024  2.306  2.306  0.848  0.848  0.780
 bond charge predicted
       N       E                     dE             d eps       ncg     rms          rms(c)
DAV:   1    -0.136033671526E+04   -0.45350E-01   -0.76842E+01  1392   0.125E+01    0.147E+00
DAV:   2    -0.136072180202E+04   -0.38509E+00   -0.40523E+00  2288   0.478E+00    0.758E-01
DAV:   3    -0.136074392437E+04   -0.22122E-01   -0.31414E-01  2600   0.922E-01    0.618E-01
DAV:   4    -0.136073920140E+04    0.47230E-02   -0.30961E-02  2608   0.416E-01    0.423E-01
DAV:   5    -0.136073553052E+04    0.36709E-02   -0.15712E-02  2336   0.251E-01    0.161E-01
DAV:   6    -0.136073604240E+04   -0.51188E-03   -0.87649E-03  2472   0.176E-01    0.131E-01
DAV:   7    -0.136073598311E+04    0.59288E-04   -0.33919E-03  2504   0.112E-01    0.881E-02
DAV:   8    -0.136073596883E+04    0.14282E-04   -0.14226E-03  2592   0.714E-02    0.516E-02
DAV:   9    -0.136073595445E+04    0.14381E-04   -0.26759E-04  2472   0.351E-02    0.372E-02
DAV:  10    -0.136073595482E+04   -0.37476E-06   -0.13746E-04  2512   0.217E-02    0.185E-02
DAV:  11    -0.136073595676E+04   -0.19396E-05   -0.40720E-05  2448   0.141E-02    0.992E-03
DAV:  12    -0.136073595692E+04   -0.15872E-06   -0.18213E-05  2224   0.955E-03    0.818E-03
DAV:  13    -0.136073595657E+04    0.34523E-06   -0.11377E-05  1776   0.643E-03    0.440E-03
DAV:  14    -0.136073595642E+04    0.15086E-06   -0.14635E-06   984   0.438E-03
   9 F= -.13607360E+04 E0= -.13607360E+04  d E =-.444592E+00
 BRION: g(F)=  0.158E+00 g(S)=  0.000E+00 retain N=  6 mean eig= 3.40
 eig:   7.496  7.496  1.794  1.794  0.896  0.896
 bond charge predicted
       N       E                     dE             d eps       ncg     rms          rms(c)
DAV:   1    -0.136073653888E+04   -0.58231E-03   -0.69356E+01  1392   0.118E+01    0.142E+00
DAV:   2    -0.136108713606E+04   -0.35060E+00   -0.36998E+00  2288   0.454E+00    0.714E-01
DAV:   3    -0.136110762416E+04   -0.20488E-01   -0.29077E-01  2584   0.890E-01    0.588E-01
DAV:   4    -0.136110329917E+04    0.43250E-02   -0.28003E-02  2600   0.395E-01    0.407E-01
DAV:   5    -0.136109952945E+04    0.37697E-02   -0.15503E-02  2312   0.251E-01    0.155E-01
DAV:   6    -0.136110006648E+04   -0.53703E-03   -0.93782E-03  2448   0.181E-01    0.139E-01
DAV:   7    -0.136109996004E+04    0.10645E-03   -0.35085E-03  2488   0.114E-01    0.941E-02
DAV:   8    -0.136109993221E+04    0.27830E-04   -0.16304E-03  2592   0.740E-02    0.503E-02
DAV:   9    -0.136109991781E+04    0.14400E-04   -0.26470E-04  2376   0.355E-02    0.374E-02
DAV:  10    -0.136109991520E+04    0.26056E-05   -0.13546E-04  2440   0.214E-02    0.179E-02
DAV:  11    -0.136109991710E+04   -0.18936E-05   -0.39251E-05  2432   0.138E-02    0.910E-03
DAV:  12    -0.136109991775E+04   -0.65094E-06   -0.16377E-05  2072   0.890E-03    0.809E-03
DAV:  13    -0.136109991729E+04    0.45907E-06   -0.94876E-06  1616   0.627E-03
  10 F= -.13610999E+04 E0= -.13610999E+04  d E =-.363961E+00
 BRION: g(F)=  0.113E+00 g(S)=  0.000E+00 retain N=  6 mean eig= 3.76
 eig:   7.823  7.823  2.339  2.339  1.118  1.118
 bond charge predicted
       N       E                     dE             d eps       ncg     rms          rms(c)
DAV:   1    -0.136115809065E+04   -0.58173E-01   -0.28614E+01  1392   0.760E+00    0.884E-01
DAV:   2    -0.136130382356E+04   -0.14573E+00   -0.15436E+00  2296   0.293E+00    0.456E-01
DAV:   3    -0.136131202514E+04   -0.82016E-02   -0.12079E-01  2600   0.574E-01    0.380E-01
DAV:   4    -0.136131014816E+04    0.18770E-02   -0.11549E-02  2592   0.255E-01    0.269E-01
DAV:   5    -0.136130823928E+04    0.19089E-02   -0.61872E-03  2296   0.161E-01    0.110E-01
DAV:   6    -0.136130835908E+04   -0.11980E-03   -0.46394E-03  2344   0.127E-01    0.884E-02
DAV:   7    -0.136130835378E+04    0.53006E-05   -0.18994E-03  2432   0.818E-02    0.676E-02
DAV:   8    -0.136130833657E+04    0.17205E-04   -0.76987E-04  2520   0.510E-02    0.369E-02
DAV:   9    -0.136130832403E+04    0.12539E-04   -0.18244E-04  2368   0.273E-02    0.251E-02
DAV:  10    -0.136130832523E+04   -0.11916E-05   -0.76368E-05  2456   0.161E-02    0.160E-02
DAV:  11    -0.136130832453E+04    0.69452E-06   -0.26710E-05  2288   0.112E-02    0.921E-03
DAV:  12    -0.136130832479E+04   -0.26074E-06   -0.14946E-05  2024   0.843E-03    0.839E-03
DAV:  13    -0.136130832404E+04    0.74836E-06   -0.90289E-06  1680   0.614E-03
  11 F= -.13613083E+04 E0= -.13613083E+04  d E =-.208407E+00
 BRION: g(F)=  0.944E-01 g(S)=  0.000E+00 retain N=  5 mean eig= 3.92
 eig:   7.383  7.383  1.857  1.857  1.139
 bond charge predicted
       N       E                     dE             d eps       ncg     rms          rms(c)
DAV:   1    -0.136137135755E+04   -0.63033E-01   -0.14998E+01  1392   0.552E+00    0.655E-01
DAV:   2    -0.136144776134E+04   -0.76404E-01   -0.81141E-01  2280   0.212E+00    0.333E-01
DAV:   3    -0.136145225860E+04   -0.44973E-02   -0.65031E-02  2592   0.425E-01    0.276E-01
DAV:   4    -0.136145124184E+04    0.10168E-02   -0.60062E-03  2592   0.187E-01    0.193E-01
DAV:   5    -0.136145031166E+04    0.93018E-03   -0.38762E-03  2264   0.123E-01    0.715E-02
DAV:   6    -0.136145044418E+04   -0.13252E-03   -0.21695E-03  2456   0.854E-02    0.694E-02
DAV:   7    -0.136145042233E+04    0.21854E-04   -0.78014E-04  2536   0.530E-02    0.450E-02
DAV:   8    -0.136145040818E+04    0.14150E-04   -0.31067E-04  2512   0.338E-02    0.225E-02
DAV:   9    -0.136145040650E+04    0.16783E-05   -0.50562E-05  2352   0.160E-02    0.162E-02
DAV:  10    -0.136145040715E+04   -0.64740E-06   -0.29459E-05  2344   0.102E-02    0.728E-03
DAV:  11    -0.136145040696E+04    0.18594E-06   -0.29866E-06  1096   0.641E-03
  12 F= -.13614504E+04 E0= -.13614504E+04  d E =-.142083E+00
 BRION: g(F)=  0.850E-01 g(S)=  0.000E+00 retain N=  4 mean eig= 3.48
 eig:   5.677  5.677  1.276  1.276
 bond charge predicted
       N       E                     dE             d eps       ncg     rms          rms(c)
DAV:   1    -0.136149349400E+04   -0.43087E-01   -0.24492E+01  1384   0.703E+00    0.831E-01
DAV:   2    -0.136161725841E+04   -0.12376E+00   -0.13114E+00  2280   0.268E+00    0.425E-01
DAV:   3    -0.136162424488E+04   -0.69865E-02   -0.10330E-01  2592   0.536E-01    0.351E-01
DAV:   4    -0.136162255686E+04    0.16880E-02   -0.98804E-03  2592   0.234E-01    0.244E-01
DAV:   5    -0.136162099806E+04    0.15588E-02   -0.58217E-03  2280   0.154E-01    0.931E-02
DAV:   6    -0.136162117045E+04   -0.17239E-03   -0.36121E-03  2432   0.112E-01    0.824E-02
DAV:   7    -0.136162114744E+04    0.23014E-04   -0.12620E-03  2464   0.667E-02    0.571E-02
DAV:   8    -0.136162113174E+04    0.15702E-04   -0.57428E-04  2520   0.444E-02    0.301E-02
DAV:   9    -0.136162112703E+04    0.47034E-05   -0.10504E-04  2352   0.221E-02    0.219E-02
DAV:  10    -0.136162112649E+04    0.54587E-06   -0.51016E-05  2384   0.134E-02    0.112E-02
DAV:  11    -0.136162112660E+04   -0.11438E-06   -0.12530E-05  1904   0.863E-03    0.588E-03
DAV:  12    -0.136162112728E+04   -0.67445E-06   -0.11063E-05  1720   0.629E-03    0.604E-03
DAV:  13    -0.136162112673E+04    0.54840E-06   -0.16205E-06  1016   0.472E-03
  13 F= -.13616211E+04 E0= -.13616211E+04  d E =-.170720E+00
 BRION: g(F)=  0.705E-01 g(S)=  0.000E+00 retain N=  3 mean eig= 3.34
 eig:   4.420  4.420  1.168
 bond charge predicted
       N       E                     dE             d eps       ncg     rms          rms(c)
DAV:   1    -0.136161612353E+04    0.50037E-02   -0.37035E+01  1384   0.861E+00    0.989E-01
DAV:   2    -0.136180434947E+04   -0.18823E+00   -0.19914E+00  2280   0.329E+00    0.505E-01
DAV:   3    -0.136181539448E+04   -0.11045E-01   -0.15897E-01  2592   0.658E-01    0.415E-01
DAV:   4    -0.136181315290E+04    0.22416E-02   -0.14117E-02  2584   0.283E-01    0.299E-01
DAV:   5    -0.136181067461E+04    0.24783E-02   -0.78756E-03  2288   0.180E-01    0.122E-01
DAV:   6    -0.136181080760E+04   -0.13299E-03   -0.57899E-03  2320   0.139E-01    0.955E-02
DAV:   7    -0.136181080956E+04   -0.19653E-05   -0.22215E-03  2472   0.880E-02    0.717E-02
DAV:   8    -0.136181078995E+04    0.19617E-04   -0.89253E-04  2520   0.563E-02    0.399E-02
DAV:   9    -0.136181077566E+04    0.14287E-04   -0.20806E-04  2344   0.293E-02    0.268E-02
DAV:  10    -0.136181077705E+04   -0.13859E-05   -0.83383E-05  2432   0.169E-02    0.157E-02
DAV:  11    -0.136181077679E+04    0.25281E-06   -0.26537E-05  2312   0.111E-02    0.870E-03
DAV:  12    -0.136181077718E+04   -0.38807E-06   -0.14893E-05  2048   0.815E-03    0.807E-03
DAV:  13    -0.136181077652E+04    0.66332E-06   -0.77855E-06  1648   0.577E-03
  14 F= -.13618108E+04 E0= -.13618108E+04  d E =-.189650E+00
 BRION: g(F)=  0.601E-01 g(S)=  0.000E+00 retain N=  3 mean eig= 3.55
 eig:   4.720  4.720  1.207
 bond charge predicted
       N       E                     dE             d eps       ncg     rms          rms(c)
DAV:   1    -0.136183993311E+04   -0.29156E-01   -0.16909E+01  1376   0.587E+00    0.681E-01
DAV:   2    -0.136192590271E+04   -0.85970E-01   -0.90992E-01  2288   0.225E+00    0.347E-01
DAV:   3    -0.136193082463E+04   -0.49219E-02   -0.71872E-02  2600   0.444E-01    0.281E-01
DAV:   4    -0.136192967502E+04    0.11496E-02   -0.64292E-03  2592   0.193E-01    0.199E-01
DAV:   5    -0.136192856107E+04    0.11139E-02   -0.38331E-03  2288   0.129E-01    0.745E-02
DAV:   6    -0.136192868673E+04   -0.12565E-03   -0.26143E-03  2408   0.936E-02    0.662E-02
DAV:   7    -0.136192868062E+04    0.61056E-05   -0.81145E-04  2456   0.539E-02    0.478E-02
DAV:   8    -0.136192866764E+04    0.12984E-04   -0.33777E-04  2552   0.344E-02    0.240E-02
DAV:   9    -0.136192866215E+04    0.54845E-05   -0.72250E-05  2216   0.179E-02    0.163E-02
DAV:  10    -0.136192866246E+04   -0.30383E-06   -0.27084E-05  2312   0.107E-02    0.894E-03
DAV:  11    -0.136192866212E+04    0.34066E-06   -0.69310E-06  1552   0.666E-03
  15 F= -.13619287E+04 E0= -.13619287E+04  d E =-.117886E+00
 BRION: g(F)=  0.542E-01 g(S)=  0.000E+00 retain N=  3 mean eig= 3.29
 eig:   4.269  4.269  1.322
 bond charge predicted
       N       E                     dE             d eps       ncg     rms          rms(c)
DAV:   1    -0.136196103433E+04   -0.32372E-01   -0.12110E+01  1376   0.497E+00    0.576E-01
DAV:   2    -0.136202305967E+04   -0.62025E-01   -0.65715E-01  2280   0.192E+00    0.292E-01
DAV:   3    -0.136202684680E+04   -0.37871E-02   -0.53357E-02  2592   0.382E-01    0.238E-01
DAV:   4    -0.136202611302E+04    0.73378E-03   -0.45727E-03  2592   0.164E-01    0.172E-01
DAV:   5    -0.136202533467E+04    0.77835E-03   -0.29036E-03  2288   0.108E-01    0.647E-02
DAV:   6    -0.136202542666E+04   -0.91989E-04   -0.18231E-03  2416   0.785E-02    0.582E-02
DAV:   7    -0.136202541422E+04    0.12442E-04   -0.64052E-04  2480   0.474E-02    0.385E-02
DAV:   8    -0.136202540808E+04    0.61386E-05   -0.25313E-04  2536   0.305E-02    0.204E-02
DAV:   9    -0.136202540540E+04    0.26791E-05   -0.45062E-05  2264   0.148E-02    0.147E-02
DAV:  10    -0.136202540542E+04   -0.17899E-07   -0.21253E-05  2152   0.904E-03    0.652E-03
DAV:  11    -0.136202540546E+04   -0.38606E-07   -0.29302E-06  1120   0.579E-03
  16 F= -.13620254E+04 E0= -.13620254E+04  d E =-.967433E-01
 BRION: g(F)=  0.492E-01 g(S)=  0.000E+00 retain N=  4 mean eig= 4.27
 eig:   7.121  7.121  1.416  1.416
 bond charge predicted
       N       E                     dE             d eps       ncg     rms          rms(c)
DAV:   1    -0.136205718080E+04   -0.31775E-01   -0.10876E+01  1376   0.471E+00    0.535E-01
DAV:   2    -0.136211298546E+04   -0.55805E-01   -0.58906E-01  2280   0.182E+00    0.274E-01
DAV:   3    -0.136211638683E+04   -0.34014E-02   -0.47290E-02  2600   0.359E-01    0.224E-01
DAV:   4    -0.136211579384E+04    0.59300E-03   -0.39827E-03  2608   0.152E-01    0.166E-01
DAV:   5    -0.136211502995E+04    0.76389E-03   -0.22816E-03  2288   0.101E-01    0.674E-02
DAV:   6    -0.136211507780E+04   -0.47851E-04   -0.18638E-03  2320   0.802E-02    0.510E-02
DAV:   7    -0.136211508202E+04   -0.42210E-05   -0.66334E-04  2464   0.474E-02    0.387E-02
DAV:   8    -0.136211507617E+04    0.58530E-05   -0.21807E-04  2520   0.289E-02    0.210E-02
DAV:   9    -0.136211507068E+04    0.54915E-05   -0.65614E-05  2224   0.160E-02    0.128E-02
DAV:  10    -0.136211507182E+04   -0.11474E-05   -0.20511E-05  2208   0.910E-03    0.834E-03
DAV:  11    -0.136211507110E+04    0.72269E-06   -0.44827E-06  1264   0.601E-03
  17 F= -.13621151E+04 E0= -.13621151E+04  d E =-.896656E-01
 BRION: g(F)=  0.459E-01 g(S)=  0.000E+00 retain N=  4 mean eig= 4.72
 eig:   7.975  7.975  1.471  1.471
 bond charge predicted
       N       E                     dE             d eps       ncg     rms          rms(c)
DAV:   1    -0.136214573023E+04   -0.30658E-01   -0.10353E+01  1376   0.461E+00    0.525E-01
DAV:   2    -0.136219911393E+04   -0.53384E-01   -0.56387E-01  2304   0.179E+00    0.267E-01
DAV:   3    -0.136220242929E+04   -0.33154E-02   -0.45230E-02  2600   0.346E-01    0.216E-01
DAV:   4    -0.136220186952E+04    0.55977E-03   -0.37169E-03  2600   0.149E-01    0.160E-01
DAV:   5    -0.136220119405E+04    0.67547E-03   -0.23726E-03  2280   0.991E-02    0.603E-02
DAV:   6    -0.136220127493E+04   -0.80886E-04   -0.16189E-03  2424   0.737E-02    0.526E-02
DAV:   7    -0.136220126801E+04    0.69264E-05   -0.53355E-04  2496   0.429E-02    0.356E-02
DAV:   8    -0.136220126179E+04    0.62158E-05   -0.19323E-04  2544   0.272E-02    0.185E-02
DAV:   9    -0.136220125889E+04    0.28986E-05   -0.39849E-05  2200   0.134E-02    0.126E-02
DAV:  10    -0.136220125925E+04   -0.36096E-06   -0.13709E-05  2056   0.771E-03    0.585E-03
DAV:  11    -0.136220125918E+04    0.72643E-07   -0.16018E-06   992   0.492E-03
  18 F= -.13622013E+04 E0= -.13622013E+04  d E =-.861881E-01
 BRION: g(F)=  0.439E-01 g(S)=  0.000E+00 retain N=  4 mean eig= 3.74
 eig:   6.306  6.306  1.175  1.175
 bond charge predicted
       N       E                     dE             d eps       ncg     rms          rms(c)
DAV:   1    -0.136223556128E+04   -0.34302E-01   -0.57044E+00  1376   0.342E+00    0.395E-01
DAV:   2    -0.136226495764E+04   -0.29396E-01   -0.31062E-01  2288   0.133E+00    0.201E-01
DAV:   3    -0.136226676374E+04   -0.18061E-02   -0.24977E-02  2600   0.260E-01    0.163E-01
DAV:   4    -0.136226643611E+04    0.32763E-03   -0.21289E-03  2600   0.113E-01    0.120E-01
DAV:   5    -0.136226604894E+04    0.38717E-03   -0.13001E-03  2272   0.760E-02    0.459E-02
DAV:   6    -0.136226609203E+04   -0.43086E-04   -0.97527E-04  2392   0.589E-02    0.394E-02
DAV:   7    -0.136226609052E+04    0.15122E-05   -0.33260E-04  2448   0.334E-02    0.284E-02
DAV:   8    -0.136226608641E+04    0.41031E-05   -0.11285E-04  2552   0.210E-02    0.146E-02
DAV:   9    -0.136226608402E+04    0.23957E-05   -0.28042E-05  2144   0.109E-02    0.930E-03
DAV:  10    -0.136226608423E+04   -0.20819E-06   -0.69143E-06  1592   0.635E-03
  19 F= -.13622661E+04 E0= -.13622661E+04  d E =-.648250E-01
 BRION: g(F)=  0.416E-01 g(S)=  0.000E+00 retain N=  4 mean eig= 3.41
 eig:   5.742  5.742  1.082  1.082
 bond charge predicted
       N       E                     dE             d eps       ncg     rms          rms(c)
DAV:   1    -0.136230170201E+04   -0.35618E-01   -0.44254E+00  1384   0.302E+00    0.338E-01
DAV:   2    -0.136232483135E+04   -0.23129E-01   -0.24415E-01  2296   0.119E+00    0.172E-01
DAV:   3    -0.136232635418E+04   -0.15228E-02   -0.19924E-02  2592   0.231E-01    0.141E-01
DAV:   4    -0.136232616494E+04    0.18924E-03   -0.16092E-03  2608   0.982E-02    0.108E-01
DAV:   5    -0.136232587063E+04    0.29431E-03   -0.94545E-04  2312   0.629E-02    0.445E-02
DAV:   6    -0.136232589181E+04   -0.21183E-04   -0.74272E-04  2312   0.501E-02    0.341E-02
DAV:   7    -0.136232589113E+04    0.67741E-06   -0.30818E-04  2448   0.316E-02    0.243E-02
DAV:   8    -0.136232588908E+04    0.20542E-05   -0.92830E-05  2520   0.199E-02    0.140E-02
DAV:   9    -0.136232588715E+04    0.19227E-05   -0.25193E-05  2176   0.101E-02    0.857E-03
DAV:  10    -0.136232588748E+04   -0.32345E-06   -0.61635E-06  1432   0.593E-03
  20 F= -.13623259E+04 E0= -.13623259E+04  d E =-.598033E-01
 BRION: g(F)=  0.406E-01 g(S)=  0.000E+00 retain N=  4 mean eig= 3.03
 eig:   4.936  4.936  1.125  1.125
