 running on  160 total cores
 distrk:  each k-point on  160 cores,    1 groups
 distr:  one band on   20 cores,    8 groups
 using from now: INCAR     
 vasp.5.4.4.18Apr17-6-g9f103f2a35 (build May 01 2020 14:22:42) gamma-only       
  
 POSCAR found type information on POSCAR  O  La Zr Li Al
 POSCAR found :  5 types and     188 ions
 scaLAPACK will be used
 LDA part: xc-table for Pade appr. of Perdew
 POSCAR, INCAR and KPOINTS ok, starting setup
 FFT: planning ...
 WAVECAR not read
 WARNING: random wavefunctions but no delay for mixing, default for NELMDL
 entering main loop
       N       E                     dE             d eps       ncg     rms          rms(c)
DAV:   1     0.253254527471E+05    0.25325E+05   -0.42010E+05  1608   0.253E+03
DAV:   2     0.947451436543E+04   -0.15851E+05   -0.14651E+05  1416   0.708E+02
DAV:   3     0.267654368050E+04   -0.67980E+04   -0.62069E+04  1512   0.357E+02
DAV:   4    -0.359298601313E+03   -0.30358E+04   -0.28449E+04  2040   0.225E+02
DAV:   5    -0.141030408693E+04   -0.10510E+04   -0.10111E+04  2528   0.140E+02    0.117E+02
DAV:   6    -0.129739654185E+04    0.11291E+03   -0.14426E+03  2440   0.662E+01    0.501E+01
DAV:   7    -0.131997539352E+04   -0.22579E+02   -0.39645E+02  2544   0.340E+01    0.254E+01
DAV:   8    -0.132739591450E+04   -0.74205E+01   -0.25630E+02  2560   0.269E+01    0.252E+01
DAV:   9    -0.132147089740E+04    0.59250E+01   -0.50380E+01  2520   0.146E+01    0.788E+00
DAV:  10    -0.132231214733E+04   -0.84125E+00   -0.15969E+01  2624   0.791E+00    0.712E+00
DAV:  11    -0.132265789482E+04   -0.34575E+00   -0.60319E+00  2624   0.433E+00    0.427E+00
DAV:  12    -0.132247697746E+04    0.18092E+00   -0.25242E+00  2544   0.348E+00    0.278E+00
DAV:  13    -0.132253409321E+04   -0.57116E-01   -0.88403E-01  2536   0.176E+00    0.192E+00
DAV:  14    -0.132252176292E+04    0.12330E-01   -0.23207E-01  2624   0.102E+00    0.106E+00
DAV:  15    -0.132252686046E+04   -0.50975E-02   -0.89190E-02  2552   0.568E-01    0.800E-01
DAV:  16    -0.132252641783E+04    0.44264E-03   -0.26905E-02  2624   0.326E-01    0.422E-01
DAV:  17    -0.132252579463E+04    0.62319E-03   -0.20752E-02  2456   0.266E-01    0.249E-01
DAV:  18    -0.132252607742E+04   -0.28279E-03   -0.39720E-03  2504   0.134E-01    0.928E-02
DAV:  19    -0.132252609049E+04   -0.13069E-04   -0.14890E-03  2624   0.769E-02    0.832E-02
DAV:  20    -0.132252612130E+04   -0.30814E-04   -0.47155E-04  2592   0.420E-02    0.192E-02
DAV:  21    -0.132252613181E+04   -0.10509E-04   -0.15273E-04  2624   0.219E-02    0.305E-02
DAV:  22    -0.132252615103E+04   -0.19218E-04   -0.67917E-05  2440   0.169E-02    0.114E-02
DAV:  23    -0.132252614724E+04    0.37938E-05   -0.24205E-05  1992   0.919E-03    0.730E-03
DAV:  24    -0.132252615106E+04   -0.38267E-05   -0.77226E-06  1160   0.708E-03    0.229E-03
DAV:  25    -0.132252615081E+04    0.24927E-06   -0.48937E-06  1080   0.529E-03
   1 F= -.13225262E+04 E0= -.13225252E+04  d E =-.132253E+04
 BRION: g(F)=  0.752E+02 g(S)=  0.000E+00
 bond charge predicted
       N       E                     dE             d eps       ncg     rms          rms(c)
DAV:   1    -0.128079449017E+04    0.41732E+02   -0.81050E+03  1744   0.136E+02    0.314E+01
DAV:   2    -0.134518116737E+04   -0.64387E+02   -0.74044E+02  2576   0.624E+01    0.160E+01
DAV:   3    -0.134265384545E+04    0.25273E+01   -0.44509E+01  2616   0.167E+01    0.104E+01
DAV:   4    -0.134005303492E+04    0.26008E+01   -0.17627E+01  2400   0.886E+00    0.507E+00
DAV:   5    -0.133990279564E+04    0.15024E+00   -0.56622E+00  2536   0.504E+00    0.374E+00
DAV:   6    -0.133978253072E+04    0.12026E+00   -0.34840E+00  2592   0.325E+00    0.206E+00
DAV:   7    -0.133972636282E+04    0.56168E-01   -0.47859E-01  2544   0.195E+00    0.127E+00
DAV:   8    -0.133973635525E+04   -0.99924E-02   -0.72548E-01  2480   0.140E+00    0.102E+00
DAV:   9    -0.133972975348E+04    0.66018E-02   -0.10373E-01  2528   0.702E-01    0.718E-01
DAV:  10    -0.133972606257E+04    0.36909E-02   -0.56908E-02  2488   0.388E-01    0.317E-01
DAV:  11    -0.133972690314E+04   -0.84056E-03   -0.31525E-02  2576   0.292E-01    0.198E-01
DAV:  12    -0.133972678709E+04    0.11604E-03   -0.45704E-03  2392   0.159E-01    0.144E-01
DAV:  13    -0.133972666305E+04    0.12404E-03   -0.32030E-03  2448   0.912E-02    0.405E-02
DAV:  14    -0.133972669783E+04   -0.34773E-04   -0.49309E-04  2616   0.457E-02    0.226E-02
DAV:  15    -0.133972670621E+04   -0.83865E-05   -0.10656E-04  2592   0.217E-02    0.102E-02
DAV:  16    -0.133972670827E+04   -0.20576E-05   -0.32002E-05  2592   0.122E-02    0.737E-03
DAV:  17    -0.133972670910E+04   -0.82749E-06   -0.13426E-05  2096   0.793E-03    0.440E-03
DAV:  18    -0.133972670920E+04   -0.10592E-06   -0.21039E-06  1056   0.453E-03
   2 F= -.13397267E+04 E0= -.13397267E+04  d E =-.172006E+02
 BRION: g(F)=  0.155E+03 g(S)=  0.000E+00 retain N=  1 mean eig= 0.38
 eig:   0.377
 bond charge predicted
       N       E                     dE             d eps       ncg     rms          rms(c)
DAV:   1    -0.132115249835E+04    0.18574E+02   -0.27309E+03  1368   0.646E+01    0.232E+01
DAV:   2    -0.135476884463E+04   -0.33616E+02   -0.45062E+02  2552   0.352E+01    0.216E+01
DAV:   3    -0.135174425518E+04    0.30246E+01   -0.62821E+01  2560   0.153E+01    0.149E+01
DAV:   4    -0.134791612307E+04    0.38281E+01   -0.30612E+01  2296   0.631E+00    0.574E+00
DAV:   5    -0.134900701165E+04   -0.10909E+01   -0.11966E+01  2464   0.485E+00    0.732E+00
DAV:   6    -0.134793278526E+04    0.10742E+01   -0.63343E+00  2456   0.341E+00    0.196E+00
DAV:   7    -0.134806214789E+04   -0.12936E+00   -0.18736E+00  2480   0.244E+00    0.169E+00
DAV:   8    -0.134799974395E+04    0.62404E-01   -0.32000E-01  2472   0.120E+00    0.633E-01
DAV:   9    -0.134800422901E+04   -0.44851E-02   -0.14202E-01  2520   0.644E-01    0.371E-01
DAV:  10    -0.134800483555E+04   -0.60654E-03   -0.30184E-02  2576   0.343E-01    0.215E-01
DAV:  11    -0.134800475753E+04    0.78019E-04   -0.67858E-03  2536   0.171E-01    0.215E-01
DAV:  12    -0.134800387453E+04    0.88300E-03   -0.58878E-03  2344   0.130E-01    0.607E-02
DAV:  13    -0.134800403617E+04   -0.16164E-03   -0.21763E-03  2376   0.809E-02    0.457E-02
DAV:  14    -0.134800403737E+04   -0.11980E-05   -0.27712E-04  2448   0.350E-02    0.301E-02
DAV:  15    -0.134800403312E+04    0.42481E-05   -0.18152E-04  2584   0.235E-02    0.100E-02
DAV:  16    -0.134800403514E+04   -0.20169E-05   -0.35750E-05  2344   0.141E-02    0.475E-03
DAV:  17    -0.134800403665E+04   -0.15118E-05   -0.16567E-05  2088   0.704E-03    0.679E-03
DAV:  18    -0.134800403596E+04    0.69139E-06   -0.47666E-06  1432   0.547E-03
   3 F= -.13480040E+04 E0= -.13480040E+04  d E =-.827733E+01
 BRION: g(F)=  0.657E+02 g(S)=  0.000E+00 retain N=  2 mean eig= 0.83
 eig:   0.194  1.476
 bond charge predicted
       N       E                     dE             d eps       ncg     rms          rms(c)
DAV:   1    -0.134417104201E+04    0.38330E+01   -0.94597E+02  1352   0.296E+01    0.122E+01
DAV:   2    -0.135447172697E+04   -0.10301E+02   -0.12969E+02  2568   0.182E+01    0.995E+00
DAV:   3    -0.135304781346E+04    0.14239E+01   -0.10297E+01  2328   0.552E+00    0.668E+00
DAV:   4    -0.135241057888E+04    0.63723E+00   -0.92520E+00  2120   0.367E+00    0.249E+00
DAV:   5    -0.135248844146E+04   -0.77863E-01   -0.15353E+00  2248   0.232E+00    0.290E+00
DAV:   6    -0.135233147827E+04    0.15696E+00   -0.73395E-01  2336   0.151E+00    0.823E-01
DAV:   7    -0.135235100475E+04   -0.19526E-01   -0.40552E-01  2432   0.956E-01    0.783E-01
DAV:   8    -0.135234547093E+04    0.55338E-02   -0.56072E-02  2488   0.468E-01    0.512E-01
DAV:   9    -0.135234349208E+04    0.19788E-02   -0.22537E-02  2560   0.246E-01    0.219E-01
DAV:  10    -0.135234352320E+04   -0.31117E-04   -0.55922E-03  2624   0.130E-01    0.128E-01
DAV:  11    -0.135234341289E+04    0.11030E-03   -0.18546E-03  2608   0.803E-02    0.516E-02
DAV:  12    -0.135234344314E+04   -0.30245E-04   -0.90318E-04  2560   0.488E-02    0.346E-02
DAV:  13    -0.135234344783E+04   -0.46944E-05   -0.13170E-04  2552   0.280E-02    0.310E-02
DAV:  14    -0.135234343798E+04    0.98544E-05   -0.92271E-05  2480   0.161E-02    0.150E-02
DAV:  15    -0.135234343708E+04    0.90008E-06   -0.31649E-05  2344   0.107E-02    0.542E-03
DAV:  16    -0.135234343703E+04    0.44209E-07   -0.34277E-06  1320   0.506E-03
   4 F= -.13523434E+04 E0= -.13523434E+04  d E =-.433940E+01
 BRION: g(F)=  0.843E+01 g(S)=  0.000E+00 retain N=  2 mean eig= 0.21
 eig:   0.207  0.207
 bond charge predicted
       N       E                     dE             d eps       ncg     rms          rms(c)
DAV:   1    -0.135416362018E+04   -0.18202E+01   -0.34681E+02  1368   0.266E+01    0.502E+00
DAV:   2    -0.135605569675E+04   -0.18921E+01   -0.20762E+01  2312   0.103E+01    0.251E+00
DAV:   3    -0.135611292334E+04   -0.57227E-01   -0.16046E+00  2624   0.244E+00    0.212E+00
DAV:   4    -0.135606027666E+04    0.52647E-01   -0.36473E-01  2592   0.127E+00    0.110E+00
DAV:   5    -0.135605288911E+04    0.73875E-02   -0.12896E-01  2448   0.744E-01    0.623E-01
DAV:   6    -0.135605236649E+04    0.52262E-03   -0.71447E-02  2584   0.516E-01    0.396E-01
DAV:   7    -0.135605159017E+04    0.77633E-03   -0.26523E-02  2440   0.306E-01    0.254E-01
DAV:   8    -0.135605149290E+04    0.97266E-04   -0.79496E-03  2544   0.168E-01    0.143E-01
DAV:   9    -0.135605134498E+04    0.14793E-03   -0.20678E-03  2536   0.947E-02    0.808E-02
DAV:  10    -0.135605149075E+04   -0.14577E-03   -0.19013E-03  2224   0.720E-02    0.886E-02
DAV:  11    -0.135605139413E+04    0.96616E-04   -0.55556E-04  2528   0.487E-02    0.369E-02
DAV:  12    -0.135605140424E+04   -0.10109E-04   -0.33408E-04  2544   0.312E-02    0.253E-02
DAV:  13    -0.135605140155E+04    0.26862E-05   -0.73298E-05  2536   0.175E-02    0.105E-02
DAV:  14    -0.135605140264E+04   -0.10918E-05   -0.16154E-05  2048   0.801E-03    0.662E-03
DAV:  15    -0.135605140269E+04   -0.44107E-07   -0.29022E-06  1112   0.493E-03
   5 F= -.13560514E+04 E0= -.13560514E+04  d E =-.370797E+01
 BRION: g(F)=  0.404E+01 g(S)=  0.000E+00 retain N=  3 mean eig= 0.33
 eig:   0.125  0.125  0.736
 bond charge predicted
       N       E                     dE             d eps       ncg     rms          rms(c)
DAV:   1    -0.135689139628E+04   -0.83999E+00   -0.20436E+02  1376   0.191E+01    0.324E+00
DAV:   2    -0.135789679410E+04   -0.10054E+01   -0.10778E+01  2296   0.733E+00    0.166E+00
DAV:   3    -0.135790908868E+04   -0.12295E-01   -0.69225E-01  2608   0.150E+00    0.138E+00
DAV:   4    -0.135787236317E+04    0.36726E-01   -0.19964E-01  2504   0.895E-01    0.670E-01
DAV:   5    -0.135786939373E+04    0.29694E-02   -0.75568E-02  2472   0.533E-01    0.478E-01
DAV:   6    -0.135786790672E+04    0.14870E-02   -0.42041E-02  2584   0.376E-01    0.218E-01
DAV:   7    -0.135786782102E+04    0.85700E-04   -0.11647E-02  2464   0.209E-01    0.168E-01
DAV:   8    -0.135786777866E+04    0.42361E-04   -0.38183E-03  2432   0.108E-01    0.935E-02
DAV:   9    -0.135786769953E+04    0.79134E-04   -0.15137E-03  2552   0.702E-02    0.505E-02
DAV:  10    -0.135786773173E+04   -0.32205E-04   -0.56240E-04  2464   0.453E-02    0.489E-02
DAV:  11    -0.135786770441E+04    0.27319E-04   -0.21768E-04  2552   0.300E-02    0.204E-02
DAV:  12    -0.135786770886E+04   -0.44499E-05   -0.12046E-04  2440   0.191E-02    0.106E-02
DAV:  13    -0.135786770941E+04   -0.55185E-06   -0.15241E-05  1960   0.942E-03    0.716E-03
DAV:  14    -0.135786770935E+04    0.64509E-07   -0.63357E-06  1536   0.542E-03
   6 F= -.13578677E+04 E0= -.13578677E+04  d E =-.181631E+01
 BRION: g(F)=  0.262E+01 g(S)=  0.000E+00 retain N=  4 mean eig= 0.70
 eig:   0.909  0.089  0.909  0.909
 bond charge predicted
       N       E                     dE             d eps       ncg     rms          rms(c)
DAV:   1    -0.135762838756E+04    0.23932E+00   -0.47375E+02  1336   0.296E+01    0.440E+00
DAV:   2    -0.136020040207E+04   -0.25720E+01   -0.27051E+01  2344   0.111E+01    0.249E+00
DAV:   3    -0.136021995286E+04   -0.19551E-01   -0.16371E+00  2600   0.250E+00    0.217E+00
DAV:   4    -0.136014205634E+04    0.77897E-01   -0.39559E-01  2536   0.116E+00    0.116E+00
DAV:   5    -0.136010878597E+04    0.33270E-01   -0.18183E-01  2456   0.786E-01    0.572E-01
DAV:   6    -0.136011125203E+04   -0.24661E-02   -0.89633E-02  2528   0.563E-01    0.599E-01
DAV:   7    -0.136010663540E+04    0.46166E-02   -0.38646E-02  2504   0.364E-01    0.326E-01
DAV:   8    -0.136010656430E+04    0.71104E-04   -0.18327E-02  2528   0.221E-01    0.125E-01
DAV:   9    -0.136010651521E+04    0.49085E-04   -0.22704E-03  2464   0.946E-02    0.852E-02
DAV:  10    -0.136010651646E+04   -0.12492E-05   -0.88530E-04  2360   0.566E-02    0.443E-02
DAV:  11    -0.136010651328E+04    0.31811E-05   -0.31454E-04  2568   0.367E-02    0.238E-02
DAV:  12    -0.136010652196E+04   -0.86846E-05   -0.21931E-04  2536   0.253E-02    0.202E-02
DAV:  13    -0.136010651893E+04    0.30286E-05   -0.59673E-05  2400   0.153E-02    0.920E-03
DAV:  14    -0.136010651890E+04    0.35681E-07   -0.12917E-05  1856   0.866E-03    0.464E-03
DAV:  15    -0.136010651972E+04   -0.81649E-06   -0.10348E-05  1608   0.582E-03    0.538E-03
DAV:  16    -0.136010651923E+04    0.48596E-06   -0.12818E-06  1024   0.463E-03
   7 F= -.13601065E+04 E0= -.13601065E+04  d E =-.223881E+01
 BRION: g(F)=  0.143E+01 g(S)=  0.000E+00 retain N=  5 mean eig= 1.09
 eig:   1.954  1.954  0.341  0.341  0.871
 bond charge predicted
       N       E                     dE             d eps       ncg     rms          rms(c)
DAV:   1    -0.136040013152E+04   -0.29361E+00   -0.10798E+02  1368   0.146E+01    0.202E+00
DAV:   2    -0.136094103062E+04   -0.54090E+00   -0.57384E+00  2288   0.554E+00    0.105E+00
DAV:   3    -0.136096205122E+04   -0.21021E-01   -0.42922E-01  2616   0.114E+00    0.856E-01
DAV:   4    -0.136094933994E+04    0.12711E-01   -0.70767E-02  2552   0.571E-01    0.480E-01
DAV:   5    -0.136094515585E+04    0.41841E-02   -0.26414E-02  2448   0.329E-01    0.231E-01
DAV:   6    -0.136094543423E+04   -0.27838E-03   -0.12145E-02  2504   0.215E-01    0.157E-01
DAV:   7    -0.136094530396E+04    0.13027E-03   -0.50733E-03  2328   0.139E-01    0.108E-01
DAV:   8    -0.136094536732E+04   -0.63363E-04   -0.25019E-03  2416   0.826E-02    0.666E-02
DAV:   9    -0.136094533597E+04    0.31349E-04   -0.43155E-04  2464   0.450E-02    0.483E-02
DAV:  10    -0.136094533161E+04    0.43680E-05   -0.46530E-04  2272   0.367E-02    0.341E-02
DAV:  11    -0.136094532329E+04    0.83131E-05   -0.16542E-04  2464   0.274E-02    0.117E-02
DAV:  12    -0.136094532712E+04   -0.38239E-05   -0.57142E-05  2336   0.149E-02    0.121E-02
DAV:  13    -0.136094532576E+04    0.13600E-05   -0.22987E-05  2032   0.984E-03    0.550E-03
DAV:  14    -0.136094532587E+04   -0.11391E-06   -0.48830E-06  1272   0.583E-03
   8 F= -.13609453E+04 E0= -.13609453E+04  d E =-.838807E+00
 BRION: g(F)=  0.870E+00 g(S)=  0.000E+00 retain N=  6 mean eig= 1.45
 eig:   2.847  1.996  1.996  0.135  0.855  0.855
 bond charge predicted
       N       E                     dE             d eps       ncg     rms          rms(c)
DAV:   1    -0.136123423758E+04   -0.28891E+00   -0.54996E+01  1384   0.104E+01    0.147E+00
DAV:   2    -0.136151438911E+04   -0.28015E+00   -0.29710E+00  2288   0.402E+00    0.754E-01
DAV:   3    -0.136152645680E+04   -0.12068E-01   -0.22627E-01  2624   0.801E-01    0.597E-01
DAV:   4    -0.136151986547E+04    0.65913E-02   -0.35197E-02  2520   0.416E-01    0.317E-01
DAV:   5    -0.136151857636E+04    0.12891E-02   -0.12790E-02  2448   0.229E-01    0.151E-01
DAV:   6    -0.136151882405E+04   -0.24769E-03   -0.55812E-03  2568   0.138E-01    0.872E-02
DAV:   7    -0.136151879922E+04    0.24837E-04   -0.16302E-03  2264   0.844E-02    0.627E-02
DAV:   8    -0.136151881783E+04   -0.18611E-04   -0.67253E-04  2328   0.447E-02    0.354E-02
DAV:   9    -0.136151881353E+04    0.42974E-05   -0.13245E-04  2568   0.257E-02    0.247E-02
DAV:  10    -0.136151881407E+04   -0.54356E-06   -0.12907E-04  2528   0.207E-02    0.156E-02
DAV:  11    -0.136151881326E+04    0.80888E-06   -0.38246E-05  2312   0.131E-02    0.672E-03
DAV:  12    -0.136151881384E+04   -0.57423E-06   -0.11252E-05  1808   0.765E-03    0.486E-03
DAV:  13    -0.136151881356E+04    0.27771E-06   -0.16171E-06  1008   0.507E-03
   9 F= -.13615188E+04 E0= -.13615188E+04  d E =-.573488E+00
 BRION: g(F)=  0.468E+00 g(S)=  0.000E+00 retain N=  7 mean eig= 1.67
 eig:   3.682  2.825  2.825  0.733  0.178  0.720  0.720
 bond charge predicted
       N       E                     dE             d eps       ncg     rms          rms(c)
DAV:   1    -0.136164879968E+04   -0.12999E+00   -0.93638E+01  1384   0.138E+01    0.169E+00
DAV:   2    -0.136212708335E+04   -0.47828E+00   -0.50482E+00  2280   0.527E+00    0.850E-01
DAV:   3    -0.136215514044E+04   -0.28057E-01   -0.40537E-01  2616   0.108E+00    0.677E-01
DAV:   4    -0.136214839729E+04    0.67431E-02   -0.42220E-02  2592   0.491E-01    0.445E-01
DAV:   5    -0.136214408727E+04    0.43100E-02   -0.18699E-02  2392   0.276E-01    0.176E-01
DAV:   6    -0.136214453458E+04   -0.44732E-03   -0.10140E-02  2456   0.189E-01    0.128E-01
DAV:   7    -0.136214457379E+04   -0.39207E-04   -0.42022E-03  2488   0.125E-01    0.960E-02
DAV:   8    -0.136214456474E+04    0.90489E-05   -0.16457E-03  2592   0.766E-02    0.570E-02
DAV:   9    -0.136214454368E+04    0.21061E-04   -0.37217E-04  2528   0.409E-02    0.399E-02
DAV:  10    -0.136214454764E+04   -0.39639E-05   -0.23422E-04  2552   0.278E-02    0.252E-02
DAV:  11    -0.136214454494E+04    0.27055E-05   -0.87055E-05  2440   0.197E-02    0.122E-02
DAV:  12    -0.136214454545E+04   -0.51041E-06   -0.30531E-05  2280   0.125E-02    0.107E-02
DAV:  13    -0.136214454469E+04    0.76016E-06   -0.18009E-05  1896   0.793E-03    0.514E-03
DAV:  14    -0.136214454450E+04    0.18472E-06   -0.30982E-06  1088   0.560E-03
  10 F= -.13621445E+04 E0= -.13621445E+04  d E =-.625731E+00
 BRION: g(F)=  0.367E+00 g(S)=  0.000E+00 retain N=  8 mean eig= 2.13
 eig:   7.488  2.635  1.612  1.612  1.612  0.296  0.898  0.898
 bond charge predicted
       N       E                     dE             d eps       ncg     rms          rms(c)
DAV:   1    -0.136223076906E+04   -0.86224E-01   -0.76526E+01  1384   0.125E+01    0.152E+00
DAV:   2    -0.136263135554E+04   -0.40059E+00   -0.42478E+00  2288   0.484E+00    0.760E-01
DAV:   3    -0.136265556260E+04   -0.24207E-01   -0.34423E-01  2608   0.989E-01    0.619E-01
DAV:   4    -0.136265038995E+04    0.51727E-02   -0.33361E-02  2592   0.440E-01    0.429E-01
DAV:   5    -0.136264593533E+04    0.44546E-02   -0.16245E-02  2344   0.252E-01    0.167E-01
DAV:   6    -0.136264629373E+04   -0.35839E-03   -0.10120E-02  2408   0.183E-01    0.126E-01
DAV:   7    -0.136264632023E+04   -0.26505E-04   -0.43474E-03  2448   0.122E-01    0.912E-02
DAV:   8    -0.136264631041E+04    0.98189E-05   -0.14610E-03  2600   0.740E-02    0.536E-02
DAV:   9    -0.136264629088E+04    0.19534E-04   -0.34938E-04  2416   0.392E-02    0.380E-02
DAV:  10    -0.136264629689E+04   -0.60137E-05   -0.19512E-04  2448   0.249E-02    0.234E-02
DAV:  11    -0.136264629592E+04    0.97255E-06   -0.82460E-05  2456   0.194E-02    0.129E-02
DAV:  12    -0.136264629629E+04   -0.37136E-06   -0.33163E-05  2312   0.128E-02    0.123E-02
DAV:  13    -0.136264629477E+04    0.15269E-05   -0.18915E-05  1840   0.806E-03    0.563E-03
DAV:  14    -0.136264629470E+04    0.69005E-07   -0.60751E-06  1448   0.607E-03
  11 F= -.13626463E+04 E0= -.13626463E+04  d E =-.501750E+00
 BRION: g(F)=  0.209E+00 g(S)=  0.000E+00 retain N=  8 mean eig= 1.80
 eig:   7.210  2.231  2.231  0.834  0.834  0.640  0.380  0.031
 bond charge predicted
       N       E                     dE             d eps       ncg     rms          rms(c)
DAV:   1    -0.136273727864E+04   -0.90984E-01   -0.48503E+01  1384   0.100E+01    0.119E+00
DAV:   2    -0.136299393355E+04   -0.25665E+00   -0.27241E+00  2280   0.392E+00    0.598E-01
DAV:   3    -0.136300963900E+04   -0.15705E-01   -0.21983E-01  2608   0.792E-01    0.487E-01
DAV:   4    -0.136300656626E+04    0.30727E-02   -0.20736E-02  2608   0.352E-01    0.349E-01
DAV:   5    -0.136300354223E+04    0.30240E-02   -0.98846E-03  2368   0.200E-01    0.141E-01
DAV:   6    -0.136300367258E+04   -0.13035E-03   -0.69381E-03  2368   0.154E-01    0.952E-02
DAV:   7    -0.136300374343E+04   -0.70849E-04   -0.32026E-03  2448   0.103E-01    0.748E-02
DAV:   8    -0.136300373051E+04    0.12913E-04   -0.89590E-04  2592   0.599E-02    0.438E-02
DAV:   9    -0.136300371655E+04    0.13962E-04   -0.26245E-04  2488   0.326E-02    0.287E-02
DAV:  10    -0.136300372259E+04   -0.60382E-05   -0.11131E-04  2504   0.197E-02    0.191E-02
DAV:  11    -0.136300372241E+04    0.18015E-06   -0.52674E-05  2400   0.150E-02    0.117E-02
DAV:  12    -0.136300372187E+04    0.53651E-06   -0.24454E-05  2280   0.111E-02    0.101E-02
DAV:  13    -0.136300372106E+04    0.81553E-06   -0.14649E-05  1784   0.720E-03    0.537E-03
DAV:  14    -0.136300372097E+04    0.89101E-07   -0.59329E-06  1496   0.556E-03
  12 F= -.13630037E+04 E0= -.13630037E+04  d E =-.357426E+00
 BRION: g(F)=  0.162E+00 g(S)=  0.000E+00 retain N=  8 mean eig= 1.53
 eig:   3.301  3.301  0.948  0.948  0.895  0.895  0.988  0.988
 bond charge predicted
       N       E                     dE             d eps       ncg     rms          rms(c)
DAV:   1    -0.136308952151E+04   -0.85800E-01   -0.34296E+01  1384   0.841E+00    0.103E+00
DAV:   2    -0.136327068807E+04   -0.18117E+00   -0.19251E+00  2296   0.326E+00    0.508E-01
DAV:   3    -0.136328141753E+04   -0.10729E-01   -0.15488E-01  2600   0.661E-01    0.410E-01
DAV:   4    -0.136327888058E+04    0.25369E-02   -0.15474E-02  2592   0.301E-01    0.279E-01
DAV:   5    -0.136327701988E+04    0.18607E-02   -0.75906E-03  2400   0.169E-01    0.106E-01
DAV:   6    -0.136327722251E+04   -0.20263E-03   -0.42065E-03  2464   0.119E-01    0.804E-02
DAV:   7    -0.136327722828E+04   -0.57723E-05   -0.17448E-03  2472   0.785E-02    0.568E-02
DAV:   8    -0.136327722884E+04   -0.56204E-06   -0.57448E-04  2584   0.466E-02    0.334E-02
DAV:   9    -0.136327722159E+04    0.72567E-05   -0.12206E-04  2480   0.241E-02    0.245E-02
DAV:  10    -0.136327722367E+04   -0.20844E-05   -0.82606E-05  2520   0.160E-02    0.143E-02
DAV:  11    -0.136327722303E+04    0.64487E-06   -0.28107E-05  2248   0.117E-02    0.699E-03
DAV:  12    -0.136327722329E+04   -0.26333E-06   -0.11255E-05  1856   0.801E-03    0.596E-03
DAV:  13    -0.136327722285E+04    0.43938E-06   -0.32037E-06  1152   0.510E-03
  13 F= -.13632772E+04 E0= -.13632772E+04  d E =-.273502E+00
 BRION: g(F)=  0.144E+00 g(S)=  0.000E+00 retain N=  9 mean eig= 2.41
 eig:   7.151  7.151  1.223  1.223  1.026  1.026  0.934  0.986  0.986
 bond charge predicted
       N       E                     dE             d eps       ncg     rms          rms(c)
DAV:   1    -0.136320765729E+04    0.69566E-01   -0.80418E+01  1392   0.129E+01    0.148E+00
DAV:   2    -0.136363609212E+04   -0.42843E+00   -0.45391E+00  2296   0.507E+00    0.752E-01
DAV:   3    -0.136366254393E+04   -0.26452E-01   -0.36449E-01  2600   0.989E-01    0.619E-01
DAV:   4    -0.136365850845E+04    0.40355E-02   -0.31961E-02  2608   0.440E-01    0.471E-01
DAV:   5    -0.136365282641E+04    0.56820E-02   -0.14357E-02  2416   0.246E-01    0.220E-01
DAV:   6    -0.136365233809E+04    0.48832E-03   -0.13963E-02  2272   0.219E-01    0.118E-01
DAV:   7    -0.136365262950E+04   -0.29141E-03   -0.73355E-03  2464   0.151E-01    0.112E-01
DAV:   8    -0.136365258041E+04    0.49097E-04   -0.15064E-03  2576   0.835E-02    0.747E-02
DAV:   9    -0.136365252078E+04    0.59626E-04   -0.70169E-04  2528   0.482E-02    0.384E-02
DAV:  10    -0.136365253606E+04   -0.15282E-04   -0.22391E-04  2576   0.296E-02    0.256E-02
DAV:  11    -0.136365254106E+04   -0.50013E-05   -0.92241E-05  2328   0.192E-02    0.197E-02
DAV:  12    -0.136365253719E+04    0.38763E-05   -0.68685E-05  2280   0.174E-02    0.165E-02
DAV:  13    -0.136365253547E+04    0.17175E-05   -0.40046E-05  2280   0.119E-02    0.110E-02
DAV:  14    -0.136365253456E+04    0.91083E-06   -0.12057E-05  1792   0.677E-03    0.438E-03
DAV:  15    -0.136365253440E+04    0.15648E-06   -0.20649E-06   992   0.455E-03
  14 F= -.13636525E+04 E0= -.13636525E+04  d E =-.375312E+00
 BRION: g(F)=  0.106E+00 g(S)=  0.000E+00 retain N=  6 mean eig= 3.46
 eig:   7.911  7.911  1.547  1.547  0.730  1.091
 bond charge predicted
       N       E                     dE             d eps       ncg     rms          rms(c)
DAV:   1    -0.136367316533E+04   -0.20631E-01   -0.42821E+01  1384   0.945E+00    0.111E+00
DAV:   2    -0.136389937585E+04   -0.22621E+00   -0.24017E+00  2288   0.370E+00    0.557E-01
DAV:   3    -0.136391356053E+04   -0.14185E-01   -0.19529E-01  2616   0.745E-01    0.454E-01
DAV:   4    -0.136391109802E+04    0.24625E-02   -0.17479E-02  2616   0.328E-01    0.333E-01
DAV:   5    -0.136390828528E+04    0.28127E-02   -0.90289E-03  2360   0.194E-01    0.135E-01
DAV:   6    -0.136390845343E+04   -0.16815E-03   -0.68111E-03  2376   0.152E-01    0.980E-02
DAV:   7    -0.136390847447E+04   -0.21038E-04   -0.27518E-03  2440   0.972E-02    0.736E-02
DAV:   8    -0.136390846307E+04    0.11402E-04   -0.89656E-04  2552   0.588E-02    0.414E-02
DAV:   9    -0.136390844708E+04    0.15990E-04   -0.21891E-04  2400   0.303E-02    0.270E-02
DAV:  10    -0.136390845077E+04   -0.36901E-05   -0.92942E-05  2432   0.182E-02    0.148E-02
DAV:  11    -0.136390845124E+04   -0.47585E-06   -0.27764E-05  2360   0.116E-02    0.864E-03
DAV:  12    -0.136390845155E+04   -0.30440E-06   -0.13945E-05  2000   0.848E-03    0.801E-03
DAV:  13    -0.136390845094E+04    0.60610E-06   -0.95177E-06  1672   0.642E-03
  15 F= -.13639085E+04 E0= -.13639085E+04  d E =-.255917E+00
 BRION: g(F)=  0.915E-01 g(S)=  0.000E+00 retain N=  4 mean eig= 4.55
 eig:   7.371  7.371  1.734  1.734
 bond charge predicted
       N       E                     dE             d eps       ncg     rms          rms(c)
DAV:   1    -0.136396894772E+04   -0.60496E-01   -0.19017E+01  1384   0.628E+00    0.728E-01
DAV:   2    -0.136406960502E+04   -0.10066E+00   -0.10685E+00  2296   0.249E+00    0.363E-01
DAV:   3    -0.136407610361E+04   -0.64986E-02   -0.87364E-02  2600   0.481E-01    0.301E-01
DAV:   4    -0.136407517858E+04    0.92502E-03   -0.76087E-03  2624   0.217E-01    0.226E-01
DAV:   5    -0.136407395257E+04    0.12260E-02   -0.37834E-03  2376   0.126E-01    0.983E-02
DAV:   6    -0.136407396365E+04   -0.11078E-04   -0.31339E-03  2296   0.105E-01    0.675E-02
DAV:   7    -0.136407398392E+04   -0.20273E-04   -0.15224E-03  2480   0.715E-02    0.547E-02
DAV:   8    -0.136407397323E+04    0.10691E-04   -0.43827E-04  2544   0.425E-02    0.326E-02
DAV:   9    -0.136407396297E+04    0.10256E-04   -0.13321E-04  2424   0.224E-02    0.191E-02
DAV:  10    -0.136407396576E+04   -0.27883E-05   -0.49296E-05  2488   0.133E-02    0.120E-02
DAV:  11    -0.136407396662E+04   -0.86192E-06   -0.19927E-05  2040   0.938E-03    0.953E-03
DAV:  12    -0.136407396557E+04    0.10511E-05   -0.95881E-06  1704   0.784E-03    0.741E-03
DAV:  13    -0.136407396527E+04    0.29725E-06   -0.99389E-06  1600   0.628E-03
  16 F= -.13640740E+04 E0= -.13640740E+04  d E =-.165514E+00
 BRION: g(F)=  0.846E-01 g(S)=  0.000E+00 retain N=  3 mean eig= 3.58
 eig:   4.654  4.654  1.428
 bond charge predicted
       N       E                     dE             d eps       ncg     rms          rms(c)
DAV:   1    -0.136414102601E+04   -0.67060E-01   -0.10227E+01  1384   0.460E+00    0.539E-01
DAV:   2    -0.136419454487E+04   -0.53519E-01   -0.56556E-01  2296   0.182E+00    0.272E-01
DAV:   3    -0.136419779902E+04   -0.32542E-02   -0.44798E-02  2592   0.347E-01    0.219E-01
DAV:   4    -0.136419719601E+04    0.60301E-03   -0.41487E-03  2600   0.157E-01    0.158E-01
DAV:   5    -0.136419657247E+04    0.62355E-03   -0.20939E-03  2344   0.970E-02    0.624E-02
DAV:   6    -0.136419662462E+04   -0.52153E-04   -0.15869E-03  2424   0.750E-02    0.476E-02
DAV:   7    -0.136419663023E+04   -0.56087E-05   -0.60390E-04  2440   0.461E-02    0.359E-02
DAV:   8    -0.136419662656E+04    0.36660E-05   -0.20003E-04  2536   0.274E-02    0.194E-02
DAV:   9    -0.136419662268E+04    0.38805E-05   -0.50069E-05  2344   0.147E-02    0.126E-02
DAV:  10    -0.136419662328E+04   -0.60395E-06   -0.20437E-05  2272   0.900E-03    0.739E-03
DAV:  11    -0.136419662277E+04    0.51183E-06   -0.22732E-06  1032   0.594E-03
  17 F= -.13641966E+04 E0= -.13641966E+04  d E =-.122657E+00
 BRION: g(F)=  0.794E-01 g(S)=  0.000E+00 retain N=  4 mean eig= 4.49
 eig:   7.524  7.524  1.448  1.448
 bond charge predicted
       N       E                     dE             d eps       ncg     rms          rms(c)
DAV:   1    -0.136426955369E+04   -0.72930E-01   -0.99996E+00  1384   0.455E+00    0.513E-01
DAV:   2    -0.136432061045E+04   -0.51057E-01   -0.53865E-01  2296   0.178E+00    0.259E-01
DAV:   3    -0.136432384478E+04   -0.32343E-02   -0.43210E-02  2584   0.343E-01    0.210E-01
DAV:   4    -0.136432337401E+04    0.47076E-03   -0.38056E-03  2608   0.150E-01    0.156E-01
DAV:   5    -0.136432278071E+04    0.59331E-03   -0.19738E-03  2344   0.931E-02    0.655E-02
DAV:   6    -0.136432280795E+04   -0.27247E-04   -0.14927E-03  2352   0.733E-02    0.475E-02
DAV:   7    -0.136432281555E+04   -0.76004E-05   -0.63059E-04  2464   0.470E-02    0.362E-02
DAV:   8    -0.136432281109E+04    0.44668E-05   -0.20610E-04  2536   0.286E-02    0.201E-02
DAV:   9    -0.136432280780E+04    0.32877E-05   -0.52725E-05  2328   0.148E-02    0.127E-02
DAV:  10    -0.136432280861E+04   -0.80795E-06   -0.20746E-05  2232   0.886E-03    0.716E-03
DAV:  11    -0.136432280821E+04    0.39597E-06   -0.17864E-06  1008   0.580E-03
  18 F= -.13643228E+04 E0= -.13643228E+04  d E =-.126185E+00
 BRION: g(F)=  0.764E-01 g(S)=  0.000E+00 retain N=  4 mean eig= 3.65
 eig:   6.000  6.000  1.294  1.294
 bond charge predicted
       N       E                     dE             d eps       ncg     rms          rms(c)
DAV:   1    -0.136439815675E+04   -0.75348E-01   -0.11784E+01  1384   0.492E+00    0.559E-01
DAV:   2    -0.136445920286E+04   -0.61046E-01   -0.64370E-01  2288   0.195E+00    0.279E-01
DAV:   3    -0.136446315556E+04   -0.39527E-02   -0.52073E-02  2592   0.374E-01    0.224E-01
DAV:   4    -0.136446259692E+04    0.55864E-03   -0.44165E-03  2600   0.164E-01    0.166E-01
DAV:   5    -0.136446192295E+04    0.67396E-03   -0.22575E-03  2352   0.980E-02    0.677E-02
DAV:   6    -0.136446196208E+04   -0.39128E-04   -0.16531E-03  2384   0.762E-02    0.503E-02
DAV:   7    -0.136446196910E+04   -0.70209E-05   -0.70733E-04  2488   0.494E-02    0.374E-02
DAV:   8    -0.136446196408E+04    0.50220E-05   -0.22096E-04  2536   0.300E-02    0.211E-02
DAV:   9    -0.136446196000E+04    0.40763E-05   -0.57707E-05  2288   0.154E-02    0.135E-02
DAV:  10    -0.136446196098E+04   -0.97818E-06   -0.23456E-05  2312   0.926E-03    0.776E-03
DAV:  11    -0.136446196062E+04    0.35748E-06   -0.32125E-06  1120   0.633E-03
  19 F= -.13644620E+04 E0= -.13644620E+04  d E =-.139152E+00
 BRION: g(F)=  0.735E-01 g(S)=  0.000E+00 retain N=  4 mean eig= 3.30
 eig:   5.353  5.353  1.248  1.248
 bond charge predicted
       N       E                     dE             d eps       ncg     rms          rms(c)
DAV:   1    -0.136453764378E+04   -0.75683E-01   -0.83760E+00  1376   0.415E+00    0.468E-01
DAV:   2    -0.136458087150E+04   -0.43228E-01   -0.45469E-01  2312   0.163E+00    0.235E-01
DAV:   3    -0.136458360709E+04   -0.27356E-02   -0.36154E-02  2568   0.309E-01    0.187E-01
DAV:   4    -0.136458321919E+04    0.38790E-03   -0.32567E-03  2608   0.137E-01    0.137E-01
DAV:   5    -0.136458276170E+04    0.45749E-03   -0.14672E-03  2376   0.817E-02    0.591E-02
DAV:   6    -0.136458277011E+04   -0.84058E-05   -0.11446E-03  2376   0.644E-02    0.385E-02
DAV:   7    -0.136458278306E+04   -0.12955E-04   -0.51529E-04  2496   0.424E-02    0.311E-02
DAV:   8    -0.136458278015E+04    0.29115E-05   -0.14736E-04  2536   0.247E-02    0.184E-02
DAV:   9    -0.136458277700E+04    0.31492E-05   -0.45871E-05  2400   0.134E-02    0.110E-02
DAV:  10    -0.136458277780E+04   -0.80069E-06   -0.18052E-05  2144   0.840E-03    0.696E-03
DAV:  11    -0.136458277726E+04    0.54095E-06   -0.18309E-06  1000   0.591E-03
  20 F= -.13645828E+04 E0= -.13645828E+04  d E =-.120817E+00
 BRION: g(F)=  0.711E-01 g(S)=  0.000E+00 retain N=  4 mean eig= 3.20
 eig:   5.238  5.238  1.166  1.166
