 running on  160 total cores
 distrk:  each k-point on  160 cores,    1 groups
 distr:  one band on   20 cores,    8 groups
 using from now: INCAR     
 vasp.5.4.4.18Apr17-6-g9f103f2a35 (build May 01 2020 14:22:42) gamma-only       
  
 POSCAR found type information on POSCAR  O  La Zr Li Al
 POSCAR found :  5 types and     188 ions
 scaLAPACK will be used
 LDA part: xc-table for Pade appr. of Perdew
 POSCAR, INCAR and KPOINTS ok, starting setup
 FFT: planning ...
 WAVECAR not read
 WARNING: random wavefunctions but no delay for mixing, default for NELMDL
 entering main loop
       N       E                     dE             d eps       ncg     rms          rms(c)
DAV:   1     0.252148783578E+05    0.25215E+05   -0.42079E+05  1624   0.253E+03
DAV:   2     0.948363757637E+04   -0.15731E+05   -0.14532E+05  1440   0.710E+02
DAV:   3     0.273493399973E+04   -0.67487E+04   -0.61530E+04  1520   0.355E+02
DAV:   4    -0.345448964445E+03   -0.30804E+04   -0.28729E+04  2064   0.222E+02
DAV:   5    -0.140848957725E+04   -0.10630E+04   -0.10231E+04  2528   0.141E+02    0.116E+02
DAV:   6    -0.130159303180E+04    0.10690E+03   -0.14634E+03  2440   0.658E+01    0.504E+01
DAV:   7    -0.132356635396E+04   -0.21973E+02   -0.39691E+02  2544   0.338E+01    0.256E+01
DAV:   8    -0.133103243049E+04   -0.74661E+01   -0.26919E+02  2512   0.275E+01    0.260E+01
DAV:   9    -0.132449878451E+04    0.65336E+01   -0.53733E+01  2496   0.149E+01    0.770E+00
DAV:  10    -0.132544935550E+04   -0.95057E+00   -0.15584E+01  2624   0.814E+00    0.739E+00
DAV:  11    -0.132572556471E+04   -0.27621E+00   -0.62418E+00  2616   0.434E+00    0.411E+00
DAV:  12    -0.132558255417E+04    0.14301E+00   -0.22840E+00  2552   0.346E+00    0.265E+00
DAV:  13    -0.132563375039E+04   -0.51196E-01   -0.84062E-01  2584   0.171E+00    0.178E+00
DAV:  14    -0.132562699253E+04    0.67579E-02   -0.25546E-01  2624   0.104E+00    0.116E+00
DAV:  15    -0.132563356587E+04   -0.65733E-02   -0.77931E-02  2552   0.555E-01    0.873E-01
DAV:  16    -0.132563394080E+04   -0.37493E-03   -0.30298E-02  2624   0.316E-01    0.533E-01
DAV:  17    -0.132563212386E+04    0.18169E-02   -0.22571E-02  2480   0.291E-01    0.246E-01
DAV:  18    -0.132563244203E+04   -0.31818E-03   -0.49366E-03  2496   0.151E-01    0.121E-01
DAV:  19    -0.132563248188E+04   -0.39846E-04   -0.17349E-03  2560   0.830E-02    0.777E-02
DAV:  20    -0.132563252666E+04   -0.44782E-04   -0.40779E-04  2624   0.373E-02    0.224E-02
DAV:  21    -0.132563254534E+04   -0.18681E-04   -0.14589E-04  2608   0.218E-02    0.318E-02
DAV:  22    -0.132563256213E+04   -0.16794E-04   -0.53377E-05  2424   0.145E-02    0.138E-02
DAV:  23    -0.132563255686E+04    0.52744E-05   -0.32154E-05  2136   0.105E-02    0.639E-03
DAV:  24    -0.132563256025E+04   -0.33905E-05   -0.76142E-06  1120   0.742E-03    0.231E-03
DAV:  25    -0.132563256091E+04   -0.65744E-06   -0.49843E-06  1112   0.550E-03
   1 F= -.13256326E+04 E0= -.13256326E+04  d E =-.132563E+04
 BRION: g(F)=  0.613E+02 g(S)=  0.000E+00
 bond charge predicted
       N       E                     dE             d eps       ncg     rms          rms(c)
DAV:   1    -0.129752469308E+04    0.28108E+02   -0.67258E+03  1688   0.121E+02    0.268E+01
DAV:   2    -0.134892987727E+04   -0.51405E+02   -0.58830E+02  2576   0.558E+01    0.135E+01
DAV:   3    -0.134713240046E+04    0.17975E+01   -0.32615E+01  2608   0.145E+01    0.896E+00
DAV:   4    -0.134529261141E+04    0.18398E+01   -0.12955E+01  2400   0.739E+00    0.435E+00
DAV:   5    -0.134515923005E+04    0.13338E+00   -0.35881E+00  2504   0.414E+00    0.305E+00
DAV:   6    -0.134506681488E+04    0.92415E-01   -0.24663E+00  2576   0.274E+00    0.165E+00
DAV:   7    -0.134505067871E+04    0.16136E-01   -0.39630E-01  2528   0.161E+00    0.118E+00
DAV:   8    -0.134504571667E+04    0.49620E-02   -0.39914E-01  2592   0.106E+00    0.656E-01
DAV:   9    -0.134504496810E+04    0.74857E-03   -0.54943E-02  2544   0.547E-01    0.465E-01
DAV:  10    -0.134504339814E+04    0.15700E-02   -0.26539E-02  2624   0.296E-01    0.179E-01
DAV:  11    -0.134504414137E+04   -0.74323E-03   -0.12131E-02  2608   0.196E-01    0.141E-01
DAV:  12    -0.134504401442E+04    0.12695E-03   -0.21212E-03  2600   0.102E-01    0.662E-02
DAV:  13    -0.134504403643E+04   -0.22005E-04   -0.11917E-03  2616   0.595E-02    0.246E-02
DAV:  14    -0.134504404793E+04   -0.11498E-04   -0.15742E-04  2624   0.275E-02    0.153E-02
DAV:  15    -0.134504405106E+04   -0.31372E-05   -0.51658E-05  2624   0.140E-02    0.701E-03
DAV:  16    -0.134504405259E+04   -0.15256E-05   -0.14280E-05  1752   0.860E-03    0.394E-03
DAV:  17    -0.134504405310E+04   -0.50882E-06   -0.56656E-06  1544   0.571E-03
   2 F= -.13450441E+04 E0= -.13450441E+04  d E =-.194115E+02
 BRION: g(F)=  0.434E+02 g(S)=  0.000E+00 retain N=  1 mean eig= 0.56
 eig:   0.561
 bond charge predicted
       N       E                     dE             d eps       ncg     rms          rms(c)
DAV:   1    -0.133097625439E+04    0.14068E+02   -0.27398E+03  1424   0.709E+01    0.167E+01
DAV:   2    -0.135558084650E+04   -0.24605E+02   -0.30315E+02  2488   0.339E+01    0.154E+01
DAV:   3    -0.135481589779E+04    0.76495E+00   -0.22226E+01  2600   0.116E+01    0.121E+01
DAV:   4    -0.135344783053E+04    0.13681E+01   -0.12924E+01  2256   0.488E+00    0.630E+00
DAV:   5    -0.135357856248E+04   -0.13073E+00   -0.40550E+00  2408   0.367E+00    0.559E+00
DAV:   6    -0.135302880944E+04    0.54975E+00   -0.38440E+00  2456   0.376E+00    0.184E+00
DAV:   7    -0.135309798918E+04   -0.69180E-01   -0.14343E+00  2440   0.216E+00    0.145E+00
DAV:   8    -0.135307820544E+04    0.19784E-01   -0.30145E-01  2608   0.987E-01    0.616E-01
DAV:   9    -0.135307779681E+04    0.40864E-03   -0.94709E-02  2528   0.537E-01    0.369E-01
DAV:  10    -0.135307826970E+04   -0.47290E-03   -0.16182E-02  2352   0.267E-01    0.173E-01
DAV:  11    -0.135307819438E+04    0.75327E-04   -0.58036E-03  2552   0.150E-01    0.831E-02
DAV:  12    -0.135307829940E+04   -0.10502E-03   -0.18067E-03  2568   0.818E-02    0.481E-02
DAV:  13    -0.135307832312E+04   -0.23723E-04   -0.55105E-04  2616   0.471E-02    0.336E-02
DAV:  14    -0.135307832824E+04   -0.51161E-05   -0.17269E-04  2624   0.265E-02    0.198E-02
DAV:  15    -0.135307832951E+04   -0.12722E-05   -0.74660E-05  2528   0.182E-02    0.122E-02
DAV:  16    -0.135307833135E+04   -0.18339E-05   -0.34120E-05  2480   0.109E-02    0.808E-03
DAV:  17    -0.135307833116E+04    0.18498E-06   -0.82924E-06  1520   0.670E-03
   3 F= -.13530783E+04 E0= -.13530783E+04  d E =-.803428E+01
 BRION: g(F)=  0.661E+01 g(S)=  0.000E+00 retain N=  2 mean eig= 1.16
 eig:   0.382  1.945
 bond charge predicted
       N       E                     dE             d eps       ncg     rms          rms(c)
DAV:   1    -0.135427153175E+04   -0.11932E+01   -0.41557E+02  1368   0.287E+01    0.582E+00
DAV:   2    -0.135650436615E+04   -0.22328E+01   -0.25372E+01  2344   0.116E+01    0.271E+00
DAV:   3    -0.135655841709E+04   -0.54051E-01   -0.19050E+00  2592   0.271E+00    0.222E+00
DAV:   4    -0.135649391553E+04    0.64502E-01   -0.50381E-01  2528   0.145E+00    0.115E+00
DAV:   5    -0.135648623113E+04    0.76844E-02   -0.18165E-01  2416   0.866E-01    0.758E-01
DAV:   6    -0.135648302159E+04    0.32095E-02   -0.10056E-01  2584   0.606E-01    0.432E-01
DAV:   7    -0.135648304480E+04   -0.23206E-04   -0.41304E-02  2424   0.374E-01    0.287E-01
DAV:   8    -0.135648296610E+04    0.78697E-04   -0.10614E-02  2576   0.195E-01    0.161E-01
DAV:   9    -0.135648286793E+04    0.98166E-04   -0.36450E-03  2624   0.116E-01    0.990E-02
DAV:  10    -0.135648298779E+04   -0.11986E-03   -0.17200E-03  2488   0.780E-02    0.983E-02
DAV:  11    -0.135648287807E+04    0.10972E-03   -0.10011E-03  2440   0.589E-02    0.339E-02
DAV:  12    -0.135648289116E+04   -0.13090E-04   -0.31994E-04  2432   0.364E-02    0.181E-02
DAV:  13    -0.135648289545E+04   -0.42926E-05   -0.64336E-05  2464   0.159E-02    0.123E-02
DAV:  14    -0.135648289594E+04   -0.48915E-06   -0.25234E-05  2224   0.933E-03    0.655E-03
DAV:  15    -0.135648289628E+04   -0.34060E-06   -0.51808E-06  1464   0.585E-03
   4 F= -.13564829E+04 E0= -.13564829E+04  d E =-.340457E+01
 BRION: g(F)=  0.228E+01 g(S)=  0.000E+00 retain N=  3 mean eig= 1.00
 eig:   2.377  0.049  0.583
 bond charge predicted
       N       E                     dE             d eps       ncg     rms          rms(c)
DAV:   1    -0.135727785070E+04   -0.79495E+00   -0.19696E+02  1376   0.199E+01    0.287E+00
DAV:   2    -0.135824010428E+04   -0.96225E+00   -0.10372E+01  2256   0.740E+00    0.146E+00
DAV:   3    -0.135828120525E+04   -0.41101E-01   -0.80527E-01  2600   0.162E+00    0.125E+00
DAV:   4    -0.135825942750E+04    0.21778E-01   -0.11906E-01  2608   0.755E-01    0.771E-01
DAV:   5    -0.135824830022E+04    0.11127E-01   -0.72135E-02  2280   0.515E-01    0.360E-01
DAV:   6    -0.135824960905E+04   -0.13088E-02   -0.31866E-02  2496   0.349E-01    0.340E-01
DAV:   7    -0.135824857723E+04    0.10318E-02   -0.16576E-02  2488   0.234E-01    0.186E-01
DAV:   8    -0.135824850785E+04    0.69384E-04   -0.52266E-03  2520   0.136E-01    0.914E-02
DAV:   9    -0.135824849765E+04    0.10195E-04   -0.79847E-04  2576   0.632E-02    0.640E-02
DAV:  10    -0.135824854022E+04   -0.42571E-04   -0.66138E-04  2320   0.422E-02    0.484E-02
DAV:  11    -0.135824850120E+04    0.39024E-04   -0.18804E-04  2504   0.328E-02    0.193E-02
DAV:  12    -0.135824851082E+04   -0.96199E-05   -0.18363E-04  2432   0.222E-02    0.194E-02
DAV:  13    -0.135824850530E+04    0.55234E-05   -0.42714E-05  2296   0.134E-02    0.629E-03
DAV:  14    -0.135824850588E+04   -0.58471E-06   -0.82107E-06  1680   0.662E-03
   5 F= -.13582485E+04 E0= -.13582485E+04  d E =-.176561E+01
 BRION: g(F)=  0.129E+01 g(S)=  0.000E+00 retain N=  4 mean eig= 1.13
 eig:   1.522  1.522  0.743  0.743
 bond charge predicted
       N       E                     dE             d eps       ncg     rms          rms(c)
DAV:   1    -0.135879496518E+04   -0.54646E+00   -0.20932E+02  1360   0.207E+01    0.292E+00
DAV:   2    -0.135980120488E+04   -0.10062E+01   -0.10625E+01  2288   0.773E+00    0.144E+00
DAV:   3    -0.135983995773E+04   -0.38753E-01   -0.77690E-01  2592   0.155E+00    0.115E+00
DAV:   4    -0.135981522544E+04    0.24732E-01   -0.13524E-01  2528   0.796E-01    0.634E-01
DAV:   5    -0.135980886762E+04    0.63578E-02   -0.55009E-02  2472   0.495E-01    0.333E-01
DAV:   6    -0.135980946996E+04   -0.60234E-03   -0.23595E-02  2576   0.301E-01    0.221E-01
DAV:   7    -0.135980910306E+04    0.36690E-03   -0.79410E-03  2448   0.182E-01    0.138E-01
DAV:   8    -0.135980926081E+04   -0.15775E-03   -0.48953E-03  2480   0.118E-01    0.952E-02
DAV:   9    -0.135980915422E+04    0.10659E-03   -0.75631E-04  2568   0.633E-02    0.619E-02
DAV:  10    -0.135980915084E+04    0.33817E-05   -0.89247E-04  2392   0.504E-02    0.379E-02
DAV:  11    -0.135980914381E+04    0.70281E-05   -0.23359E-04  2520   0.340E-02    0.138E-02
DAV:  12    -0.135980915056E+04   -0.67493E-05   -0.92054E-05  2472   0.177E-02    0.140E-02
DAV:  13    -0.135980914881E+04    0.17499E-05   -0.28235E-05  2240   0.111E-02    0.676E-03
DAV:  14    -0.135980914900E+04   -0.18699E-06   -0.10346E-05  1768   0.663E-03    0.308E-03
DAV:  15    -0.135980914917E+04   -0.16786E-06   -0.11852E-06   992   0.409E-03
   6 F= -.13598091E+04 E0= -.13598091E+04  d E =-.156064E+01
 BRION: g(F)=  0.771E+00 g(S)=  0.000E+00 retain N=  5 mean eig= 1.17
 eig:   1.131  1.131  1.441  1.441  0.731
 bond charge predicted
       N       E                     dE             d eps       ncg     rms          rms(c)
DAV:   1    -0.136026488656E+04   -0.45574E+00   -0.73833E+01  1368   0.123E+01    0.171E+00
DAV:   2    -0.136063222138E+04   -0.36733E+00   -0.38804E+00  2288   0.455E+00    0.851E-01
DAV:   3    -0.136064929885E+04   -0.17077E-01   -0.29863E-01  2624   0.955E-01    0.676E-01
DAV:   4    -0.136064125156E+04    0.80473E-02   -0.45548E-02  2544   0.474E-01    0.380E-01
DAV:   5    -0.136063903873E+04    0.22128E-02   -0.18437E-02  2480   0.284E-01    0.179E-01
DAV:   6    -0.136063936798E+04   -0.32925E-03   -0.74573E-03  2568   0.168E-01    0.121E-01
DAV:   7    -0.136063928455E+04    0.83431E-04   -0.23220E-03  2496   0.101E-01    0.803E-02
DAV:   8    -0.136063932399E+04   -0.39447E-04   -0.15864E-03  2512   0.670E-02    0.544E-02
DAV:   9    -0.136063929307E+04    0.30927E-04   -0.23834E-04  2536   0.361E-02    0.368E-02
DAV:  10    -0.136063928820E+04    0.48692E-05   -0.27039E-04  2440   0.285E-02    0.199E-02
DAV:  11    -0.136063928778E+04    0.42302E-06   -0.68830E-05  2440   0.182E-02    0.826E-03
DAV:  12    -0.136063928948E+04   -0.17055E-05   -0.24841E-05  2192   0.975E-03    0.802E-03
DAV:  13    -0.136063928879E+04    0.68962E-06   -0.77528E-06  1608   0.663E-03
   7 F= -.13606393E+04 E0= -.13606393E+04  d E =-.830140E+00
 BRION: g(F)=  0.523E+00 g(S)=  0.000E+00 retain N=  6 mean eig= 1.65
 eig:   3.150  3.150  1.022  1.022  0.785  0.785
 bond charge predicted
       N       E                     dE             d eps       ncg     rms          rms(c)
DAV:   1    -0.136104000670E+04   -0.40072E+00   -0.73098E+01  1368   0.123E+01    0.159E+00
DAV:   2    -0.136141256057E+04   -0.37255E+00   -0.39644E+00  2280   0.462E+00    0.812E-01
DAV:   3    -0.136143339453E+04   -0.20834E-01   -0.32150E-01  2608   0.978E-01    0.660E-01
DAV:   4    -0.136142719698E+04    0.61975E-02   -0.38851E-02  2600   0.454E-01    0.419E-01
DAV:   5    -0.136142372991E+04    0.34671E-02   -0.17289E-02  2416   0.277E-01    0.177E-01
DAV:   6    -0.136142422216E+04   -0.49225E-03   -0.94946E-03  2504   0.191E-01    0.140E-01
DAV:   7    -0.136142412701E+04    0.95153E-04   -0.39136E-03  2464   0.124E-01    0.103E-01
DAV:   8    -0.136142411777E+04    0.92377E-05   -0.21335E-03  2520   0.813E-02    0.559E-02
DAV:   9    -0.136142409611E+04    0.21658E-04   -0.34961E-04  2488   0.408E-02    0.401E-02
DAV:  10    -0.136142409592E+04    0.18883E-06   -0.26219E-04  2520   0.287E-02    0.246E-02
DAV:  11    -0.136142409290E+04    0.30251E-05   -0.80063E-05  2472   0.190E-02    0.110E-02
DAV:  12    -0.136142409499E+04   -0.20949E-05   -0.34721E-05  2392   0.118E-02    0.113E-02
DAV:  13    -0.136142409357E+04    0.14262E-05   -0.16624E-05  1888   0.803E-03    0.510E-03
DAV:  14    -0.136142409363E+04   -0.66328E-07   -0.53324E-06  1408   0.548E-03
   8 F= -.13614241E+04 E0= -.13614241E+04  d E =-.784805E+00
 BRION: g(F)=  0.386E+00 g(S)=  0.000E+00 retain N=  7 mean eig= 2.23
 eig:   5.339  5.339  0.953  0.953  1.077  1.077  0.857
 bond charge predicted
       N       E                     dE             d eps       ncg     rms          rms(c)
DAV:   1    -0.136175197796E+04   -0.32788E+00   -0.72086E+01  1376   0.121E+01    0.154E+00
DAV:   2    -0.136213157412E+04   -0.37960E+00   -0.40460E+00  2288   0.472E+00    0.752E-01
DAV:   3    -0.136215411091E+04   -0.22537E-01   -0.33047E-01  2592   0.969E-01    0.612E-01
DAV:   4    -0.136214865827E+04    0.54526E-02   -0.35841E-02  2608   0.446E-01    0.407E-01
DAV:   5    -0.136214477815E+04    0.38801E-02   -0.15963E-02  2432   0.266E-01    0.167E-01
DAV:   6    -0.136214505789E+04   -0.27974E-03   -0.97235E-03  2472   0.188E-01    0.123E-01
DAV:   7    -0.136214510838E+04   -0.50499E-04   -0.39451E-03  2440   0.124E-01    0.965E-02
DAV:   8    -0.136214508942E+04    0.18960E-04   -0.16802E-03  2576   0.752E-02    0.528E-02
DAV:   9    -0.136214507337E+04    0.16055E-04   -0.37126E-04  2536   0.406E-02    0.365E-02
DAV:  10    -0.136214507703E+04   -0.36637E-05   -0.17941E-04  2576   0.252E-02    0.244E-02
DAV:  11    -0.136214507542E+04    0.16129E-05   -0.72199E-05  2416   0.178E-02    0.127E-02
DAV:  12    -0.136214507558E+04   -0.16465E-06   -0.30517E-05  2304   0.122E-02    0.109E-02
DAV:  13    -0.136214507487E+04    0.71786E-06   -0.20721E-05  1992   0.825E-03    0.539E-03
DAV:  14    -0.136214507478E+04    0.88869E-07   -0.39921E-06  1232   0.550E-03
   9 F= -.13621451E+04 E0= -.13621451E+04  d E =-.720981E+00
 BRION: g(F)=  0.328E+00 g(S)=  0.000E+00 retain N=  8 mean eig= 2.79
 eig:   7.412  7.412  1.266  1.266  1.631  1.631  0.863  0.863
 bond charge predicted
       N       E                     dE             d eps       ncg     rms          rms(c)
DAV:   1    -0.136241621468E+04   -0.27114E+00   -0.60577E+01  1384   0.111E+01    0.139E+00
DAV:   2    -0.136273917370E+04   -0.32296E+00   -0.34393E+00  2296   0.439E+00    0.683E-01
DAV:   3    -0.136275788858E+04   -0.18715E-01   -0.27544E-01  2592   0.868E-01    0.555E-01
DAV:   4    -0.136275311824E+04    0.47703E-02   -0.28523E-02  2600   0.401E-01    0.371E-01
DAV:   5    -0.136274961368E+04    0.35046E-02   -0.12991E-02  2408   0.242E-01    0.144E-01
DAV:   6    -0.136274997654E+04   -0.36286E-03   -0.85228E-03  2464   0.171E-01    0.110E-01
DAV:   7    -0.136274999883E+04   -0.22298E-04   -0.29498E-03  2448   0.106E-01    0.853E-02
DAV:   8    -0.136274998739E+04    0.11445E-04   -0.12277E-03  2584   0.641E-02    0.444E-02
DAV:   9    -0.136274997091E+04    0.16477E-04   -0.27872E-04  2416   0.352E-02    0.311E-02
DAV:  10    -0.136274997574E+04   -0.48305E-05   -0.13201E-04  2472   0.223E-02    0.214E-02
DAV:  11    -0.136274997293E+04    0.28119E-05   -0.52437E-05  2400   0.154E-02    0.959E-03
DAV:  12    -0.136274997445E+04   -0.15237E-05   -0.24185E-05  2288   0.103E-02    0.940E-03
DAV:  13    -0.136274997349E+04    0.96824E-06   -0.11035E-05  1696   0.670E-03    0.431E-03
DAV:  14    -0.136274997346E+04    0.24607E-07   -0.30976E-06  1144   0.524E-03
  10 F= -.13627500E+04 E0= -.13627500E+04  d E =-.604899E+00
 BRION: g(F)=  0.262E+00 g(S)=  0.000E+00 retain N=  7 mean eig= 3.53
 eig:   7.896  7.896  2.885  2.885  1.094  1.094  0.971
 bond charge predicted
       N       E                     dE             d eps       ncg     rms          rms(c)
DAV:   1    -0.136295151961E+04   -0.20155E+00   -0.68765E+01  1384   0.118E+01    0.144E+00
DAV:   2    -0.136332135049E+04   -0.36983E+00   -0.39438E+00  2312   0.476E+00    0.715E-01
DAV:   3    -0.136334340979E+04   -0.22059E-01   -0.31937E-01  2592   0.930E-01    0.589E-01
DAV:   4    -0.136333851053E+04    0.48993E-02   -0.31154E-02  2608   0.420E-01    0.413E-01
DAV:   5    -0.136333386694E+04    0.46436E-02   -0.14619E-02  2376   0.247E-01    0.166E-01
DAV:   6    -0.136333408663E+04   -0.21969E-03   -0.10619E-02  2392   0.191E-01    0.119E-01
DAV:   7    -0.136333415809E+04   -0.71454E-04   -0.46527E-03  2440   0.125E-01    0.957E-02
DAV:   8    -0.136333412891E+04    0.29175E-04   -0.14910E-03  2592   0.758E-02    0.523E-02
DAV:   9    -0.136333411187E+04    0.17045E-04   -0.39499E-04  2520   0.401E-02    0.354E-02
DAV:  10    -0.136333411958E+04   -0.77140E-05   -0.15475E-04  2544   0.237E-02    0.247E-02
DAV:  11    -0.136333411836E+04    0.12189E-05   -0.77647E-05  2456   0.180E-02    0.146E-02
DAV:  12    -0.136333411743E+04    0.92803E-06   -0.36425E-05  2336   0.133E-02    0.119E-02
DAV:  13    -0.136333411667E+04    0.76518E-06   -0.23107E-05  2112   0.862E-03    0.635E-03
DAV:  14    -0.136333411660E+04    0.69558E-07   -0.75432E-06  1680   0.555E-03
  11 F= -.13633341E+04 E0= -.13633341E+04  d E =-.584143E+00
 BRION: g(F)=  0.206E+00 g(S)=  0.000E+00 retain N=  5 mean eig= 3.97
 eig:   7.436  7.436  1.937  1.937  1.105
 bond charge predicted
       N       E                     dE             d eps       ncg     rms          rms(c)
DAV:   1    -0.136344026078E+04   -0.10614E+00   -0.78265E+01  1392   0.127E+01    0.150E+00
DAV:   2    -0.136386036594E+04   -0.42011E+00   -0.44788E+00  2304   0.510E+00    0.759E-01
DAV:   3    -0.136388541322E+04   -0.25047E-01   -0.36450E-01  2592   0.996E-01    0.624E-01
DAV:   4    -0.136388011030E+04    0.53029E-02   -0.34462E-02  2584   0.444E-01    0.451E-01
DAV:   5    -0.136387442810E+04    0.56822E-02   -0.16840E-02  2328   0.255E-01    0.191E-01
DAV:   6    -0.136387440784E+04    0.20257E-04   -0.12841E-02  2312   0.208E-01    0.128E-01
DAV:   7    -0.136387454684E+04   -0.13900E-03   -0.65109E-03  2408   0.144E-01    0.110E-01
DAV:   8    -0.136387449941E+04    0.47432E-04   -0.18719E-03  2576   0.864E-02    0.690E-02
DAV:   9    -0.136387446460E+04    0.34807E-04   -0.59489E-04  2544   0.475E-02    0.409E-02
DAV:  10    -0.136387447518E+04   -0.10583E-04   -0.20099E-04  2584   0.273E-02    0.273E-02
DAV:  11    -0.136387447777E+04   -0.25859E-05   -0.79308E-05  2440   0.186E-02    0.194E-02
DAV:  12    -0.136387447468E+04    0.30912E-05   -0.67553E-05  2288   0.164E-02    0.153E-02
DAV:  13    -0.136387447322E+04    0.14611E-05   -0.31530E-05  2256   0.109E-02    0.949E-03
DAV:  14    -0.136387447274E+04    0.47417E-06   -0.13255E-05  1792   0.654E-03    0.349E-03
DAV:  15    -0.136387447269E+04    0.55807E-07   -0.12001E-06   952   0.406E-03
  12 F= -.13638745E+04 E0= -.13638745E+04  d E =-.540356E+00
 BRION: g(F)=  0.168E+00 g(S)=  0.000E+00 retain N=  3 mean eig= 3.80
 eig:   5.003  5.003  1.389
 bond charge predicted
       N       E                     dE             d eps       ncg     rms          rms(c)
DAV:   1    -0.136392590244E+04   -0.51430E-01   -0.75041E+01  1376   0.124E+01    0.149E+00
DAV:   2    -0.136432123161E+04   -0.39533E+00   -0.41988E+00  2304   0.486E+00    0.752E-01
DAV:   3    -0.136434351223E+04   -0.22281E-01   -0.33684E-01  2576   0.959E-01    0.607E-01
DAV:   4    -0.136433736663E+04    0.61456E-02   -0.34854E-02  2568   0.433E-01    0.409E-01
DAV:   5    -0.136433272956E+04    0.46371E-02   -0.15794E-02  2376   0.253E-01    0.161E-01
DAV:   6    -0.136433299989E+04   -0.27033E-03   -0.99334E-03  2384   0.181E-01    0.111E-01
DAV:   7    -0.136433305921E+04   -0.59315E-04   -0.40007E-03  2376   0.116E-01    0.859E-02
DAV:   8    -0.136433304776E+04    0.11440E-04   -0.13280E-03  2608   0.700E-02    0.493E-02
DAV:   9    -0.136433304052E+04    0.72439E-05   -0.35047E-04  2552   0.384E-02    0.352E-02
DAV:  10    -0.136433304525E+04   -0.47303E-05   -0.13657E-04  2568   0.229E-02    0.243E-02
DAV:  11    -0.136433304279E+04    0.24600E-05   -0.73194E-05  2496   0.170E-02    0.118E-02
DAV:  12    -0.136433304306E+04   -0.26841E-06   -0.29122E-05  2320   0.118E-02    0.981E-03
DAV:  13    -0.136433304254E+04    0.52320E-06   -0.14463E-05  1872   0.719E-03    0.517E-03
DAV:  14    -0.136433304253E+04    0.36671E-08   -0.56152E-06  1464   0.555E-03
  13 F= -.13643330E+04 E0= -.13643330E+04  d E =-.458570E+00
 BRION: g(F)=  0.135E+00 g(S)=  0.000E+00 retain N=  3 mean eig= 5.07
 eig:   6.675  6.675  1.859
 bond charge predicted
       N       E                     dE             d eps       ncg     rms          rms(c)
DAV:   1    -0.136441477911E+04   -0.81737E-01   -0.33746E+01  1384   0.836E+00    0.101E+00
DAV:   2    -0.136459082546E+04   -0.17605E+00   -0.18711E+00  2312   0.331E+00    0.519E-01
DAV:   3    -0.136460106724E+04   -0.10242E-01   -0.15126E-01  2576   0.645E-01    0.419E-01
DAV:   4    -0.136459853493E+04    0.25323E-02   -0.15410E-02  2560   0.292E-01    0.290E-01
DAV:   5    -0.136459645709E+04    0.20778E-02   -0.82714E-03  2312   0.177E-01    0.114E-01
DAV:   6    -0.136459665318E+04   -0.19609E-03   -0.47069E-03  2384   0.129E-01    0.934E-02
DAV:   7    -0.136459662782E+04    0.25362E-04   -0.22336E-03  2368   0.864E-02    0.650E-02
DAV:   8    -0.136459662529E+04    0.25311E-05   -0.88722E-04  2600   0.564E-02    0.426E-02
DAV:   9    -0.136459661389E+04    0.11405E-04   -0.17321E-04  2552   0.284E-02    0.294E-02
DAV:  10    -0.136459661328E+04    0.61018E-06   -0.96383E-05  2536   0.174E-02    0.159E-02
DAV:  11    -0.136459661417E+04   -0.89886E-06   -0.29891E-05  2384   0.118E-02    0.972E-03
DAV:  12    -0.136459661364E+04    0.52981E-06   -0.14888E-05  2024   0.870E-03    0.742E-03
DAV:  13    -0.136459661338E+04    0.26812E-06   -0.86516E-06  1728   0.592E-03
  14 F= -.13645966E+04 E0= -.13645966E+04  d E =-.263571E+00
 BRION: g(F)=  0.114E+00 g(S)=  0.000E+00 retain N=  3 mean eig= 5.25
 eig:   6.961  6.961  1.841
 bond charge predicted
       N       E                     dE             d eps       ncg     rms          rms(c)
DAV:   1    -0.136468148997E+04   -0.84876E-01   -0.20292E+01  1376   0.643E+00    0.748E-01
DAV:   2    -0.136478431402E+04   -0.10282E+00   -0.10847E+00  2304   0.252E+00    0.381E-01
DAV:   3    -0.136479004464E+04   -0.57306E-02   -0.84988E-02  2576   0.493E-01    0.303E-01
DAV:   4    -0.136478859811E+04    0.14465E-02   -0.81891E-03  2568   0.213E-01    0.211E-01
DAV:   5    -0.136478736981E+04    0.12283E-02   -0.47237E-03  2272   0.136E-01    0.811E-02
DAV:   6    -0.136478749963E+04   -0.12982E-03   -0.27757E-03  2408   0.974E-02    0.684E-02
DAV:   7    -0.136478749243E+04    0.71958E-05   -0.10793E-03  2432   0.601E-02    0.469E-02
DAV:   8    -0.136478748435E+04    0.80792E-05   -0.40561E-04  2536   0.386E-02    0.267E-02
DAV:   9    -0.136478748119E+04    0.31670E-05   -0.84157E-05  2480   0.197E-02    0.192E-02
DAV:  10    -0.136478748137E+04   -0.18821E-06   -0.41520E-05  2544   0.123E-02    0.107E-02
DAV:  11    -0.136478748130E+04    0.74127E-07   -0.14639E-05  2008   0.859E-03    0.518E-03
DAV:  12    -0.136478748150E+04   -0.19978E-06   -0.58930E-06  1584   0.579E-03
  15 F= -.13647875E+04 E0= -.13647875E+04  d E =-.190868E+00
 BRION: g(F)=  0.101E+00 g(S)=  0.000E+00 retain N=  3 mean eig= 4.47
 eig:   5.924  5.924  1.564
 bond charge predicted
       N       E                     dE             d eps       ncg     rms          rms(c)
DAV:   1    -0.136485194228E+04   -0.64461E-01   -0.28136E+01  1376   0.759E+00    0.856E-01
DAV:   2    -0.136499405295E+04   -0.14211E+00   -0.14920E+00  2304   0.297E+00    0.441E-01
DAV:   3    -0.136500236047E+04   -0.83075E-02   -0.11773E-01  2592   0.566E-01    0.352E-01
DAV:   4    -0.136500074885E+04    0.16116E-02   -0.10367E-02  2600   0.242E-01    0.260E-01
DAV:   5    -0.136499876787E+04    0.19810E-02   -0.55636E-03  2312   0.158E-01    0.109E-01
DAV:   6    -0.136499881606E+04   -0.48197E-04   -0.46335E-03  2352   0.128E-01    0.771E-02
DAV:   7    -0.136499885042E+04   -0.34361E-04   -0.18725E-03  2400   0.785E-02    0.631E-02
DAV:   8    -0.136499883024E+04    0.20179E-04   -0.54086E-04  2592   0.469E-02    0.368E-02
DAV:   9    -0.136499881686E+04    0.13386E-04   -0.20776E-04  2488   0.276E-02    0.203E-02
DAV:  10    -0.136499882166E+04   -0.48007E-05   -0.65506E-05  2496   0.167E-02    0.151E-02
DAV:  11    -0.136499882006E+04    0.16002E-05   -0.22167E-05  2200   0.104E-02    0.772E-03
DAV:  12    -0.136499882034E+04   -0.27998E-06   -0.12440E-05  1792   0.777E-03    0.691E-03
DAV:  13    -0.136499881974E+04    0.59893E-06   -0.40910E-06  1232   0.545E-03
  16 F= -.13649988E+04 E0= -.13649988E+04  d E =-.211338E+00
 BRION: g(F)=  0.923E-01 g(S)=  0.000E+00 retain N=  3 mean eig= 3.87
 eig:   5.103  5.103  1.397
 bond charge predicted
       N       E                     dE             d eps       ncg     rms          rms(c)
DAV:   1    -0.136505226078E+04   -0.53440E-01   -0.27829E+01  1368   0.753E+00    0.860E-01
DAV:   2    -0.136519379187E+04   -0.14153E+00   -0.14878E+00  2320   0.297E+00    0.441E-01
DAV:   3    -0.136520185669E+04   -0.80648E-02   -0.11507E-01  2576   0.563E-01    0.350E-01
DAV:   4    -0.136520021134E+04    0.16453E-02   -0.10517E-02  2592   0.245E-01    0.255E-01
DAV:   5    -0.136519847014E+04    0.17412E-02   -0.59441E-03  2344   0.156E-01    0.105E-01
DAV:   6    -0.136519857481E+04   -0.10467E-03   -0.40294E-03  2368   0.118E-01    0.814E-02
DAV:   7    -0.136519857757E+04   -0.27620E-05   -0.17495E-03  2448   0.766E-02    0.608E-02
DAV:   8    -0.136519856073E+04    0.16844E-04   -0.62985E-04  2568   0.491E-02    0.363E-02
DAV:   9    -0.136519855110E+04    0.96328E-05   -0.16941E-04  2496   0.260E-02    0.226E-02
DAV:  10    -0.136519855305E+04   -0.19524E-05   -0.62385E-05  2512   0.152E-02    0.143E-02
DAV:  11    -0.136519855269E+04    0.36143E-06   -0.20957E-05  2216   0.100E-02    0.795E-03
DAV:  12    -0.136519855261E+04    0.82306E-07   -0.11146E-05  1792   0.739E-03    0.654E-03
DAV:  13    -0.136519855225E+04    0.35630E-06   -0.51474E-06  1392   0.530E-03
  17 F= -.13651986E+04 E0= -.13651986E+04  d E =-.199733E+00
 BRION: g(F)=  0.819E-01 g(S)=  0.000E+00 retain N=  3 mean eig= 4.07
 eig:   5.425  5.425  1.347
 bond charge predicted
       N       E                     dE             d eps       ncg     rms          rms(c)
DAV:   1    -0.136526569666E+04   -0.67144E-01   -0.17476E+01  1368   0.595E+00    0.661E-01
DAV:   2    -0.136535391170E+04   -0.88215E-01   -0.92426E-01  2304   0.235E+00    0.337E-01
DAV:   3    -0.136535903042E+04   -0.51187E-02   -0.71102E-02  2592   0.445E-01    0.269E-01
DAV:   4    -0.136535814995E+04    0.88047E-03   -0.60117E-03  2592   0.186E-01    0.203E-01
DAV:   5    -0.136535691055E+04    0.12394E-02   -0.34260E-03  2328   0.126E-01    0.880E-02
DAV:   6    -0.136535693434E+04   -0.23785E-04   -0.30988E-03  2312   0.104E-01    0.640E-02
DAV:   7    -0.136535695156E+04   -0.17228E-04   -0.12070E-03  2424   0.643E-02    0.523E-02
DAV:   8    -0.136535693929E+04    0.12276E-04   -0.36238E-04  2528   0.380E-02    0.291E-02
DAV:   9    -0.136535692750E+04    0.11788E-04   -0.14242E-04  2344   0.231E-02    0.153E-02
DAV:  10    -0.136535693157E+04   -0.40669E-05   -0.46175E-05  2392   0.138E-02    0.130E-02
DAV:  11    -0.136535692950E+04    0.20710E-05   -0.15163E-05  1792   0.888E-03    0.585E-03
DAV:  12    -0.136535692990E+04   -0.40802E-06   -0.86190E-06  1736   0.689E-03
  18 F= -.13653569E+04 E0= -.13653569E+04  d E =-.158378E+00
 BRION: g(F)=  0.748E-01 g(S)=  0.000E+00 retain N=  3 mean eig= 4.51
 eig:   6.040  6.040  1.463
 bond charge predicted
       N       E                     dE             d eps       ncg     rms          rms(c)
DAV:   1    -0.136542392996E+04   -0.67000E-01   -0.20990E+01  1368   0.651E+00    0.732E-01
DAV:   2    -0.136553003827E+04   -0.10611E+00   -0.11120E+00  2312   0.258E+00    0.372E-01
DAV:   3    -0.136553630108E+04   -0.62628E-02   -0.85651E-02  2584   0.487E-01    0.297E-01
DAV:   4    -0.136553527590E+04    0.10252E-02   -0.73576E-03  2616   0.204E-01    0.223E-01
DAV:   5    -0.136553385169E+04    0.14242E-02   -0.41498E-03  2312   0.140E-01    0.948E-02
DAV:   6    -0.136553392947E+04   -0.77779E-04   -0.36319E-03  2320   0.112E-01    0.734E-02
DAV:   7    -0.136553393049E+04   -0.10232E-05   -0.13190E-03  2440   0.683E-02    0.579E-02
DAV:   8    -0.136553391463E+04    0.15855E-04   -0.46731E-04  2528   0.421E-02    0.317E-02
DAV:   9    -0.136553390117E+04    0.13463E-04   -0.15333E-04  2272   0.243E-02    0.175E-02
DAV:  10    -0.136553390539E+04   -0.42191E-05   -0.54821E-05  2360   0.144E-02    0.138E-02
DAV:  11    -0.136553390343E+04    0.19585E-05   -0.15296E-05  1864   0.897E-03    0.692E-03
DAV:  12    -0.136553390377E+04   -0.33609E-06   -0.10685E-05  1728   0.716E-03    0.579E-03
DAV:  13    -0.136553390330E+04    0.46345E-06   -0.18385E-06   992   0.466E-03
  19 F= -.13655339E+04 E0= -.13655339E+04  d E =-.176973E+00
 BRION: g(F)=  0.705E-01 g(S)=  0.000E+00 retain N=  3 mean eig= 4.69
 eig:   6.207  6.207  1.643
 bond charge predicted
       N       E                     dE             d eps       ncg     rms          rms(c)
DAV:   1    -0.136559475708E+04   -0.60853E-01   -0.24588E+01  1368   0.703E+00    0.783E-01
DAV:   2    -0.136571982742E+04   -0.12507E+00   -0.13140E+00  2320   0.279E+00    0.398E-01
DAV:   3    -0.136572725064E+04   -0.74232E-02   -0.10181E-01  2576   0.525E-01    0.320E-01
DAV:   4    -0.136572609415E+04    0.11565E-02   -0.87719E-03  2608   0.223E-01    0.243E-01
DAV:   5    -0.136572438703E+04    0.17071E-02   -0.49023E-03  2320   0.150E-01    0.108E-01
DAV:   6    -0.136572439507E+04   -0.80467E-05   -0.44293E-03  2312   0.126E-01    0.807E-02
DAV:   7    -0.136572441276E+04   -0.17690E-04   -0.19161E-03  2416   0.813E-02    0.649E-02
DAV:   8    -0.136572439370E+04    0.19068E-04   -0.58151E-04  2552   0.483E-02    0.369E-02
DAV:   9    -0.136572437689E+04    0.16801E-04   -0.21594E-04  2448   0.280E-02    0.194E-02
DAV:  10    -0.136572438263E+04   -0.57347E-05   -0.69971E-05  2456   0.166E-02    0.155E-02
DAV:  11    -0.136572438101E+04    0.16160E-05   -0.24430E-05  2080   0.107E-02    0.905E-03
DAV:  12    -0.136572438098E+04    0.30021E-07   -0.12362E-05  1784   0.804E-03    0.794E-03
DAV:  13    -0.136572438045E+04    0.53551E-06   -0.77075E-06  1576   0.563E-03
  20 F= -.13657244E+04 E0= -.13657244E+04  d E =-.190477E+00
 BRION: g(F)=  0.665E-01 g(S)=  0.000E+00 retain N=  3 mean eig= 5.23
 eig:   6.935  6.935  1.832
