 running on  160 total cores
 distrk:  each k-point on  160 cores,    1 groups
 distr:  one band on   20 cores,    8 groups
 using from now: INCAR     
 vasp.5.4.4.18Apr17-6-g9f103f2a35 (build May 01 2020 14:22:42) gamma-only       
  
 POSCAR found type information on POSCAR  O  La Zr Li Al
 POSCAR found :  5 types and     188 ions
 scaLAPACK will be used
 LDA part: xc-table for Pade appr. of Perdew
 POSCAR, INCAR and KPOINTS ok, starting setup
 FFT: planning ...
 WAVECAR not read
 WARNING: random wavefunctions but no delay for mixing, default for NELMDL
 entering main loop
       N       E                     dE             d eps       ncg     rms          rms(c)
DAV:   1     0.253004795425E+05    0.25300E+05   -0.42125E+05  1600   0.253E+03
DAV:   2     0.938323230830E+04   -0.15917E+05   -0.14714E+05  1416   0.706E+02
DAV:   3     0.265795746408E+04   -0.67253E+04   -0.61295E+04  1496   0.356E+02
DAV:   4    -0.368347269643E+03   -0.30263E+04   -0.28296E+04  2032   0.224E+02
DAV:   5    -0.140002591685E+04   -0.10317E+04   -0.99582E+03  2528   0.141E+02    0.117E+02
DAV:   6    -0.128813597864E+04    0.11189E+03   -0.14632E+03  2448   0.667E+01    0.500E+01
DAV:   7    -0.131158990879E+04   -0.23454E+02   -0.40200E+02  2560   0.346E+01    0.294E+01
DAV:   8    -0.131460200959E+04   -0.30121E+01   -0.20073E+02  2528   0.234E+01    0.210E+01
DAV:   9    -0.131757063126E+04   -0.29686E+01   -0.46623E+01  2576   0.135E+01    0.165E+01
DAV:  10    -0.131391972830E+04    0.36509E+01   -0.23379E+01  2576   0.855E+00    0.810E+00
DAV:  11    -0.131321236618E+04    0.70736E+00   -0.79000E+00  2584   0.574E+00    0.514E+00
DAV:  12    -0.131327307312E+04   -0.60707E-01   -0.46635E+00  2560   0.365E+00    0.690E+00
DAV:  13    -0.131316501363E+04    0.10806E+00   -0.11708E+00  2496   0.215E+00    0.323E+00
DAV:  14    -0.131304601240E+04    0.11900E+00   -0.92935E-01  2552   0.159E+00    0.142E+00
DAV:  15    -0.131303473705E+04    0.11275E-01   -0.38647E-01  2480   0.106E+00    0.118E+00
DAV:  16    -0.131304103676E+04   -0.62997E-02   -0.14386E-01  2480   0.712E-01    0.177E+00
DAV:  17    -0.131302106183E+04    0.19975E-01   -0.44066E-02  2464   0.374E-01    0.556E-01
DAV:  18    -0.131302262822E+04   -0.15664E-02   -0.20314E-02  2544   0.231E-01    0.424E-01
DAV:  19    -0.131302171707E+04    0.91115E-03   -0.58499E-03  2400   0.149E-01    0.276E-01
DAV:  20    -0.131302117377E+04    0.54329E-03   -0.29923E-03  2544   0.972E-02    0.873E-02
DAV:  21    -0.131302125105E+04   -0.77275E-04   -0.83164E-04  2576   0.558E-02    0.105E-01
DAV:  22    -0.131302117675E+04    0.74304E-04   -0.31534E-04  2600   0.301E-02    0.360E-02
DAV:  23    -0.131302118190E+04   -0.51511E-05   -0.10317E-04  2576   0.193E-02    0.334E-02
DAV:  24    -0.131302117958E+04    0.23120E-05   -0.38038E-05  2240   0.109E-02    0.611E-03
DAV:  25    -0.131302118062E+04   -0.10406E-05   -0.68171E-06  1384   0.620E-03    0.350E-03
DAV:  26    -0.131302118055E+04    0.76645E-07   -0.22900E-06   944   0.439E-03
   1 F= -.13130212E+04 E0= -.13129334E+04  d E =-.131302E+04
 BRION: g(F)=  0.849E+02 g(S)=  0.000E+00
 bond charge predicted
       N       E                     dE             d eps       ncg     rms          rms(c)
DAV:   1    -0.125473253873E+04    0.58289E+02   -0.10501E+04  1744   0.155E+02    0.389E+01
DAV:   2    -0.134398844430E+04   -0.89256E+02   -0.10182E+03  2576   0.732E+01    0.179E+01
DAV:   3    -0.134120254447E+04    0.27859E+01   -0.58123E+01  2624   0.193E+01    0.115E+01
DAV:   4    -0.133804397276E+04    0.31586E+01   -0.20284E+01  2408   0.100E+01    0.531E+00
DAV:   5    -0.133794848988E+04    0.95483E-01   -0.70275E+00  2552   0.560E+00    0.384E+00
DAV:   6    -0.133783470335E+04    0.11379E+00   -0.33846E+00  2608   0.324E+00    0.196E+00
DAV:   7    -0.133777493999E+04    0.59763E-01   -0.44389E-01  2496   0.195E+00    0.107E+00
DAV:   8    -0.133779013958E+04   -0.15200E-01   -0.60578E-01  2504   0.132E+00    0.960E-01
DAV:   9    -0.133778724388E+04    0.28957E-02   -0.91058E-02  2528   0.637E-01    0.697E-01
DAV:  10    -0.133778358022E+04    0.36637E-02   -0.53688E-02  2552   0.384E-01    0.308E-01
DAV:  11    -0.133778494594E+04   -0.13657E-02   -0.28831E-02  2560   0.294E-01    0.237E-01
DAV:  12    -0.133778451146E+04    0.43449E-03   -0.51153E-03  2352   0.166E-01    0.178E-01
DAV:  13    -0.133778434922E+04    0.16224E-03   -0.49756E-03  2376   0.109E-01    0.470E-02
DAV:  14    -0.133778440124E+04   -0.52020E-04   -0.66161E-04  2560   0.543E-02    0.327E-02
DAV:  15    -0.133778440627E+04   -0.50370E-05   -0.12393E-04  2488   0.251E-02    0.182E-02
DAV:  16    -0.133778440688E+04   -0.61149E-06   -0.46131E-05  2568   0.135E-02    0.125E-02
DAV:  17    -0.133778440719E+04   -0.30683E-06   -0.17664E-05  2192   0.862E-03    0.688E-03
DAV:  18    -0.133778440686E+04    0.33242E-06   -0.43239E-06  1320   0.526E-03
   2 F= -.13377844E+04 E0= -.13377844E+04  d E =-.247632E+02
 BRION: g(F)=  0.817E+02 g(S)=  0.000E+00 retain N=  1 mean eig= 0.51
 eig:   0.506
 bond charge predicted
       N       E                     dE             d eps       ncg     rms          rms(c)
DAV:   1    -0.131596645730E+04    0.21818E+02   -0.38264E+03  1376   0.844E+01    0.224E+01
DAV:   2    -0.135198160469E+04   -0.36015E+02   -0.43357E+02  2544   0.395E+01    0.207E+01
DAV:   3    -0.135047478037E+04    0.15068E+01   -0.28437E+01  2608   0.128E+01    0.161E+01
DAV:   4    -0.134860496956E+04    0.18698E+01   -0.25710E+01  2160   0.740E+00    0.790E+00
DAV:   5    -0.134913685397E+04   -0.53188E+00   -0.86062E+00  2360   0.516E+00    0.840E+00
DAV:   6    -0.134795057331E+04    0.11863E+01   -0.93189E+00  2424   0.434E+00    0.174E+00
DAV:   7    -0.134802565943E+04   -0.75086E-01   -0.14004E+00  2424   0.255E+00    0.866E-01
DAV:   8    -0.134803844512E+04   -0.12786E-01   -0.22076E-01  2624   0.897E-01    0.575E-01
DAV:   9    -0.134803655405E+04    0.18911E-02   -0.47665E-02  2624   0.489E-01    0.353E-01
DAV:  10    -0.134803759660E+04   -0.10426E-02   -0.20610E-02  2624   0.272E-01    0.197E-01
DAV:  11    -0.134803748341E+04    0.11319E-03   -0.49848E-03  2608   0.167E-01    0.128E-01
DAV:  12    -0.134803758289E+04   -0.99483E-04   -0.42238E-03  2360   0.107E-01    0.895E-02
DAV:  13    -0.134803751648E+04    0.66416E-04   -0.94989E-04  2560   0.690E-02    0.567E-02
DAV:  14    -0.134803750416E+04    0.12322E-04   -0.74944E-04  2520   0.460E-02    0.250E-02
DAV:  15    -0.134803750984E+04   -0.56816E-05   -0.11857E-04  2536   0.243E-02    0.176E-02
DAV:  16    -0.134803750851E+04    0.13252E-05   -0.50672E-05  2480   0.128E-02    0.736E-03
DAV:  17    -0.134803750944E+04   -0.92805E-06   -0.15413E-05  2136   0.863E-03    0.339E-03
DAV:  18    -0.134803750982E+04   -0.38148E-06   -0.19873E-06  1064   0.423E-03
   3 F= -.13480375E+04 E0= -.13480375E+04  d E =-.102531E+02
 BRION: g(F)=  0.149E+02 g(S)=  0.000E+00 retain N=  2 mean eig= 1.35
 eig:   0.357  2.351
 bond charge predicted
       N       E                     dE             d eps       ncg     rms          rms(c)
DAV:   1    -0.134866719373E+04   -0.62968E+00   -0.57092E+02  1352   0.304E+01    0.662E+00
DAV:   2    -0.135215733523E+04   -0.34901E+01   -0.39428E+01  2368   0.130E+01    0.351E+00
DAV:   3    -0.135211764948E+04    0.39686E-01   -0.24993E+00  2536   0.382E+00    0.289E+00
DAV:   4    -0.135199226473E+04    0.12538E+00   -0.10570E+00  2296   0.176E+00    0.136E+00
DAV:   5    -0.135199823355E+04   -0.59688E-02   -0.34877E-01  2480   0.109E+00    0.138E+00
DAV:   6    -0.135197056359E+04    0.27670E-01   -0.26496E-01  2496   0.913E-01    0.518E-01
DAV:   7    -0.135197269276E+04   -0.21292E-02   -0.78295E-02  2480   0.501E-01    0.465E-01
DAV:   8    -0.135197158237E+04    0.11104E-02   -0.16842E-02  2600   0.238E-01    0.317E-01
DAV:   9    -0.135196995359E+04    0.16288E-02   -0.93053E-03  2344   0.165E-01    0.122E-01
DAV:  10    -0.135197055102E+04   -0.59743E-03   -0.88009E-03  2480   0.140E-01    0.144E-01
DAV:  11    -0.135197016871E+04    0.38231E-03   -0.16819E-03  2520   0.884E-02    0.526E-02
DAV:  12    -0.135197021890E+04   -0.50193E-04   -0.88097E-04  2448   0.472E-02    0.276E-02
DAV:  13    -0.135197022372E+04   -0.48243E-05   -0.92177E-05  2568   0.202E-02    0.206E-02
DAV:  14    -0.135197021840E+04    0.53274E-05   -0.31391E-05  2440   0.114E-02    0.111E-02
DAV:  15    -0.135197021862E+04   -0.22622E-06   -0.21931E-05  2248   0.826E-03    0.352E-03
DAV:  16    -0.135197021854E+04    0.86380E-07   -0.13661E-06  1056   0.401E-03
   4 F= -.13519702E+04 E0= -.13519702E+04  d E =-.393271E+01
 BRION: g(F)=  0.578E+01 g(S)=  0.000E+00 retain N=  3 mean eig= 1.74
 eig:   4.462  0.381  0.381
 bond charge predicted
       N       E                     dE             d eps       ncg     rms          rms(c)
DAV:   1    -0.135329184647E+04   -0.13216E+01   -0.22446E+02  1352   0.204E+01    0.341E+00
DAV:   2    -0.135441359301E+04   -0.11217E+01   -0.12187E+01  2320   0.773E+00    0.187E+00
DAV:   3    -0.135442048134E+04   -0.68883E-02   -0.80698E-01  2592   0.168E+00    0.150E+00
DAV:   4    -0.135437497483E+04    0.45507E-01   -0.25400E-01  2480   0.987E-01    0.675E-01
DAV:   5    -0.135437144624E+04    0.35286E-02   -0.82713E-02  2464   0.587E-01    0.514E-01
DAV:   6    -0.135436990901E+04    0.15372E-02   -0.62919E-02  2512   0.431E-01    0.225E-01
DAV:   7    -0.135437012916E+04   -0.22014E-03   -0.13526E-02  2384   0.222E-01    0.192E-01
DAV:   8    -0.135436995125E+04    0.17791E-03   -0.43717E-03  2368   0.110E-01    0.870E-02
DAV:   9    -0.135436999158E+04   -0.40328E-04   -0.21074E-03  2568   0.756E-02    0.657E-02
DAV:  10    -0.135436997821E+04    0.13365E-04   -0.50857E-04  2464   0.452E-02    0.483E-02
DAV:  11    -0.135436997042E+04    0.77952E-05   -0.40207E-04  2504   0.325E-02    0.204E-02
DAV:  12    -0.135436997193E+04   -0.15060E-05   -0.90176E-05  2464   0.181E-02    0.119E-02
DAV:  13    -0.135436997275E+04   -0.82179E-06   -0.26073E-05  2288   0.101E-02    0.737E-03
DAV:  14    -0.135436997294E+04   -0.19388E-06   -0.10401E-05  1768   0.622E-03    0.477E-03
DAV:  15    -0.135436997273E+04    0.21065E-06   -0.26020E-06  1096   0.488E-03
   5 F= -.13543700E+04 E0= -.13543700E+04  d E =-.239975E+01
 BRION: g(F)=  0.237E+01 g(S)=  0.000E+00 retain N=  4 mean eig= 1.60
 eig:   4.891  0.553  0.488  0.488
 bond charge predicted
       N       E                     dE             d eps       ncg     rms          rms(c)
DAV:   1    -0.135511328690E+04   -0.74331E+00   -0.18495E+02  1368   0.185E+01    0.301E+00
DAV:   2    -0.135596737317E+04   -0.85409E+00   -0.90868E+00  2280   0.674E+00    0.144E+00
DAV:   3    -0.135598388536E+04   -0.16512E-01   -0.59720E-01  2600   0.139E+00    0.115E+00
DAV:   4    -0.135595630189E+04    0.27583E-01   -0.14217E-01  2480   0.766E-01    0.541E-01
DAV:   5    -0.135595465233E+04    0.16496E-02   -0.49812E-02  2472   0.434E-01    0.340E-01
DAV:   6    -0.135595458639E+04    0.65937E-04   -0.27868E-02  2584   0.288E-01    0.157E-01
DAV:   7    -0.135595458492E+04    0.14657E-05   -0.50074E-03  2440   0.147E-01    0.126E-01
DAV:   8    -0.135595455773E+04    0.27195E-04   -0.21086E-03  2376   0.758E-02    0.590E-02
DAV:   9    -0.135595456310E+04   -0.53661E-05   -0.87712E-04  2592   0.529E-02    0.407E-02
DAV:  10    -0.135595456368E+04   -0.58566E-06   -0.23530E-04  2504   0.309E-02    0.323E-02
DAV:  11    -0.135595455862E+04    0.50637E-05   -0.17065E-04  2528   0.226E-02    0.136E-02
DAV:  12    -0.135595455977E+04   -0.11548E-05   -0.39585E-05  2408   0.125E-02    0.787E-03
DAV:  13    -0.135595456000E+04   -0.23220E-06   -0.92403E-06  1632   0.705E-03
   6 F= -.13559546E+04 E0= -.13559546E+04  d E =-.158459E+01
 BRION: g(F)=  0.124E+01 g(S)=  0.000E+00 retain N=  5 mean eig= 1.71
 eig:   3.303  3.303  0.693  0.693  0.559
 bond charge predicted
       N       E                     dE             d eps       ncg     rms          rms(c)
DAV:   1    -0.135613876942E+04   -0.18421E+00   -0.29732E+02  1368   0.244E+01    0.343E+00
DAV:   2    -0.135756355759E+04   -0.14248E+01   -0.14987E+01  2296   0.884E+00    0.166E+00
DAV:   3    -0.135762214519E+04   -0.58588E-01   -0.10849E+00  2608   0.180E+00    0.130E+00
DAV:   4    -0.135759055320E+04    0.31592E-01   -0.16914E-01  2552   0.911E-01    0.692E-01
DAV:   5    -0.135758484537E+04    0.57078E-02   -0.65007E-02  2504   0.508E-01    0.344E-01
DAV:   6    -0.135758584555E+04   -0.10002E-02   -0.26428E-02  2600   0.310E-01    0.199E-01
DAV:   7    -0.135758576281E+04    0.82735E-04   -0.74248E-03  2296   0.178E-01    0.134E-01
DAV:   8    -0.135758587049E+04   -0.10767E-03   -0.32679E-03  2376   0.981E-02    0.820E-02
DAV:   9    -0.135758581156E+04    0.58922E-04   -0.66805E-04  2600   0.585E-02    0.539E-02
DAV:  10    -0.135758582735E+04   -0.15788E-04   -0.78343E-04  2576   0.468E-02    0.379E-02
DAV:  11    -0.135758581509E+04    0.12258E-04   -0.18459E-04  2504   0.291E-02    0.153E-02
DAV:  12    -0.135758581914E+04   -0.40424E-05   -0.68783E-05  2528   0.157E-02    0.104E-02
DAV:  13    -0.135758581885E+04    0.28568E-06   -0.12912E-05  1936   0.838E-03    0.553E-03
DAV:  14    -0.135758581904E+04   -0.18947E-06   -0.60249E-06  1432   0.581E-03
   7 F= -.13575858E+04 E0= -.13575858E+04  d E =-.163126E+01
 BRION: g(F)=  0.947E+00 g(S)=  0.000E+00 retain N=  6 mean eig= 1.71
 eig:   3.562  3.562  0.988  0.988  0.590  0.590
 bond charge predicted
       N       E                     dE             d eps       ncg     rms          rms(c)
DAV:   1    -0.135798033772E+04   -0.39452E+00   -0.57585E+01  1376   0.105E+01    0.170E+00
DAV:   2    -0.135825638188E+04   -0.27604E+00   -0.29489E+00  2288   0.393E+00    0.799E-01
DAV:   3    -0.135826638237E+04   -0.10000E-01   -0.21725E-01  2624   0.803E-01    0.629E-01
DAV:   4    -0.135825948392E+04    0.68985E-02   -0.37911E-02  2512   0.419E-01    0.314E-01
DAV:   5    -0.135825867430E+04    0.80962E-03   -0.14968E-02  2480   0.242E-01    0.177E-01
DAV:   6    -0.135825875376E+04   -0.79461E-04   -0.64995E-03  2576   0.149E-01    0.101E-01
DAV:   7    -0.135825871933E+04    0.34432E-04   -0.16932E-03  2528   0.822E-02    0.690E-02
DAV:   8    -0.135825872184E+04   -0.25077E-05   -0.64542E-04  2592   0.461E-02    0.408E-02
DAV:   9    -0.135825870539E+04    0.16451E-04   -0.18995E-04  2576   0.288E-02    0.219E-02
DAV:  10    -0.135825871220E+04   -0.68101E-05   -0.12477E-04  2456   0.192E-02    0.182E-02
DAV:  11    -0.135825870873E+04    0.34722E-05   -0.37300E-05  2400   0.129E-02    0.695E-03
DAV:  12    -0.135825870942E+04   -0.69586E-06   -0.13625E-05  1840   0.743E-03    0.520E-03
DAV:  13    -0.135825870936E+04    0.67492E-07   -0.19577E-06  1048   0.466E-03
   8 F= -.13582587E+04 E0= -.13582587E+04  d E =-.672890E+00
 BRION: g(F)=  0.572E+00 g(S)=  0.000E+00 retain N=  7 mean eig= 1.84
 eig:   3.612  3.612  1.905  1.905  0.619  0.619  0.583
 bond charge predicted
       N       E                     dE             d eps       ncg     rms          rms(c)
DAV:   1    -0.135858354856E+04   -0.32484E+00   -0.11941E+02  1376   0.157E+01    0.195E+00
DAV:   2    -0.135917295914E+04   -0.58941E+00   -0.62383E+00  2264   0.588E+00    0.998E-01
DAV:   3    -0.135920583859E+04   -0.32879E-01   -0.49548E-01  2616   0.122E+00    0.796E-01
DAV:   4    -0.135919680974E+04    0.90288E-02   -0.55979E-02  2600   0.551E-01    0.510E-01
DAV:   5    -0.135919204942E+04    0.47603E-02   -0.27861E-02  2384   0.329E-01    0.209E-01
DAV:   6    -0.135919276885E+04   -0.71943E-03   -0.12683E-02  2536   0.221E-01    0.169E-01
DAV:   7    -0.135919266082E+04    0.10803E-03   -0.55772E-03  2504   0.142E-01    0.108E-01
DAV:   8    -0.135919265788E+04    0.29359E-05   -0.22108E-03  2584   0.890E-02    0.649E-02
DAV:   9    -0.135919263297E+04    0.24910E-04   -0.36642E-04  2528   0.431E-02    0.466E-02
DAV:  10    -0.135919263362E+04   -0.65021E-06   -0.34214E-04  2400   0.315E-02    0.255E-02
DAV:  11    -0.135919263146E+04    0.21692E-05   -0.90773E-05  2520   0.219E-02    0.102E-02
DAV:  12    -0.135919263429E+04   -0.28385E-05   -0.37095E-05  2400   0.122E-02    0.106E-02
DAV:  13    -0.135919263311E+04    0.11847E-05   -0.10400E-05  1744   0.704E-03    0.521E-03
DAV:  14    -0.135919263318E+04   -0.73982E-07   -0.59964E-06  1488   0.558E-03
   9 F= -.13591926E+04 E0= -.13591926E+04  d E =-.933924E+00
 BRION: g(F)=  0.400E+00 g(S)=  0.000E+00 retain N=  8 mean eig= 2.36
 eig:   4.105  4.105  3.854  3.854  0.770  0.770  0.621  0.789
 bond charge predicted
       N       E                     dE             d eps       ncg     rms          rms(c)
DAV:   1    -0.135945792906E+04   -0.26530E+00   -0.97030E+01  1368   0.140E+01    0.170E+00
DAV:   2    -0.135994029123E+04   -0.48236E+00   -0.50957E+00  2272   0.537E+00    0.874E-01
DAV:   3    -0.135996504832E+04   -0.24757E-01   -0.38803E-01  2592   0.108E+00    0.683E-01
DAV:   4    -0.135995711046E+04    0.79379E-02   -0.45497E-02  2560   0.492E-01    0.429E-01
DAV:   5    -0.135995344338E+04    0.36671E-02   -0.20015E-02  2416   0.282E-01    0.174E-01
DAV:   6    -0.135995387867E+04   -0.43530E-03   -0.91585E-03  2512   0.182E-01    0.116E-01
DAV:   7    -0.135995392557E+04   -0.46900E-04   -0.32377E-03  2520   0.112E-01    0.835E-02
DAV:   8    -0.135995394074E+04   -0.15164E-04   -0.13618E-03  2616   0.679E-02    0.506E-02
DAV:   9    -0.135995392835E+04    0.12386E-04   -0.26040E-04  2512   0.366E-02    0.366E-02
DAV:  10    -0.135995392711E+04    0.12349E-05   -0.20426E-04  2584   0.259E-02    0.203E-02
DAV:  11    -0.135995392623E+04    0.88109E-06   -0.64609E-05  2472   0.171E-02    0.791E-03
DAV:  12    -0.135995392751E+04   -0.12732E-05   -0.17520E-05  2048   0.968E-03    0.704E-03
DAV:  13    -0.135995392698E+04    0.52697E-06   -0.37826E-06  1200   0.532E-03
  10 F= -.13599539E+04 E0= -.13599539E+04  d E =-.761294E+00
 BRION: g(F)=  0.310E+00 g(S)=  0.000E+00 retain N=  9 mean eig= 2.70
 eig:   5.368  5.368  3.975  3.975  1.782  1.782  0.669  0.669  0.709
 bond charge predicted
       N       E                     dE             d eps       ncg     rms          rms(c)
DAV:   1    -0.136017643327E+04   -0.22251E+00   -0.78933E+01  1376   0.127E+01    0.153E+00
DAV:   2    -0.136057788957E+04   -0.40146E+00   -0.42534E+00  2272   0.492E+00    0.770E-01
DAV:   3    -0.136060016298E+04   -0.22273E-01   -0.33381E-01  2592   0.992E-01    0.618E-01
DAV:   4    -0.136059462683E+04    0.55361E-02   -0.35875E-02  2544   0.447E-01    0.411E-01
DAV:   5    -0.136059088522E+04    0.37416E-02   -0.16229E-02  2392   0.252E-01    0.173E-01
DAV:   6    -0.136059112834E+04   -0.24313E-03   -0.88702E-03  2432   0.183E-01    0.119E-01
DAV:   7    -0.136059115480E+04   -0.26454E-04   -0.39854E-03  2448   0.122E-01    0.910E-02
DAV:   8    -0.136059116034E+04   -0.55409E-05   -0.16504E-03  2608   0.755E-02    0.589E-02
DAV:   9    -0.136059113666E+04    0.23680E-04   -0.33632E-04  2544   0.389E-02    0.397E-02
DAV:  10    -0.136059113548E+04    0.11740E-05   -0.17067E-04  2600   0.237E-02    0.218E-02
DAV:  11    -0.136059113686E+04   -0.13766E-05   -0.53546E-05  2496   0.158E-02    0.124E-02
DAV:  12    -0.136059113621E+04    0.65092E-06   -0.24670E-05  2240   0.110E-02    0.952E-03
DAV:  13    -0.136059113584E+04    0.37282E-06   -0.15507E-05  1912   0.752E-03    0.477E-03
DAV:  14    -0.136059113567E+04    0.16829E-06   -0.22666E-06  1016   0.510E-03
  11 F= -.13605911E+04 E0= -.13605911E+04  d E =-.637209E+00
 BRION: g(F)=  0.246E+00 g(S)=  0.000E+00 retain N= 10 mean eig= 3.34
 eig:   7.885  7.885  3.998  3.998  3.162  3.162  0.892  0.892  0.689  0.807
 bond charge predicted
       N       E                     dE             d eps       ncg     rms          rms(c)
DAV:   1    -0.136076904992E+04   -0.17791E+00   -0.65375E+01  1368   0.115E+01    0.136E+00
DAV:   2    -0.136110312618E+04   -0.33408E+00   -0.35299E+00  2288   0.447E+00    0.691E-01
DAV:   3    -0.136112152986E+04   -0.18404E-01   -0.27153E-01  2600   0.888E-01    0.561E-01
DAV:   4    -0.136111720474E+04    0.43251E-02   -0.27328E-02  2600   0.395E-01    0.393E-01
DAV:   5    -0.136111303857E+04    0.41662E-02   -0.13423E-02  2352   0.240E-01    0.165E-01
DAV:   6    -0.136111325673E+04   -0.21816E-03   -0.10102E-02  2416   0.190E-01    0.120E-01
DAV:   7    -0.136111328600E+04   -0.29270E-04   -0.38347E-03  2400   0.117E-01    0.969E-02
DAV:   8    -0.136111325576E+04    0.30236E-04   -0.14713E-03  2584   0.715E-02    0.515E-02
DAV:   9    -0.136111323428E+04    0.21478E-04   -0.34247E-04  2488   0.382E-02    0.330E-02
DAV:  10    -0.136111323956E+04   -0.52793E-05   -0.13369E-04  2520   0.219E-02    0.211E-02
DAV:  11    -0.136111323898E+04    0.58004E-06   -0.53338E-05  2456   0.154E-02    0.129E-02
DAV:  12    -0.136111323864E+04    0.34594E-06   -0.24088E-05  2264   0.111E-02    0.116E-02
DAV:  13    -0.136111323748E+04    0.11630E-05   -0.18313E-05  1928   0.782E-03    0.524E-03
DAV:  14    -0.136111323727E+04    0.20739E-06   -0.28430E-06  1128   0.510E-03
  12 F= -.13611132E+04 E0= -.13611132E+04  d E =-.522102E+00
 BRION: g(F)=  0.209E+00 g(S)=  0.000E+00 retain N=  9 mean eig= 2.79
 eig:   6.856  6.856  2.953  2.953  1.766  0.612  1.161  1.161  0.807
 bond charge predicted
       N       E                     dE             d eps       ncg     rms          rms(c)
DAV:   1    -0.136127733722E+04   -0.16410E+00   -0.56955E+01  1368   0.108E+01    0.130E+00
DAV:   2    -0.136156931813E+04   -0.29198E+00   -0.30932E+00  2288   0.418E+00    0.656E-01
DAV:   3    -0.136158571903E+04   -0.16401E-01   -0.24216E-01  2592   0.839E-01    0.531E-01
DAV:   4    -0.136158174524E+04    0.39738E-02   -0.25155E-02  2584   0.378E-01    0.366E-01
DAV:   5    -0.136157845218E+04    0.32931E-02   -0.12815E-02  2344   0.226E-01    0.149E-01
DAV:   6    -0.136157875142E+04   -0.29923E-03   -0.78267E-03  2456   0.167E-01    0.118E-01
DAV:   7    -0.136157871227E+04    0.39142E-04   -0.31060E-03  2408   0.107E-01    0.845E-02
DAV:   8    -0.136157870634E+04    0.59322E-05   -0.13837E-03  2568   0.692E-02    0.491E-02
DAV:   9    -0.136157869064E+04    0.15699E-04   -0.24464E-04  2512   0.340E-02    0.332E-02
DAV:  10    -0.136157869174E+04   -0.10954E-05   -0.11615E-04  2568   0.199E-02    0.171E-02
DAV:  11    -0.136157869327E+04   -0.15353E-05   -0.35113E-05  2440   0.129E-02    0.104E-02
DAV:  12    -0.136157869285E+04    0.41888E-06   -0.15379E-05  2120   0.915E-03    0.852E-03
DAV:  13    -0.136157869250E+04    0.35080E-06   -0.12411E-05  1792   0.650E-03    0.450E-03
DAV:  14    -0.136157869232E+04    0.18768E-06   -0.17504E-06   992   0.441E-03
  13 F= -.13615787E+04 E0= -.13615787E+04  d E =-.465455E+00
 BRION: g(F)=  0.177E+00 g(S)=  0.000E+00 retain N=  8 mean eig= 3.27
 eig:   7.855  7.855  2.335  2.335  1.753  1.753  1.059  1.206
 bond charge predicted
       N       E                     dE             d eps       ncg     rms          rms(c)
DAV:   1    -0.136174892569E+04   -0.17023E+00   -0.38837E+01  1384   0.893E+00    0.105E+00
DAV:   2    -0.136195249954E+04   -0.20357E+00   -0.21541E+00  2296   0.350E+00    0.536E-01
DAV:   3    -0.136196444454E+04   -0.11945E-01   -0.16965E-01  2584   0.688E-01    0.442E-01
DAV:   4    -0.136196212738E+04    0.23172E-02   -0.16610E-02  2600   0.307E-01    0.318E-01
DAV:   5    -0.136195954026E+04    0.25871E-02   -0.83167E-03  2344   0.187E-01    0.134E-01
DAV:   6    -0.136195965758E+04   -0.11732E-03   -0.63095E-03  2336   0.150E-01    0.974E-02
DAV:   7    -0.136195966395E+04   -0.63633E-05   -0.25851E-03  2456   0.960E-02    0.782E-02
DAV:   8    -0.136195964106E+04    0.22886E-04   -0.97250E-04  2568   0.599E-02    0.426E-02
DAV:   9    -0.136195962966E+04    0.11401E-04   -0.22082E-04  2496   0.301E-02    0.269E-02
DAV:  10    -0.136195963297E+04   -0.33131E-05   -0.77179E-05  2536   0.165E-02    0.160E-02
DAV:  11    -0.136195963437E+04   -0.13931E-05   -0.30468E-05  2344   0.118E-02    0.120E-02
DAV:  12    -0.136195963286E+04    0.15085E-05   -0.16153E-05  2136   0.970E-03    0.929E-03
DAV:  13    -0.136195963239E+04    0.46942E-06   -0.13308E-05  1784   0.688E-03    0.453E-03
DAV:  14    -0.136195963219E+04    0.20252E-06   -0.18812E-06  1000   0.464E-03
  14 F= -.13619596E+04 E0= -.13619596E+04  d E =-.380940E+00
 BRION: g(F)=  0.162E+00 g(S)=  0.000E+00 retain N=  5 mean eig= 4.30
 eig:   7.953  7.953  2.076  2.076  1.459
 bond charge predicted
       N       E                     dE             d eps       ncg     rms          rms(c)
DAV:   1    -0.136210411499E+04   -0.14448E+00   -0.31444E+01  1384   0.801E+00    0.935E-01
DAV:   2    -0.136226614245E+04   -0.16203E+00   -0.17011E+00  2296   0.311E+00    0.474E-01
DAV:   3    -0.136227551372E+04   -0.93713E-02   -0.13185E-01  2592   0.603E-01    0.383E-01
DAV:   4    -0.136227356658E+04    0.19471E-02   -0.12390E-02  2600   0.270E-01    0.278E-01
DAV:   5    -0.136227134017E+04    0.22264E-02   -0.66897E-03  2288   0.180E-01    0.111E-01
DAV:   6    -0.136227156680E+04   -0.22663E-03   -0.58667E-03  2384   0.143E-01    0.928E-02
DAV:   7    -0.136227155981E+04    0.69854E-05   -0.18083E-03  2424   0.816E-02    0.744E-02
DAV:   8    -0.136227153729E+04    0.22523E-04   -0.70953E-04  2576   0.491E-02    0.375E-02
DAV:   9    -0.136227151519E+04    0.22100E-04   -0.18393E-04  2256   0.279E-02    0.224E-02
DAV:  10    -0.136227151920E+04   -0.40049E-05   -0.72773E-05  2336   0.161E-02    0.146E-02
DAV:  11    -0.136227151779E+04    0.14056E-05   -0.16757E-05  2120   0.925E-03    0.751E-03
DAV:  12    -0.136227151813E+04   -0.33910E-06   -0.10639E-05  1824   0.689E-03    0.622E-03
DAV:  13    -0.136227151766E+04    0.47142E-06   -0.24893E-06  1048   0.504E-03
  15 F= -.13622715E+04 E0= -.13622715E+04  d E =-.311885E+00
 BRION: g(F)=  0.144E+00 g(S)=  0.000E+00 retain N=  3 mean eig= 3.46
 eig:   4.493  4.493  1.403
 bond charge predicted
       N       E                     dE             d eps       ncg     rms          rms(c)
DAV:   1    -0.136242314644E+04   -0.15163E+00   -0.44065E+01  1384   0.955E+00    0.111E+00
DAV:   2    -0.136265722008E+04   -0.23407E+00   -0.24795E+00  2296   0.380E+00    0.568E-01
DAV:   3    -0.136267131536E+04   -0.14095E-01   -0.19702E-01  2576   0.747E-01    0.464E-01
DAV:   4    -0.136266877896E+04    0.25364E-02   -0.18976E-02  2608   0.331E-01    0.339E-01
DAV:   5    -0.136266587417E+04    0.29048E-02   -0.97456E-03  2352   0.202E-01    0.142E-01
DAV:   6    -0.136266602146E+04   -0.14729E-03   -0.71672E-03  2400   0.157E-01    0.107E-01
DAV:   7    -0.136266601508E+04    0.63756E-05   -0.29005E-03  2472   0.102E-01    0.814E-02
DAV:   8    -0.136266599375E+04    0.21332E-04   -0.11345E-03  2600   0.654E-02    0.456E-02
DAV:   9    -0.136266598182E+04    0.11928E-04   -0.24293E-04  2544   0.318E-02    0.284E-02
DAV:  10    -0.136266598559E+04   -0.37633E-05   -0.75399E-05  2568   0.169E-02    0.161E-02
DAV:  11    -0.136266598775E+04   -0.21614E-05   -0.27986E-05  2400   0.114E-02    0.119E-02
DAV:  12    -0.136266598626E+04    0.14831E-05   -0.15724E-05  2128   0.943E-03    0.890E-03
DAV:  13    -0.136266598594E+04    0.32944E-06   -0.13249E-05  1776   0.680E-03    0.459E-03
DAV:  14    -0.136266598572E+04    0.21711E-06   -0.16685E-06   976   0.439E-03
  16 F= -.13626660E+04 E0= -.13626660E+04  d E =-.394468E+00
 BRION: g(F)=  0.129E+00 g(S)=  0.000E+00 retain N=  3 mean eig= 4.59
 eig:   6.142  6.142  1.476
 bond charge predicted
       N       E                     dE             d eps       ncg     rms          rms(c)
DAV:   1    -0.136281613410E+04   -0.15015E+00   -0.22569E+01  1376   0.678E+00    0.792E-01
DAV:   2    -0.136293423970E+04   -0.11811E+00   -0.12427E+00  2288   0.268E+00    0.397E-01
DAV:   3    -0.136294126061E+04   -0.70209E-02   -0.97482E-02  2568   0.518E-01    0.318E-01
DAV:   4    -0.136293984742E+04    0.14132E-02   -0.91647E-03  2568   0.231E-01    0.228E-01
DAV:   5    -0.136293839854E+04    0.14489E-02   -0.49905E-03  2320   0.149E-01    0.882E-02
DAV:   6    -0.136293856416E+04   -0.16563E-03   -0.36558E-03  2424   0.112E-01    0.750E-02
DAV:   7    -0.136293855729E+04    0.68765E-05   -0.11664E-03  2472   0.651E-02    0.563E-02
DAV:   8    -0.136293854459E+04    0.12694E-04   -0.48999E-04  2592   0.417E-02    0.282E-02
DAV:   9    -0.136293853728E+04    0.73110E-05   -0.99975E-05  2328   0.213E-02    0.189E-02
DAV:  10    -0.136293853851E+04   -0.12345E-05   -0.38457E-05  2472   0.123E-02    0.105E-02
DAV:  11    -0.136293853821E+04    0.30710E-06   -0.74225E-06  1536   0.747E-03
  17 F= -.13629385E+04 E0= -.13629385E+04  d E =-.272552E+00
 BRION: g(F)=  0.120E+00 g(S)=  0.000E+00 retain N=  3 mean eig= 3.99
 eig:   1.515  5.221  5.221
 bond charge predicted
       N       E                     dE             d eps       ncg     rms          rms(c)
DAV:   1    -0.136308650010E+04   -0.14796E+00   -0.27607E+01  1376   0.752E+00    0.870E-01
DAV:   2    -0.136323301096E+04   -0.14651E+00   -0.15461E+00  2288   0.302E+00    0.440E-01
DAV:   3    -0.136324212372E+04   -0.91128E-02   -0.12383E-01  2568   0.587E-01    0.355E-01
DAV:   4    -0.136324056302E+04    0.15607E-02   -0.11276E-02  2592   0.258E-01    0.262E-01
DAV:   5    -0.136323872445E+04    0.18386E-02   -0.64409E-03  2296   0.163E-01    0.101E-01
DAV:   6    -0.136323891039E+04   -0.18594E-03   -0.44253E-03  2424   0.122E-01    0.854E-02
DAV:   7    -0.136323889301E+04    0.17378E-04   -0.15397E-03  2520   0.733E-02    0.596E-02
DAV:   8    -0.136323887916E+04    0.13854E-04   -0.60047E-04  2608   0.482E-02    0.308E-02
DAV:   9    -0.136323887464E+04    0.45221E-05   -0.11182E-04  2336   0.226E-02    0.211E-02
DAV:  10    -0.136323887622E+04   -0.15853E-05   -0.42240E-05  2440   0.127E-02    0.103E-02
DAV:  11    -0.136323887672E+04   -0.50067E-06   -0.91384E-06  1760   0.784E-03
  18 F= -.13632389E+04 E0= -.13632389E+04  d E =-.300339E+00
 BRION: g(F)=  0.112E+00 g(S)=  0.000E+00 retain N=  3 mean eig= 5.57
 eig:   7.421  7.421  1.866
 bond charge predicted
       N       E                     dE             d eps       ncg     rms          rms(c)
DAV:   1    -0.136338489815E+04   -0.14602E+00   -0.20779E+01  1376   0.649E+00    0.745E-01
DAV:   2    -0.136349390786E+04   -0.10901E+00   -0.11484E+00  2304   0.258E+00    0.379E-01
DAV:   3    -0.136350057338E+04   -0.66655E-02   -0.91514E-02  2568   0.492E-01    0.301E-01
DAV:   4    -0.136349931023E+04    0.12632E-02   -0.82599E-03  2576   0.219E-01    0.218E-01
DAV:   5    -0.136349801711E+04    0.12931E-02   -0.47857E-03  2320   0.137E-01    0.805E-02
DAV:   6    -0.136349816406E+04   -0.14695E-03   -0.29360E-03  2456   0.981E-02    0.684E-02
DAV:   7    -0.136349815651E+04    0.75500E-05   -0.98662E-04  2544   0.594E-02    0.457E-02
DAV:   8    -0.136349814983E+04    0.66759E-05   -0.35101E-04  2568   0.372E-02    0.246E-02
DAV:   9    -0.136349814730E+04    0.25343E-05   -0.66178E-05  2392   0.178E-02    0.175E-02
DAV:  10    -0.136349814829E+04   -0.99443E-06   -0.30385E-05  2456   0.107E-02    0.811E-03
DAV:  11    -0.136349814832E+04   -0.30792E-07   -0.44801E-06  1304   0.686E-03
  19 F= -.13634981E+04 E0= -.13634981E+04  d E =-.259272E+00
 BRION: g(F)=  0.107E+00 g(S)=  0.000E+00 retain N=  3 mean eig= 4.49
 eig:   5.976  5.976  1.524
 bond charge predicted
       N       E                     dE             d eps       ncg     rms          rms(c)
DAV:   1    -0.136363514870E+04   -0.13700E+00   -0.24931E+01  1376   0.710E+00    0.824E-01
DAV:   2    -0.136376607166E+04   -0.13092E+00   -0.13765E+00  2296   0.282E+00    0.412E-01
DAV:   3    -0.136377414879E+04   -0.80771E-02   -0.11027E-01  2576   0.548E-01    0.325E-01
DAV:   4    -0.136377258549E+04    0.15633E-02   -0.98534E-03  2584   0.240E-01    0.233E-01
DAV:   5    -0.136377105611E+04    0.15294E-02   -0.54646E-03  2304   0.151E-01    0.854E-02
DAV:   6    -0.136377124927E+04   -0.19316E-03   -0.36082E-03  2480   0.109E-01    0.737E-02
DAV:   7    -0.136377124378E+04    0.54944E-05   -0.10846E-03  2528   0.629E-02    0.521E-02
DAV:   8    -0.136377123297E+04    0.10805E-04   -0.41483E-04  2568   0.394E-02    0.268E-02
DAV:   9    -0.136377122817E+04    0.47989E-05   -0.80952E-05  2312   0.195E-02    0.184E-02
DAV:  10    -0.136377122921E+04   -0.10357E-05   -0.33094E-05  2472   0.117E-02    0.853E-03
DAV:  11    -0.136377122916E+04    0.46799E-07   -0.46502E-06  1296   0.685E-03
  20 F= -.13637712E+04 E0= -.13637712E+04  d E =-.273081E+00
 BRION: g(F)=  0.992E-01 g(S)=  0.000E+00 retain N=  3 mean eig= 5.37
 eig:   7.287  7.287  1.524
