 running on  160 total cores
 distrk:  each k-point on  160 cores,    1 groups
 distr:  one band on   20 cores,    8 groups
 using from now: INCAR     
 vasp.5.4.4.18Apr17-6-g9f103f2a35 (build May 01 2020 14:22:42) gamma-only       
  
 POSCAR found type information on POSCAR  O  La Zr Li Al
 POSCAR found :  5 types and     188 ions
 scaLAPACK will be used
 LDA part: xc-table for Pade appr. of Perdew
 POSCAR, INCAR and KPOINTS ok, starting setup
 FFT: planning ...
 WAVECAR not read
 WARNING: random wavefunctions but no delay for mixing, default for NELMDL
 entering main loop
       N       E                     dE             d eps       ncg     rms          rms(c)
DAV:   1     0.253478502316E+05    0.25348E+05   -0.42066E+05  1608   0.253E+03
DAV:   2     0.941725060159E+04   -0.15931E+05   -0.14740E+05  1432   0.707E+02
DAV:   3     0.266493531836E+04   -0.67523E+04   -0.61567E+04  1512   0.356E+02
DAV:   4    -0.370685650415E+03   -0.30356E+04   -0.28413E+04  2032   0.223E+02
DAV:   5    -0.140224708404E+04   -0.10316E+04   -0.98687E+03  2544   0.138E+02    0.117E+02
DAV:   6    -0.129897034041E+04    0.10328E+03   -0.15049E+03  2448   0.663E+01    0.502E+01
DAV:   7    -0.132203125460E+04   -0.23061E+02   -0.40008E+02  2552   0.345E+01    0.256E+01
DAV:   8    -0.132834144279E+04   -0.63102E+01   -0.25075E+02  2544   0.272E+01    0.245E+01
DAV:   9    -0.132364321669E+04    0.46982E+01   -0.45833E+01  2536   0.142E+01    0.811E+00
DAV:  10    -0.132432198836E+04   -0.67877E+00   -0.16497E+01  2624   0.773E+00    0.715E+00
DAV:  11    -0.132475277353E+04   -0.43079E+00   -0.60516E+00  2624   0.421E+00    0.440E+00
DAV:  12    -0.132458591279E+04    0.16686E+00   -0.23129E+00  2552   0.350E+00    0.296E+00
DAV:  13    -0.132461885866E+04   -0.32946E-01   -0.11156E+00  2576   0.183E+00    0.192E+00
DAV:  14    -0.132461245175E+04    0.64069E-02   -0.26345E-01  2608   0.110E+00    0.117E+00
DAV:  15    -0.132461947508E+04   -0.70233E-02   -0.98597E-02  2552   0.593E-01    0.863E-01
DAV:  16    -0.132462009135E+04   -0.61627E-03   -0.30761E-02  2616   0.345E-01    0.569E-01
DAV:  17    -0.132461962855E+04    0.46280E-03   -0.26872E-02  2416   0.308E-01    0.313E-01
DAV:  18    -0.132461981912E+04   -0.19058E-03   -0.56882E-03  2400   0.167E-01    0.151E-01
DAV:  19    -0.132461982439E+04   -0.52638E-05   -0.30787E-03  2512   0.106E-01    0.102E-01
DAV:  20    -0.132461988704E+04   -0.62650E-04   -0.62490E-04  2536   0.472E-02    0.408E-02
DAV:  21    -0.132461991289E+04   -0.25848E-04   -0.21804E-04  2624   0.255E-02    0.396E-02
DAV:  22    -0.132461992996E+04   -0.17074E-04   -0.70130E-05  2424   0.146E-02    0.141E-02
DAV:  23    -0.132461992877E+04    0.11897E-05   -0.38948E-05  1976   0.107E-02    0.757E-03
DAV:  24    -0.132461993296E+04   -0.41860E-05   -0.14137E-05  1408   0.808E-03    0.356E-03
DAV:  25    -0.132461993431E+04   -0.13534E-05   -0.50713E-06  1040   0.592E-03    0.295E-03
DAV:  26    -0.132461993520E+04   -0.88596E-06   -0.26434E-06  1032   0.511E-03
   1 F= -.13246199E+04 E0= -.13246199E+04  d E =-.132462E+04
 BRION: g(F)=  0.624E+02 g(S)=  0.000E+00
 bond charge predicted
       N       E                     dE             d eps       ncg     rms          rms(c)
DAV:   1    -0.128101569151E+04    0.43604E+02   -0.78092E+03  1688   0.130E+02    0.301E+01
DAV:   2    -0.134327711031E+04   -0.62261E+02   -0.71437E+02  2568   0.586E+01    0.152E+01
DAV:   3    -0.134114967626E+04    0.21274E+01   -0.41246E+01  2624   0.162E+01    0.100E+01
DAV:   4    -0.133900962012E+04    0.21401E+01   -0.15671E+01  2416   0.780E+00    0.477E+00
DAV:   5    -0.133883190833E+04    0.17771E+00   -0.38036E+00  2544   0.424E+00    0.336E+00
DAV:   6    -0.133871460159E+04    0.11731E+00   -0.29608E+00  2536   0.301E+00    0.175E+00
DAV:   7    -0.133870624748E+04    0.83541E-02   -0.49271E-01  2536   0.168E+00    0.130E+00
DAV:   8    -0.133869579617E+04    0.10451E-01   -0.42678E-01  2560   0.109E+00    0.609E-01
DAV:   9    -0.133869845797E+04   -0.26618E-02   -0.63440E-02  2552   0.562E-01    0.533E-01
DAV:  10    -0.133869567024E+04    0.27877E-02   -0.31352E-02  2608   0.330E-01    0.218E-01
DAV:  11    -0.133869634180E+04   -0.67156E-03   -0.15511E-02  2600   0.225E-01    0.148E-01
DAV:  12    -0.133869646119E+04   -0.11939E-03   -0.24224E-03  2600   0.106E-01    0.950E-02
DAV:  13    -0.133869636088E+04    0.10031E-03   -0.11871E-03  2584   0.674E-02    0.279E-02
DAV:  14    -0.133869639266E+04   -0.31783E-04   -0.27326E-04  2496   0.358E-02    0.124E-02
DAV:  15    -0.133869639977E+04   -0.71119E-05   -0.68114E-05  2624   0.175E-02    0.108E-02
DAV:  16    -0.133869640006E+04   -0.28245E-06   -0.23159E-05  2424   0.112E-02    0.810E-03
DAV:  17    -0.133869640138E+04   -0.13278E-05   -0.12726E-05  2032   0.714E-03    0.515E-03
DAV:  18    -0.133869640085E+04    0.53154E-06   -0.13609E-06  1024   0.474E-03
   2 F= -.13386964E+04 E0= -.13386964E+04  d E =-.140765E+02
 BRION: g(F)=  0.145E+03 g(S)=  0.000E+00 retain N=  1 mean eig= 0.36
 eig:   0.359
 bond charge predicted
       N       E                     dE             d eps       ncg     rms          rms(c)
DAV:   1    -0.132385977643E+04    0.14837E+02   -0.24624E+03  1336   0.620E+01    0.207E+01
DAV:   2    -0.135276747434E+04   -0.28908E+02   -0.37225E+02  2536   0.323E+01    0.180E+01
DAV:   3    -0.134963960816E+04    0.31279E+01   -0.31333E+01  2512   0.117E+01    0.131E+01
DAV:   4    -0.134764037077E+04    0.19992E+01   -0.33422E+01  2144   0.729E+00    0.578E+00
DAV:   5    -0.134836180136E+04   -0.72143E+00   -0.79001E+00  2424   0.405E+00    0.790E+00
DAV:   6    -0.134727332002E+04    0.10885E+01   -0.57476E+00  2528   0.283E+00    0.209E+00
DAV:   7    -0.134731578961E+04   -0.42470E-01   -0.18708E+00  2496   0.211E+00    0.121E+00
DAV:   8    -0.134729590546E+04    0.19884E-01   -0.23251E-01  2512   0.114E+00    0.706E-01
DAV:   9    -0.134729773344E+04   -0.18280E-02   -0.85137E-02  2552   0.500E-01    0.251E-01
DAV:  10    -0.134729854672E+04   -0.81328E-03   -0.11304E-02  2624   0.218E-01    0.156E-01
DAV:  11    -0.134729856107E+04   -0.14360E-04   -0.24519E-03  2624   0.103E-01    0.828E-02
DAV:  12    -0.134729857087E+04   -0.97963E-05   -0.17342E-03  2624   0.705E-02    0.412E-02
DAV:  13    -0.134729858848E+04   -0.17606E-04   -0.33309E-04  2376   0.468E-02    0.302E-02
DAV:  14    -0.134729858810E+04    0.37883E-06   -0.16053E-04  2424   0.228E-02    0.153E-02
DAV:  15    -0.134729859041E+04   -0.23092E-05   -0.68993E-05  2464   0.157E-02    0.854E-03
DAV:  16    -0.134729859151E+04   -0.11065E-05   -0.19671E-05  2256   0.106E-02    0.580E-03
DAV:  17    -0.134729859199E+04   -0.47404E-06   -0.79425E-06  1824   0.616E-03
   3 F= -.13472986E+04 E0= -.13472986E+04  d E =-.860219E+01
 BRION: g(F)=  0.261E+02 g(S)=  0.000E+00 retain N=  2 mean eig= 1.59
 eig:   0.205  2.967
 bond charge predicted
       N       E                     dE             d eps       ncg     rms          rms(c)
DAV:   1    -0.134625570298E+04    0.10429E+01   -0.81067E+02  1376   0.349E+01    0.869E+00
DAV:   2    -0.135204495625E+04   -0.57893E+01   -0.70027E+01  2456   0.167E+01    0.515E+00
DAV:   3    -0.135186016425E+04    0.18479E+00   -0.49374E+00  2528   0.546E+00    0.431E+00
DAV:   4    -0.135157714731E+04    0.28302E+00   -0.25045E+00  2256   0.254E+00    0.189E+00
DAV:   5    -0.135158199483E+04   -0.48475E-02   -0.80942E-01  2424   0.171E+00    0.207E+00
DAV:   6    -0.135151552496E+04    0.66470E-01   -0.49606E-01  2464   0.141E+00    0.987E-01
DAV:   7    -0.135151825483E+04   -0.27299E-02   -0.30389E-01  2432   0.911E-01    0.735E-01
DAV:   8    -0.135151608347E+04    0.21714E-02   -0.52510E-02  2488   0.440E-01    0.497E-01
DAV:   9    -0.135151233621E+04    0.37473E-02   -0.19157E-02  2464   0.249E-01    0.267E-01
DAV:  10    -0.135151273064E+04   -0.39444E-03   -0.20409E-02  2416   0.217E-01    0.153E-01
DAV:  11    -0.135151243764E+04    0.29300E-03   -0.25453E-03  2512   0.119E-01    0.760E-02
DAV:  12    -0.135151246546E+04   -0.27815E-04   -0.14237E-03  2584   0.630E-02    0.302E-02
DAV:  13    -0.135151247745E+04   -0.11994E-04   -0.22172E-04  2592   0.323E-02    0.147E-02
DAV:  14    -0.135151248263E+04   -0.51794E-05   -0.50959E-05  2560   0.141E-02    0.133E-02
DAV:  15    -0.135151248158E+04    0.10490E-05   -0.20198E-05  2304   0.901E-03    0.456E-03
DAV:  16    -0.135151248229E+04   -0.71102E-06   -0.10623E-05  1728   0.618E-03    0.577E-03
DAV:  17    -0.135151248214E+04    0.15418E-06   -0.12510E-06  1040   0.381E-03
   4 F= -.13515125E+04 E0= -.13515125E+04  d E =-.421389E+01
 BRION: g(F)=  0.681E+01 g(S)=  0.000E+00 retain N=  2 mean eig= 0.31
 eig:   0.306  0.306
 bond charge predicted
       N       E                     dE             d eps       ncg     rms          rms(c)
DAV:   1    -0.135310540856E+04   -0.15929E+01   -0.28148E+02  1368   0.234E+01    0.400E+00
DAV:   2    -0.135455270756E+04   -0.14473E+01   -0.15569E+01  2296   0.869E+00    0.198E+00
DAV:   3    -0.135458118880E+04   -0.28481E-01   -0.11229E+00  2608   0.192E+00    0.171E+00
DAV:   4    -0.135453271264E+04    0.48476E-01   -0.25163E-01  2600   0.102E+00    0.892E-01
DAV:   5    -0.135452124206E+04    0.11471E-01   -0.11647E-01  2392   0.661E-01    0.518E-01
DAV:   6    -0.135452157407E+04   -0.33201E-03   -0.59322E-02  2600   0.473E-01    0.396E-01
DAV:   7    -0.135452030383E+04    0.12702E-02   -0.29768E-02  2352   0.297E-01    0.238E-01
DAV:   8    -0.135452027379E+04    0.30041E-04   -0.74959E-03  2472   0.164E-01    0.129E-01
DAV:   9    -0.135452012852E+04    0.14527E-03   -0.19952E-03  2504   0.848E-02    0.753E-02
DAV:  10    -0.135452026641E+04   -0.13790E-03   -0.18537E-03  2272   0.683E-02    0.821E-02
DAV:  11    -0.135452015804E+04    0.10837E-03   -0.52584E-04  2520   0.479E-02    0.336E-02
DAV:  12    -0.135452017795E+04   -0.19907E-04   -0.46920E-04  2528   0.344E-02    0.273E-02
DAV:  13    -0.135452016888E+04    0.90658E-05   -0.96809E-05  2424   0.198E-02    0.909E-03
DAV:  14    -0.135452017062E+04   -0.17437E-05   -0.23191E-05  2048   0.964E-03    0.441E-03
DAV:  15    -0.135452017090E+04   -0.27065E-06   -0.25640E-06  1032   0.453E-03
   5 F= -.13545202E+04 E0= -.13545202E+04  d E =-.300769E+01
 BRION: g(F)=  0.319E+01 g(S)=  0.000E+00 retain N=  3 mean eig= 0.26
 eig:   0.115  0.115  0.542
 bond charge predicted
       N       E                     dE             d eps       ncg     rms          rms(c)
DAV:   1    -0.135521275833E+04   -0.69259E+00   -0.22368E+02  1368   0.204E+01    0.301E+00
DAV:   2    -0.135629789270E+04   -0.10851E+01   -0.11425E+01  2288   0.746E+00    0.154E+00
DAV:   3    -0.135632101052E+04   -0.23118E-01   -0.75601E-01  2616   0.151E+00    0.128E+00
DAV:   4    -0.135628456955E+04    0.36441E-01   -0.14964E-01  2536   0.801E-01    0.685E-01
DAV:   5    -0.135627524003E+04    0.93295E-02   -0.68546E-02  2456   0.516E-01    0.353E-01
DAV:   6    -0.135627569766E+04   -0.45763E-03   -0.32080E-02  2560   0.337E-01    0.210E-01
DAV:   7    -0.135627553692E+04    0.16074E-03   -0.94162E-03  2424   0.189E-01    0.146E-01
DAV:   8    -0.135627558020E+04   -0.43274E-04   -0.36278E-03  2416   0.103E-01    0.791E-02
DAV:   9    -0.135627551830E+04    0.61895E-04   -0.87864E-04  2616   0.588E-02    0.500E-02
DAV:  10    -0.135627556047E+04   -0.42165E-04   -0.75790E-04  2440   0.466E-02    0.510E-02
DAV:  11    -0.135627552142E+04    0.39051E-04   -0.30217E-04  2520   0.357E-02    0.169E-02
DAV:  12    -0.135627553081E+04   -0.93974E-05   -0.14297E-04  2440   0.215E-02    0.144E-02
DAV:  13    -0.135627552950E+04    0.13159E-05   -0.25036E-05  2288   0.108E-02    0.857E-03
DAV:  14    -0.135627552938E+04    0.12094E-06   -0.13936E-05  1816   0.680E-03    0.397E-03
DAV:  15    -0.135627552937E+04    0.10026E-07   -0.13138E-06  1024   0.421E-03
   6 F= -.13562755E+04 E0= -.13562755E+04  d E =-.175536E+01
 BRION: g(F)=  0.220E+01 g(S)=  0.000E+00 retain N=  4 mean eig= 0.55
 eig:   0.688  0.192  0.664  0.664
 bond charge predicted
       N       E                     dE             d eps       ncg     rms          rms(c)
DAV:   1    -0.135649473825E+04   -0.21921E+00   -0.29765E+02  1376   0.241E+01    0.331E+00
DAV:   2    -0.135795986663E+04   -0.14651E+01   -0.15317E+01  2280   0.893E+00    0.173E+00
DAV:   3    -0.135799908330E+04   -0.39217E-01   -0.10160E+00  2600   0.184E+00    0.138E+00
DAV:   4    -0.135795946198E+04    0.39621E-01   -0.17611E-01  2512   0.885E-01    0.755E-01
DAV:   5    -0.135794925891E+04    0.10203E-01   -0.81251E-02  2448   0.548E-01    0.374E-01
DAV:   6    -0.135794976296E+04   -0.50405E-03   -0.31544E-02  2536   0.334E-01    0.220E-01
DAV:   7    -0.135794973407E+04    0.28886E-04   -0.92633E-03  2560   0.192E-01    0.139E-01
DAV:   8    -0.135794979789E+04   -0.63813E-04   -0.30122E-03  2592   0.103E-01    0.790E-02
DAV:   9    -0.135794975727E+04    0.40619E-04   -0.78603E-04  2616   0.586E-02    0.504E-02
DAV:  10    -0.135794979544E+04   -0.38173E-04   -0.55865E-04  2440   0.409E-02    0.404E-02
DAV:  11    -0.135794976980E+04    0.25645E-04   -0.20417E-04  2552   0.304E-02    0.144E-02
DAV:  12    -0.135794977697E+04   -0.71777E-05   -0.11297E-04  2432   0.190E-02    0.145E-02
DAV:  13    -0.135794977468E+04    0.22900E-05   -0.24329E-05  2176   0.105E-02    0.686E-03
DAV:  14    -0.135794977495E+04   -0.26307E-06   -0.96774E-06  1768   0.615E-03
   7 F= -.13579498E+04 E0= -.13579498E+04  d E =-.167425E+01
 BRION: g(F)=  0.131E+01 g(S)=  0.000E+00 retain N=  5 mean eig= 0.76
 eig:   0.697  1.095  1.095  0.181  0.725
 bond charge predicted
       N       E                     dE             d eps       ncg     rms          rms(c)
DAV:   1    -0.135832352505E+04   -0.37375E+00   -0.96840E+01  1376   0.139E+01    0.200E+00
DAV:   2    -0.135879538998E+04   -0.47186E+00   -0.49755E+00  2264   0.525E+00    0.102E+00
DAV:   3    -0.135881394855E+04   -0.18559E-01   -0.36775E-01  2624   0.105E+00    0.801E-01
DAV:   4    -0.135880235576E+04    0.11593E-01   -0.57873E-02  2520   0.525E-01    0.426E-01
DAV:   5    -0.135880033214E+04    0.20236E-02   -0.24594E-02  2424   0.318E-01    0.207E-01
DAV:   6    -0.135880074223E+04   -0.41009E-03   -0.10651E-02  2584   0.194E-01    0.131E-01
DAV:   7    -0.135880069177E+04    0.50460E-04   -0.26945E-03  2520   0.106E-01    0.917E-02
DAV:   8    -0.135880068325E+04    0.85236E-05   -0.12331E-03  2576   0.624E-02    0.508E-02
DAV:   9    -0.135880066411E+04    0.19132E-04   -0.25143E-04  2576   0.373E-02    0.321E-02
DAV:  10    -0.135880067576E+04   -0.11641E-04   -0.29878E-04  2408   0.289E-02    0.279E-02
DAV:  11    -0.135880066650E+04    0.92592E-05   -0.76435E-05  2456   0.192E-02    0.118E-02
DAV:  12    -0.135880066830E+04   -0.18058E-05   -0.42097E-05  2264   0.112E-02    0.830E-03
DAV:  13    -0.135880066745E+04    0.85628E-06   -0.30255E-06  1080   0.619E-03
   8 F= -.13588007E+04 E0= -.13588007E+04  d E =-.850892E+00
 BRION: g(F)=  0.631E+00 g(S)=  0.000E+00 retain N=  6 mean eig= 1.24
 eig:   2.650  2.650  0.677  0.188  0.653  0.653
 bond charge predicted
       N       E                     dE             d eps       ncg     rms          rms(c)
DAV:   1    -0.135910537452E+04   -0.30471E+00   -0.78543E+01  1376   0.125E+01    0.163E+00
DAV:   2    -0.135948721304E+04   -0.38184E+00   -0.40154E+00  2288   0.472E+00    0.784E-01
DAV:   3    -0.135950668839E+04   -0.19475E-01   -0.30575E-01  2608   0.923E-01    0.626E-01
DAV:   4    -0.135949977816E+04    0.69102E-02   -0.34722E-02  2568   0.423E-01    0.372E-01
DAV:   5    -0.135949707092E+04    0.27072E-02   -0.18685E-02  2328   0.273E-01    0.151E-01
DAV:   6    -0.135949769341E+04   -0.62250E-03   -0.86181E-03  2544   0.176E-01    0.131E-01
DAV:   7    -0.135949762081E+04    0.72605E-04   -0.26266E-03  2600   0.100E-01    0.862E-02
DAV:   8    -0.135949758560E+04    0.35208E-04   -0.92609E-04  2600   0.595E-02    0.439E-02
DAV:   9    -0.135949758147E+04    0.41343E-05   -0.16267E-04  2552   0.297E-02    0.303E-02
DAV:  10    -0.135949758766E+04   -0.61925E-05   -0.14756E-04  2320   0.212E-02    0.197E-02
DAV:  11    -0.135949758494E+04    0.27219E-05   -0.36422E-05  2448   0.142E-02    0.934E-03
DAV:  12    -0.135949758610E+04   -0.11621E-05   -0.23303E-05  2088   0.864E-03    0.785E-03
DAV:  13    -0.135949758507E+04    0.10314E-05   -0.25401E-06  1056   0.594E-03    0.461E-03
DAV:  14    -0.135949758621E+04   -0.11433E-05   -0.17826E-05  1600   0.753E-03    0.539E-03
DAV:  15    -0.135949758581E+04    0.39762E-06   -0.12744E-06   992   0.486E-03
   9 F= -.13594976E+04 E0= -.13594976E+04  d E =-.696918E+00
 BRION: g(F)=  0.507E+00 g(S)=  0.000E+00 retain N=  7 mean eig= 1.42
 eig:   3.496  3.496  0.877  0.877  0.300  0.197  0.667
 bond charge predicted
       N       E                     dE             d eps       ncg     rms          rms(c)
DAV:   1    -0.135972036069E+04   -0.22277E+00   -0.10060E+02  1384   0.143E+01    0.165E+00
DAV:   2    -0.136022721761E+04   -0.50686E+00   -0.53334E+00  2280   0.553E+00    0.835E-01
DAV:   3    -0.136025734628E+04   -0.30129E-01   -0.42451E-01  2600   0.108E+00    0.680E-01
DAV:   4    -0.136025162196E+04    0.57243E-02   -0.38550E-02  2608   0.469E-01    0.485E-01
DAV:   5    -0.136024596965E+04    0.56523E-02   -0.21678E-02  2320   0.286E-01    0.195E-01
DAV:   6    -0.136024637980E+04   -0.41015E-03   -0.13073E-02  2344   0.217E-01    0.158E-01
DAV:   7    -0.136024637547E+04    0.43259E-05   -0.67226E-03  2480   0.150E-01    0.113E-01
DAV:   8    -0.136024633005E+04    0.45421E-04   -0.21902E-03  2552   0.928E-02    0.691E-02
DAV:   9    -0.136024630043E+04    0.29625E-04   -0.51753E-04  2520   0.471E-02    0.467E-02
DAV:  10    -0.136024630250E+04   -0.20718E-05   -0.23013E-04  2568   0.276E-02    0.256E-02
DAV:  11    -0.136024630629E+04   -0.37951E-05   -0.82258E-05  2496   0.199E-02    0.160E-02
DAV:  12    -0.136024630481E+04    0.14809E-05   -0.41211E-05  2352   0.142E-02    0.135E-02
DAV:  13    -0.136024630383E+04    0.98125E-06   -0.26893E-05  2128   0.918E-03    0.734E-03
DAV:  14    -0.136024630343E+04    0.40590E-06   -0.62649E-06  1504   0.566E-03
  10 F= -.13602463E+04 E0= -.13602463E+04  d E =-.748718E+00
 BRION: g(F)=  0.356E+00 g(S)=  0.000E+00 retain N=  8 mean eig= 2.05
 eig:   6.529  3.209  2.326  2.326  0.296  0.198  0.771  0.771
 bond charge predicted
       N       E                     dE             d eps       ncg     rms          rms(c)
DAV:   1    -0.136041334313E+04   -0.16704E+00   -0.10264E+02  1376   0.143E+01    0.170E+00
DAV:   2    -0.136093361764E+04   -0.52027E+00   -0.54586E+00  2296   0.555E+00    0.876E-01
DAV:   3    -0.136096136616E+04   -0.27749E-01   -0.41457E-01  2600   0.106E+00    0.700E-01
DAV:   4    -0.136095318519E+04    0.81810E-02   -0.42117E-02  2568   0.471E-01    0.452E-01
DAV:   5    -0.136094828149E+04    0.49037E-02   -0.21151E-02  2336   0.288E-01    0.161E-01
DAV:   6    -0.136094904574E+04   -0.76425E-03   -0.10279E-02  2464   0.185E-01    0.133E-01
DAV:   7    -0.136094900173E+04    0.44009E-04   -0.33119E-03  2520   0.112E-01    0.885E-02
DAV:   8    -0.136094897920E+04    0.22529E-04   -0.13133E-03  2592   0.700E-02    0.495E-02
DAV:   9    -0.136094897243E+04    0.67727E-05   -0.26507E-04  2544   0.361E-02    0.366E-02
DAV:  10    -0.136094897451E+04   -0.20803E-05   -0.15143E-04  2592   0.231E-02    0.182E-02
DAV:  11    -0.136094897444E+04    0.68700E-07   -0.45694E-05  2456   0.148E-02    0.801E-03
DAV:  12    -0.136094897576E+04   -0.13157E-05   -0.16787E-05  2040   0.907E-03    0.748E-03
DAV:  13    -0.136094897506E+04    0.69792E-06   -0.38218E-06  1216   0.534E-03
  11 F= -.13609490E+04 E0= -.13609490E+04  d E =-.702672E+00
 BRION: g(F)=  0.265E+00 g(S)=  0.000E+00 retain N=  9 mean eig= 2.41
 eig:   6.539  4.174  4.174  3.363  0.769  0.289  0.866  0.748  0.748
 bond charge predicted
       N       E                     dE             d eps       ncg     rms          rms(c)
DAV:   1    -0.136115173403E+04   -0.20276E+00   -0.48091E+01  1376   0.978E+00    0.115E+00
DAV:   2    -0.136139734346E+04   -0.24561E+00   -0.25881E+00  2288   0.383E+00    0.590E-01
DAV:   3    -0.136141075229E+04   -0.13409E-01   -0.20122E-01  2600   0.733E-01    0.482E-01
DAV:   4    -0.136140707058E+04    0.36817E-02   -0.19210E-02  2584   0.322E-01    0.322E-01
DAV:   5    -0.136140431728E+04    0.27533E-02   -0.10185E-02  2304   0.198E-01    0.116E-01
DAV:   6    -0.136140465019E+04   -0.33291E-03   -0.57641E-03  2448   0.137E-01    0.978E-02
DAV:   7    -0.136140462333E+04    0.26856E-04   -0.20443E-03  2488   0.857E-02    0.667E-02
DAV:   8    -0.136140461275E+04    0.10579E-04   -0.76683E-04  2592   0.532E-02    0.379E-02
DAV:   9    -0.136140460584E+04    0.69112E-05   -0.15789E-04  2408   0.271E-02    0.284E-02
DAV:  10    -0.136140460681E+04   -0.97013E-06   -0.87797E-05  2464   0.172E-02    0.152E-02
DAV:  11    -0.136140460699E+04   -0.17471E-06   -0.32333E-05  2336   0.125E-02    0.756E-03
DAV:  12    -0.136140460745E+04   -0.46055E-06   -0.12626E-05  1856   0.846E-03    0.705E-03
DAV:  13    -0.136140460695E+04    0.50208E-06   -0.57693E-06  1392   0.552E-03
  12 F= -.13614046E+04 E0= -.13614046E+04  d E =-.455632E+00
 BRION: g(F)=  0.217E+00 g(S)=  0.000E+00 retain N= 10 mean eig= 2.90
 eig:   6.781  6.763  6.763  3.660  0.796  1.148  1.148  0.262  0.815  0.815
 bond charge predicted
       N       E                     dE             d eps       ncg     rms          rms(c)
DAV:   1    -0.136156208686E+04   -0.15748E+00   -0.69256E+01  1384   0.117E+01    0.135E+00
DAV:   2    -0.136191896204E+04   -0.35688E+00   -0.37469E+00  2296   0.461E+00    0.690E-01
DAV:   3    -0.136193800892E+04   -0.19047E-01   -0.28593E-01  2592   0.866E-01    0.561E-01
DAV:   4    -0.136193293184E+04    0.50771E-02   -0.26144E-02  2584   0.373E-01    0.391E-01
DAV:   5    -0.136192818177E+04    0.47501E-02   -0.13521E-02  2272   0.231E-01    0.148E-01
DAV:   6    -0.136192843670E+04   -0.25493E-03   -0.93087E-03  2320   0.168E-01    0.109E-01
DAV:   7    -0.136192847446E+04   -0.37762E-04   -0.35452E-03  2392   0.107E-01    0.826E-02
DAV:   8    -0.136192845408E+04    0.20384E-04   -0.11091E-03  2584   0.647E-02    0.490E-02
DAV:   9    -0.136192843428E+04    0.19801E-04   -0.31665E-04  2448   0.359E-02    0.327E-02
DAV:  10    -0.136192843920E+04   -0.49246E-05   -0.13578E-04  2496   0.218E-02    0.200E-02
DAV:  11    -0.136192843854E+04    0.65760E-06   -0.49272E-05  2400   0.154E-02    0.107E-02
DAV:  12    -0.136192843920E+04   -0.66048E-06   -0.27520E-05  2288   0.109E-02    0.101E-02
DAV:  13    -0.136192843823E+04    0.97770E-06   -0.10976E-05  1744   0.668E-03    0.539E-03
DAV:  14    -0.136192843817E+04    0.56782E-07   -0.71420E-06  1552   0.568E-03
  13 F= -.13619284E+04 E0= -.13619284E+04  d E =-.523831E+00
 BRION: g(F)=  0.187E+00 g(S)=  0.000E+00 retain N= 10 mean eig= 2.70
 eig:   7.490  7.490  3.260  2.376  2.376  0.485  0.861  0.861  1.118  0.645
 bond charge predicted
       N       E                     dE             d eps       ncg     rms          rms(c)
DAV:   1    -0.136209649054E+04   -0.16805E+00   -0.43286E+01  1384   0.922E+00    0.107E+00
DAV:   2    -0.136231658260E+04   -0.22009E+00   -0.23090E+00  2288   0.363E+00    0.549E-01
DAV:   3    -0.136232815425E+04   -0.11572E-01   -0.17583E-01  2592   0.678E-01    0.442E-01
DAV:   4    -0.136232467550E+04    0.34788E-02   -0.16361E-02  2560   0.293E-01    0.300E-01
DAV:   5    -0.136232188047E+04    0.27950E-02   -0.87340E-03  2208   0.184E-01    0.108E-01
DAV:   6    -0.136232214600E+04   -0.26554E-03   -0.55050E-03  2368   0.127E-01    0.888E-02
DAV:   7    -0.136232213821E+04    0.77893E-05   -0.17558E-03  2432   0.772E-02    0.642E-02
DAV:   8    -0.136232211969E+04    0.18520E-04   -0.66889E-04  2544   0.483E-02    0.361E-02
DAV:   9    -0.136232211169E+04    0.80080E-05   -0.14662E-04  2384   0.259E-02    0.251E-02
DAV:  10    -0.136232211258E+04   -0.89599E-06   -0.81776E-05  2432   0.169E-02    0.126E-02
DAV:  11    -0.136232211260E+04   -0.13984E-07   -0.20574E-05  2232   0.109E-02    0.603E-03
DAV:  12    -0.136232211339E+04   -0.79526E-06   -0.12077E-05  1824   0.683E-03    0.573E-03
DAV:  13    -0.136232211291E+04    0.48471E-06   -0.15538E-06  1008   0.475E-03
  14 F= -.13623221E+04 E0= -.13623221E+04  d E =-.393675E+00
 BRION: g(F)=  0.158E+00 g(S)=  0.000E+00 retain N=  8 mean eig= 3.16
 eig:   7.960  7.960  2.615  2.615  0.827  0.827  1.236  1.236
 bond charge predicted
       N       E                     dE             d eps       ncg     rms          rms(c)
DAV:   1    -0.136249932222E+04   -0.17721E+00   -0.28784E+01  1376   0.751E+00    0.879E-01
DAV:   2    -0.136264632548E+04   -0.14700E+00   -0.15435E+00  2296   0.297E+00    0.445E-01
DAV:   3    -0.136265431752E+04   -0.79920E-02   -0.11907E-01  2600   0.557E-01    0.360E-01
DAV:   4    -0.136265204660E+04    0.22709E-02   -0.10778E-02  2576   0.239E-01    0.246E-01
DAV:   5    -0.136265017183E+04    0.18748E-02   -0.61643E-03  2192   0.152E-01    0.850E-02
DAV:   6    -0.136265039342E+04   -0.22159E-03   -0.37490E-03  2368   0.103E-01    0.771E-02
DAV:   7    -0.136265037923E+04    0.14197E-04   -0.11575E-03  2432   0.623E-02    0.543E-02
DAV:   8    -0.136265036029E+04    0.18938E-04   -0.46745E-04  2544   0.401E-02    0.294E-02
DAV:   9    -0.136265035643E+04    0.38553E-05   -0.89664E-05  2408   0.209E-02    0.211E-02
DAV:  10    -0.136265035659E+04   -0.15594E-06   -0.49151E-05  2424   0.133E-02    0.964E-03
DAV:  11    -0.136265035666E+04   -0.72818E-07   -0.96199E-06  1744   0.816E-03
  15 F= -.13626504E+04 E0= -.13626504E+04  d E =-.328244E+00
 BRION: g(F)=  0.148E+00 g(S)=  0.000E+00 retain N=  7 mean eig= 3.62
 eig:   7.680  7.680  2.746  2.746  1.644  1.644  1.223
 bond charge predicted
       N       E                     dE             d eps       ncg     rms          rms(c)
DAV:   1    -0.136280764429E+04   -0.15729E+00   -0.16578E+01  1392   0.570E+00    0.645E-01
DAV:   2    -0.136289222147E+04   -0.84577E-01   -0.88640E-01  2288   0.225E+00    0.329E-01
DAV:   3    -0.136289696872E+04   -0.47472E-02   -0.67901E-02  2600   0.429E-01    0.266E-01
DAV:   4    -0.136289584686E+04    0.11219E-02   -0.60407E-03  2592   0.179E-01    0.186E-01
DAV:   5    -0.136289476881E+04    0.10781E-02   -0.32614E-03  2168   0.112E-01    0.656E-02
DAV:   6    -0.136289488046E+04   -0.11165E-03   -0.21625E-03  2272   0.776E-02    0.543E-02
DAV:   7    -0.136289488288E+04   -0.24251E-05   -0.69577E-04  2360   0.462E-02    0.385E-02
DAV:   8    -0.136289487909E+04    0.37929E-05   -0.24728E-04  2544   0.288E-02    0.224E-02
DAV:   9    -0.136289487547E+04    0.36229E-05   -0.56541E-05  2312   0.164E-02    0.156E-02
DAV:  10    -0.136289487626E+04   -0.79490E-06   -0.28390E-05  2288   0.102E-02    0.796E-03
DAV:  11    -0.136289487578E+04    0.48442E-06   -0.25946E-06  1056   0.642E-03
  16 F= -.13628949E+04 E0= -.13628949E+04  d E =-.244519E+00
 BRION: g(F)=  0.144E+00 g(S)=  0.000E+00 retain N=  7 mean eig= 3.75
 eig:   7.604  7.604  2.909  2.909  1.925  1.925  1.379
 bond charge predicted
       N       E                     dE             d eps       ncg     rms          rms(c)
DAV:   1    -0.136309037933E+04   -0.19550E+00   -0.32447E+01  1384   0.798E+00    0.913E-01
DAV:   2    -0.136325873312E+04   -0.16835E+00   -0.17648E+00  2304   0.316E+00    0.462E-01
DAV:   3    -0.136326815027E+04   -0.94171E-02   -0.13508E-01  2592   0.601E-01    0.368E-01
DAV:   4    -0.136326570727E+04    0.24430E-02   -0.12394E-02  2568   0.257E-01    0.248E-01
DAV:   5    -0.136326387780E+04    0.18295E-02   -0.62452E-03  2240   0.155E-01    0.853E-02
DAV:   6    -0.136326409816E+04   -0.22036E-03   -0.36369E-03  2376   0.997E-02    0.685E-02
DAV:   7    -0.136326410324E+04   -0.50767E-05   -0.10629E-03  2416   0.596E-02    0.477E-02
DAV:   8    -0.136326409901E+04    0.42326E-05   -0.37987E-04  2584   0.368E-02    0.271E-02
DAV:   9    -0.136326409600E+04    0.30082E-05   -0.85773E-05  2416   0.204E-02    0.196E-02
DAV:  10    -0.136326409717E+04   -0.11694E-05   -0.45177E-05  2440   0.130E-02    0.978E-03
DAV:  11    -0.136326409697E+04    0.19788E-06   -0.10733E-05  1840   0.817E-03    0.489E-03
DAV:  12    -0.136326409769E+04   -0.72442E-06   -0.99799E-06  1664   0.602E-03
  17 F= -.13632641E+04 E0= -.13632641E+04  d E =-.369222E+00
 BRION: g(F)=  0.137E+00 g(S)=  0.000E+00 retain N=  5 mean eig= 4.55
 eig:   7.946  7.946  2.689  2.689  1.502
 bond charge predicted
       N       E                     dE             d eps       ncg     rms          rms(c)
DAV:   1    -0.136342394824E+04   -0.15985E+00   -0.17886E+01  1392   0.596E+00    0.685E-01
DAV:   2    -0.136351746401E+04   -0.93516E-01   -0.98023E-01  2296   0.238E+00    0.342E-01
DAV:   3    -0.136352333388E+04   -0.58699E-02   -0.79217E-02  2584   0.451E-01    0.275E-01
DAV:   4    -0.136352221093E+04    0.11229E-02   -0.66992E-03  2576   0.194E-01    0.195E-01
DAV:   5    -0.136352113708E+04    0.10739E-02   -0.34685E-03  2216   0.114E-01    0.690E-02
DAV:   6    -0.136352124440E+04   -0.10732E-03   -0.22102E-03  2344   0.790E-02    0.519E-02
DAV:   7    -0.136352125443E+04   -0.10032E-04   -0.73672E-04  2408   0.480E-02    0.355E-02
DAV:   8    -0.136352125232E+04    0.21058E-05   -0.21099E-04  2560   0.288E-02    0.212E-02
DAV:   9    -0.136352125017E+04    0.21563E-05   -0.56536E-05  2440   0.160E-02    0.146E-02
DAV:  10    -0.136352125143E+04   -0.12607E-05   -0.24814E-05  2448   0.978E-03    0.786E-03
DAV:  11    -0.136352125096E+04    0.46607E-06   -0.30893E-06  1120   0.635E-03
  18 F= -.13635213E+04 E0= -.13635213E+04  d E =-.257153E+00
 BRION: g(F)=  0.133E+00 g(S)=  0.000E+00 retain N=  4 mean eig= 4.41
 eig:   7.152  7.152  1.663  1.663
 bond charge predicted
       N       E                     dE             d eps       ncg     rms          rms(c)
DAV:   1    -0.136371694712E+04   -0.19570E+00   -0.26546E+01  1376   0.727E+00    0.842E-01
DAV:   2    -0.136385793209E+04   -0.14098E+00   -0.14841E+00  2288   0.290E+00    0.418E-01
DAV:   3    -0.136386702732E+04   -0.90952E-02   -0.12232E-01  2576   0.570E-01    0.336E-01
DAV:   4    -0.136386536540E+04    0.16619E-02   -0.10563E-02  2584   0.243E-01    0.238E-01
DAV:   5    -0.136386381514E+04    0.15503E-02   -0.50654E-03  2312   0.141E-01    0.883E-02
DAV:   6    -0.136386393338E+04   -0.11824E-03   -0.32469E-03  2368   0.978E-02    0.631E-02
DAV:   7    -0.136386395623E+04   -0.22854E-04   -0.12209E-03  2448   0.627E-02    0.453E-02
DAV:   8    -0.136386395192E+04    0.43102E-05   -0.34297E-04  2600   0.375E-02    0.268E-02
DAV:   9    -0.136386394859E+04    0.33292E-05   -0.10021E-04  2448   0.206E-02    0.180E-02
DAV:  10    -0.136386395088E+04   -0.22824E-05   -0.41553E-05  2504   0.127E-02    0.108E-02
DAV:  11    -0.136386395048E+04    0.39260E-06   -0.13110E-05  1952   0.836E-03    0.538E-03
DAV:  12    -0.136386395088E+04   -0.39338E-06   -0.96273E-06  1712   0.639E-03
  19 F= -.13638640E+04 E0= -.13638640E+04  d E =-.342700E+00
 BRION: g(F)=  0.124E+00 g(S)=  0.000E+00 retain N=  3 mean eig= 4.46
 eig:   5.919  5.919  1.532
 bond charge predicted
       N       E                     dE             d eps       ncg     rms          rms(c)
DAV:   1    -0.136404825269E+04   -0.18430E+00   -0.40258E+01  1376   0.896E+00    0.105E+00
DAV:   2    -0.136426522071E+04   -0.21697E+00   -0.22850E+00  2296   0.361E+00    0.524E-01
DAV:   3    -0.136427896723E+04   -0.13747E-01   -0.18759E-01  2568   0.702E-01    0.419E-01
DAV:   4    -0.136427628864E+04    0.26786E-02   -0.17006E-02  2568   0.308E-01    0.293E-01
DAV:   5    -0.136427404833E+04    0.22403E-02   -0.74914E-03  2360   0.172E-01    0.114E-01
DAV:   6    -0.136427414971E+04   -0.10138E-03   -0.48000E-03  2376   0.120E-01    0.730E-02
DAV:   7    -0.136427420653E+04   -0.56819E-04   -0.19799E-03  2456   0.801E-02    0.555E-02
DAV:   8    -0.136427420060E+04    0.59330E-05   -0.51160E-04  2624   0.469E-02    0.343E-02
DAV:   9    -0.136427419620E+04    0.43986E-05   -0.18950E-04  2488   0.270E-02    0.221E-02
DAV:  10    -0.136427420083E+04   -0.46273E-05   -0.71105E-05  2528   0.168E-02    0.157E-02
DAV:  11    -0.136427419943E+04    0.13927E-05   -0.27667E-05  2344   0.110E-02    0.748E-03
DAV:  12    -0.136427419943E+04   -0.59663E-09   -0.14776E-05  1896   0.819E-03    0.534E-03
DAV:  13    -0.136427419920E+04    0.22988E-06   -0.22663E-06  1024   0.473E-03
  20 F= -.13642742E+04 E0= -.13642742E+04  d E =-.410248E+00
 BRION: g(F)=  0.114E+00 g(S)=  0.000E+00 retain N=  3 mean eig= 4.65
 eig:   1.584  6.176  6.176
