 running on  160 total cores
 distrk:  each k-point on  160 cores,    1 groups
 distr:  one band on   20 cores,    8 groups
 using from now: INCAR     
 vasp.5.4.4.18Apr17-6-g9f103f2a35 (build May 01 2020 14:22:42) gamma-only       
  
 POSCAR found type information on POSCAR  O  La Zr Li Al
 POSCAR found :  5 types and     188 ions
 scaLAPACK will be used
 LDA part: xc-table for Pade appr. of Perdew
 POSCAR, INCAR and KPOINTS ok, starting setup
 FFT: planning ...
 WAVECAR not read
 WARNING: random wavefunctions but no delay for mixing, default for NELMDL
 entering main loop
       N       E                     dE             d eps       ncg     rms          rms(c)
DAV:   1     0.252906759020E+05    0.25291E+05   -0.42076E+05  1632   0.253E+03
DAV:   2     0.949849457734E+04   -0.15792E+05   -0.14524E+05  1424   0.712E+02
DAV:   3     0.270142273306E+04   -0.67971E+04   -0.61907E+04  1528   0.356E+02
DAV:   4    -0.377506146843E+03   -0.30789E+04   -0.28744E+04  2064   0.221E+02
DAV:   5    -0.142803460857E+04   -0.10505E+04   -0.10173E+04  2520   0.140E+02    0.116E+02
DAV:   6    -0.130910486809E+04    0.11893E+03   -0.14070E+03  2424   0.651E+01    0.503E+01
DAV:   7    -0.133104849611E+04   -0.21944E+02   -0.37141E+02  2560   0.335E+01    0.245E+01
DAV:   8    -0.133992057814E+04   -0.88721E+01   -0.25290E+02  2536   0.262E+01    0.259E+01
DAV:   9    -0.133279564057E+04    0.71249E+01   -0.56082E+01  2464   0.149E+01    0.775E+00
DAV:  10    -0.133390279001E+04   -0.11071E+01   -0.16199E+01  2608   0.843E+00    0.815E+00
DAV:  11    -0.133407862974E+04   -0.17584E+00   -0.70067E+00  2608   0.456E+00    0.444E+00
DAV:  12    -0.133388865182E+04    0.18998E+00   -0.27089E+00  2568   0.364E+00    0.291E+00
DAV:  13    -0.133396757355E+04   -0.78922E-01   -0.97784E-01  2568   0.184E+00    0.217E+00
DAV:  14    -0.133394482025E+04    0.22753E-01   -0.32883E-01  2584   0.116E+00    0.114E+00
DAV:  15    -0.133395392968E+04   -0.91094E-02   -0.10294E-01  2560   0.626E-01    0.100E+00
DAV:  16    -0.133395364583E+04    0.28385E-03   -0.30143E-02  2616   0.341E-01    0.663E-01
DAV:  17    -0.133395098065E+04    0.26652E-02   -0.29125E-02  2400   0.319E-01    0.298E-01
DAV:  18    -0.133395136643E+04   -0.38578E-03   -0.58751E-03  2456   0.169E-01    0.149E-01
DAV:  19    -0.133395139908E+04   -0.32658E-04   -0.21278E-03  2608   0.945E-02    0.102E-01
DAV:  20    -0.133395144291E+04   -0.43825E-04   -0.46092E-04  2616   0.436E-02    0.275E-02
DAV:  21    -0.133395145823E+04   -0.15323E-04   -0.16434E-04  2616   0.231E-02    0.381E-02
DAV:  22    -0.133395147642E+04   -0.18190E-04   -0.55612E-05  2504   0.152E-02    0.149E-02
DAV:  23    -0.133395146996E+04    0.64665E-05   -0.32087E-05  2168   0.115E-02    0.121E-02
DAV:  24    -0.133395147566E+04   -0.56997E-05   -0.13947E-05  1808   0.863E-03    0.385E-03
DAV:  25    -0.133395147555E+04    0.10675E-06   -0.31458E-06  1032   0.483E-03
   1 F= -.13339515E+04 E0= -.13339515E+04  d E =-.133395E+04
 BRION: g(F)=  0.573E+02 g(S)=  0.000E+00
 bond charge predicted
       N       E                     dE             d eps       ncg     rms          rms(c)
DAV:   1    -0.129972730352E+04    0.34224E+02   -0.69049E+03  1640   0.124E+02    0.265E+01
DAV:   2    -0.134944911795E+04   -0.49722E+02   -0.58038E+02  2560   0.548E+01    0.138E+01
DAV:   3    -0.134781703353E+04    0.16321E+01   -0.34108E+01  2616   0.150E+01    0.911E+00
DAV:   4    -0.134576399661E+04    0.20530E+01   -0.10872E+01  2456   0.707E+00    0.430E+00
DAV:   5    -0.134551780896E+04    0.24619E+00   -0.35435E+00  2520   0.425E+00    0.293E+00
DAV:   6    -0.134545569535E+04    0.62114E-01   -0.23777E+00  2608   0.273E+00    0.159E+00
DAV:   7    -0.134542530558E+04    0.30390E-01   -0.37190E-01  2536   0.153E+00    0.865E-01
DAV:   8    -0.134542786808E+04   -0.25625E-02   -0.28021E-01  2600   0.928E-01    0.659E-01
DAV:   9    -0.134542483797E+04    0.30301E-02   -0.45984E-02  2544   0.514E-01    0.444E-01
DAV:  10    -0.134542374478E+04    0.10932E-02   -0.38283E-02  2400   0.323E-01    0.193E-01
DAV:  11    -0.134542484935E+04   -0.11046E-02   -0.15090E-02  2584   0.216E-01    0.201E-01
DAV:  12    -0.134542435876E+04    0.49058E-03   -0.24911E-03  2576   0.113E-01    0.122E-01
DAV:  13    -0.134542428325E+04    0.75515E-04   -0.23671E-03  2528   0.807E-02    0.295E-02
DAV:  14    -0.134542430895E+04   -0.25703E-04   -0.31791E-04  2616   0.381E-02    0.134E-02
DAV:  15    -0.134542431592E+04   -0.69723E-05   -0.62912E-05  2624   0.179E-02    0.133E-02
DAV:  16    -0.134542431553E+04    0.39543E-06   -0.21641E-05  2480   0.106E-02    0.902E-03
DAV:  17    -0.134542431596E+04   -0.42956E-06   -0.11772E-05  1968   0.728E-03    0.429E-03
DAV:  18    -0.134542431599E+04   -0.28551E-07   -0.30929E-06  1136   0.537E-03
   2 F= -.13454243E+04 E0= -.13454243E+04  d E =-.114728E+02
 BRION: g(F)=  0.142E+03 g(S)=  0.000E+00 retain N=  1 mean eig= 0.35
 eig:   0.350
 bond charge predicted
       N       E                     dE             d eps       ncg     rms          rms(c)
DAV:   1    -0.133328543291E+04    0.12139E+02   -0.22496E+03  1312   0.561E+01    0.204E+01
DAV:   2    -0.135868721254E+04   -0.25402E+02   -0.33090E+02  2536   0.293E+01    0.168E+01
DAV:   3    -0.135566970475E+04    0.30175E+01   -0.27263E+01  2480   0.112E+01    0.117E+01
DAV:   4    -0.135404329775E+04    0.16264E+01   -0.28796E+01  2096   0.693E+00    0.510E+00
DAV:   5    -0.135441090138E+04   -0.36760E+00   -0.54166E+00  2448   0.402E+00    0.631E+00
DAV:   6    -0.135371923796E+04    0.69166E+00   -0.31355E+00  2552   0.263E+00    0.215E+00
DAV:   7    -0.135372259924E+04   -0.33613E-02   -0.14137E+00  2528   0.185E+00    0.927E-01
DAV:   8    -0.135371970195E+04    0.28973E-02   -0.15158E-01  2536   0.926E-01    0.601E-01
DAV:   9    -0.135371922573E+04    0.47622E-03   -0.47535E-02  2616   0.371E-01    0.282E-01
DAV:  10    -0.135371919592E+04    0.29804E-04   -0.11789E-02  2616   0.205E-01    0.106E-01
DAV:  11    -0.135371944038E+04   -0.24445E-03   -0.19241E-03  2560   0.117E-01    0.774E-02
DAV:  12    -0.135371941461E+04    0.25761E-04   -0.12102E-03  2624   0.731E-02    0.609E-02
DAV:  13    -0.135371942865E+04   -0.14039E-04   -0.79326E-04  2624   0.508E-02    0.385E-02
DAV:  14    -0.135371942759E+04    0.10681E-05   -0.24488E-04  2624   0.277E-02    0.214E-02
DAV:  15    -0.135371942701E+04    0.57371E-06   -0.51577E-05  2528   0.160E-02    0.179E-02
DAV:  16    -0.135371942413E+04    0.28785E-05   -0.24306E-05  2344   0.975E-03    0.971E-03
DAV:  17    -0.135371942351E+04    0.61933E-06   -0.77331E-06  1752   0.599E-03
   3 F= -.13537194E+04 E0= -.13537194E+04  d E =-.829511E+01
 BRION: g(F)=  0.211E+02 g(S)=  0.000E+00 retain N=  2 mean eig= 1.82
 eig:   0.207  3.428
 bond charge predicted
       N       E                     dE             d eps       ncg     rms          rms(c)
DAV:   1    -0.135329720205E+04    0.42222E+00   -0.74370E+02  1376   0.344E+01    0.842E+00
DAV:   2    -0.135794589283E+04   -0.46487E+01   -0.55877E+01  2464   0.153E+01    0.488E+00
DAV:   3    -0.135780787825E+04    0.13801E+00   -0.38671E+00  2552   0.504E+00    0.389E+00
DAV:   4    -0.135761038702E+04    0.19749E+00   -0.20378E+00  2232   0.239E+00    0.186E+00
DAV:   5    -0.135760042686E+04    0.99602E-02   -0.52778E-01  2488   0.156E+00    0.176E+00
DAV:   6    -0.135755883975E+04    0.41587E-01   -0.54235E-01  2424   0.138E+00    0.703E-01
DAV:   7    -0.135756475167E+04   -0.59119E-02   -0.17821E-01  2416   0.752E-01    0.695E-01
DAV:   8    -0.135756231644E+04    0.24352E-02   -0.48382E-02  2552   0.370E-01    0.457E-01
DAV:   9    -0.135755934514E+04    0.29713E-02   -0.19667E-02  2520   0.247E-01    0.199E-01
DAV:  10    -0.135756006061E+04   -0.71547E-03   -0.14440E-02  2528   0.182E-01    0.170E-01
DAV:  11    -0.135755958052E+04    0.48009E-03   -0.20797E-03  2528   0.106E-01    0.793E-02
DAV:  12    -0.135755960548E+04   -0.24959E-04   -0.13993E-03  2488   0.587E-02    0.330E-02
DAV:  13    -0.135755962186E+04   -0.16379E-04   -0.17045E-04  2616   0.283E-02    0.222E-02
DAV:  14    -0.135755961792E+04    0.39404E-05   -0.45323E-05  2624   0.138E-02    0.141E-02
DAV:  15    -0.135755961821E+04   -0.28673E-06   -0.31442E-05  2448   0.101E-02    0.442E-03
DAV:  16    -0.135755961830E+04   -0.89000E-07   -0.22368E-06  1112   0.449E-03
   4 F= -.13575596E+04 E0= -.13575596E+04  d E =-.384019E+01
 BRION: g(F)=  0.550E+01 g(S)=  0.000E+00 retain N=  2 mean eig= 0.32
 eig:   0.319  0.319
 bond charge predicted
       N       E                     dE             d eps       ncg     rms          rms(c)
DAV:   1    -0.135888564682E+04   -0.13260E+01   -0.21449E+02  1376   0.203E+01    0.367E+00
DAV:   2    -0.135997238409E+04   -0.10867E+01   -0.11755E+01  2336   0.770E+00    0.178E+00
DAV:   3    -0.135998239473E+04   -0.10011E-01   -0.80443E-01  2624   0.168E+00    0.149E+00
DAV:   4    -0.135994408531E+04    0.38309E-01   -0.24427E-01  2544   0.947E-01    0.724E-01
DAV:   5    -0.135994059547E+04    0.34898E-02   -0.68922E-02  2456   0.554E-01    0.489E-01
DAV:   6    -0.135993967092E+04    0.92455E-03   -0.52547E-02  2552   0.406E-01    0.236E-01
DAV:   7    -0.135993963152E+04    0.39401E-04   -0.14394E-02  2288   0.217E-01    0.206E-01
DAV:   8    -0.135993956279E+04    0.68724E-04   -0.44983E-03  2408   0.112E-01    0.126E-01
DAV:   9    -0.135993938047E+04    0.18232E-03   -0.21282E-03  2600   0.804E-02    0.571E-02
DAV:  10    -0.135993944861E+04   -0.68140E-04   -0.10102E-03  2512   0.572E-02    0.675E-02
DAV:  11    -0.135993939702E+04    0.51598E-04   -0.36383E-04  2512   0.366E-02    0.282E-02
DAV:  12    -0.135993939944E+04   -0.24216E-05   -0.15819E-04  2408   0.217E-02    0.129E-02
DAV:  13    -0.135993940192E+04   -0.24845E-05   -0.27683E-05  2280   0.108E-02    0.926E-03
DAV:  14    -0.135993940127E+04    0.65693E-06   -0.37078E-06  1192   0.555E-03
   5 F= -.13599394E+04 E0= -.13599394E+04  d E =-.237978E+01
 BRION: g(F)=  0.262E+01 g(S)=  0.000E+00 retain N=  3 mean eig= 0.19
 eig:   0.010  0.064  0.508
 bond charge predicted
       N       E                     dE             d eps       ncg     rms          rms(c)
DAV:   1    -0.136052879530E+04   -0.58939E+00   -0.21793E+02  1360   0.203E+01    0.296E+00
DAV:   2    -0.136157749151E+04   -0.10487E+01   -0.11086E+01  2288   0.760E+00    0.148E+00
DAV:   3    -0.136160349476E+04   -0.26003E-01   -0.74673E-01  2616   0.153E+00    0.121E+00
DAV:   4    -0.136157276515E+04    0.30730E-01   -0.13545E-01  2568   0.782E-01    0.655E-01
DAV:   5    -0.136156437824E+04    0.83869E-02   -0.56936E-02  2400   0.475E-01    0.325E-01
DAV:   6    -0.136156504863E+04   -0.67039E-03   -0.30329E-02  2568   0.333E-01    0.207E-01
DAV:   7    -0.136156490597E+04    0.14267E-03   -0.95928E-03  2248   0.187E-01    0.152E-01
DAV:   8    -0.136156497358E+04   -0.67614E-04   -0.39669E-03  2336   0.104E-01    0.861E-02
DAV:   9    -0.136156489542E+04    0.78156E-04   -0.81979E-04  2624   0.610E-02    0.578E-02
DAV:  10    -0.136156492687E+04   -0.31450E-04   -0.95526E-04  2552   0.519E-02    0.553E-02
DAV:  11    -0.136156488646E+04    0.40411E-04   -0.32593E-04  2520   0.368E-02    0.196E-02
DAV:  12    -0.136156489307E+04   -0.66104E-05   -0.11190E-04  2448   0.211E-02    0.113E-02
DAV:  13    -0.136156489369E+04   -0.62019E-06   -0.23063E-05  2160   0.987E-03    0.742E-03
DAV:  14    -0.136156489363E+04    0.64421E-07   -0.88094E-06  1672   0.660E-03
   6 F= -.13615649E+04 E0= -.13615649E+04  d E =-.162549E+01
 BRION: g(F)=  0.156E+01 g(S)=  0.000E+00 retain N=  4 mean eig= 0.54
 eig:   0.560  0.201  0.703  0.703
 bond charge predicted
       N       E                     dE             d eps       ncg     rms          rms(c)
DAV:   1    -0.136183032513E+04   -0.26543E+00   -0.20421E+02  1360   0.201E+01    0.273E+00
DAV:   2    -0.136282393664E+04   -0.99361E+00   -0.10433E+01  2288   0.744E+00    0.140E+00
DAV:   3    -0.136285562831E+04   -0.31692E-01   -0.72686E-01  2608   0.153E+00    0.111E+00
DAV:   4    -0.136282941660E+04    0.26212E-01   -0.13029E-01  2528   0.764E-01    0.581E-01
DAV:   5    -0.136282448685E+04    0.49297E-02   -0.45765E-02  2488   0.438E-01    0.297E-01
DAV:   6    -0.136282504068E+04   -0.55383E-03   -0.23903E-02  2576   0.293E-01    0.164E-01
DAV:   7    -0.136282504663E+04   -0.59518E-05   -0.65106E-03  2240   0.164E-01    0.131E-01
DAV:   8    -0.136282507425E+04   -0.27621E-04   -0.25329E-03  2360   0.837E-02    0.731E-02
DAV:   9    -0.136282503865E+04    0.35599E-04   -0.61845E-04  2616   0.536E-02    0.438E-02
DAV:  10    -0.136282505560E+04   -0.16949E-04   -0.49071E-04  2528   0.397E-02    0.388E-02
DAV:  11    -0.136282504211E+04    0.13493E-04   -0.16641E-04  2520   0.263E-02    0.160E-02
DAV:  12    -0.136282504467E+04   -0.25598E-05   -0.61368E-05  2408   0.146E-02    0.983E-03
DAV:  13    -0.136282504450E+04    0.17362E-06   -0.12046E-05  1832   0.800E-03    0.577E-03
DAV:  14    -0.136282504451E+04   -0.13533E-07   -0.54257E-06  1408   0.558E-03
   7 F= -.13628250E+04 E0= -.13628250E+04  d E =-.126015E+01
 BRION: g(F)=  0.615E+00 g(S)=  0.000E+00 retain N=  5 mean eig= 0.79
 eig:   1.264  1.264  0.537  0.196  0.701
 bond charge predicted
       N       E                     dE             d eps       ncg     rms          rms(c)
DAV:   1    -0.136297555987E+04   -0.15052E+00   -0.11179E+02  1368   0.150E+01    0.204E+00
DAV:   2    -0.136352913155E+04   -0.55357E+00   -0.58215E+00  2304   0.573E+00    0.102E+00
DAV:   3    -0.136355314726E+04   -0.24016E-01   -0.43019E-01  2624   0.112E+00    0.796E-01
DAV:   4    -0.136354127879E+04    0.11868E-01   -0.62287E-02  2568   0.552E-01    0.435E-01
DAV:   5    -0.136353873492E+04    0.25439E-02   -0.23512E-02  2464   0.315E-01    0.195E-01
DAV:   6    -0.136353937965E+04   -0.64473E-03   -0.10946E-02  2576   0.198E-01    0.129E-01
DAV:   7    -0.136353930680E+04    0.72846E-04   -0.32059E-03  2272   0.116E-01    0.958E-02
DAV:   8    -0.136353932406E+04   -0.17257E-04   -0.15397E-03  2360   0.666E-02    0.525E-02
DAV:   9    -0.136353930850E+04    0.15562E-04   -0.26583E-04  2568   0.378E-02    0.377E-02
DAV:  10    -0.136353930975E+04   -0.12476E-05   -0.33398E-04  2512   0.320E-02    0.274E-02
DAV:  11    -0.136353930468E+04    0.50707E-05   -0.96456E-05  2472   0.202E-02    0.119E-02
DAV:  12    -0.136353930619E+04   -0.15125E-05   -0.35222E-05  2296   0.114E-02    0.785E-03
DAV:  13    -0.136353930588E+04    0.31153E-06   -0.64661E-06  1520   0.658E-03
   8 F= -.13635393E+04 E0= -.13635393E+04  d E =-.714261E+00
 BRION: g(F)=  0.452E+00 g(S)=  0.000E+00 retain N=  6 mean eig= 0.67
 eig:   1.433  1.433  0.107  0.322  0.322  0.389
 bond charge predicted
       N       E                     dE             d eps       ncg     rms          rms(c)
DAV:   1    -0.136367531889E+04   -0.13601E+00   -0.83052E+01  1376   0.130E+01    0.161E+00
DAV:   2    -0.136409313966E+04   -0.41782E+00   -0.44031E+00  2304   0.504E+00    0.805E-01
DAV:   3    -0.136411539578E+04   -0.22256E-01   -0.33348E-01  2608   0.987E-01    0.641E-01
DAV:   4    -0.136410923922E+04    0.61566E-02   -0.39471E-02  2600   0.455E-01    0.398E-01
DAV:   5    -0.136410651005E+04    0.27292E-02   -0.16687E-02  2424   0.261E-01    0.161E-01
DAV:   6    -0.136410707726E+04   -0.56721E-03   -0.81556E-03  2544   0.174E-01    0.124E-01
DAV:   7    -0.136410701285E+04    0.64418E-04   -0.34310E-03  2376   0.114E-01    0.862E-02
DAV:   8    -0.136410704057E+04   -0.27729E-04   -0.15621E-03  2520   0.709E-02    0.537E-02
DAV:   9    -0.136410702225E+04    0.18329E-04   -0.26778E-04  2496   0.367E-02    0.412E-02
DAV:  10    -0.136410702088E+04    0.13664E-05   -0.28097E-04  2400   0.284E-02    0.253E-02
DAV:  11    -0.136410701741E+04    0.34707E-05   -0.94425E-05  2424   0.208E-02    0.988E-03
DAV:  12    -0.136410701928E+04   -0.18714E-05   -0.31794E-05  2296   0.120E-02    0.927E-03
DAV:  13    -0.136410701841E+04    0.87068E-06   -0.10863E-05  1656   0.707E-03    0.428E-03
DAV:  14    -0.136410701844E+04   -0.32305E-07   -0.39693E-06  1200   0.596E-03
   9 F= -.13641070E+04 E0= -.13641070E+04  d E =-.567713E+00
 BRION: g(F)=  0.354E+00 g(S)=  0.000E+00 retain N=  7 mean eig= 1.10
 eig:   1.841  1.841  1.325  1.325  0.481  0.587  0.307
 bond charge predicted
       N       E                     dE             d eps       ncg     rms          rms(c)
DAV:   1    -0.136423750502E+04   -0.13049E+00   -0.58897E+01  1376   0.110E+01    0.128E+00
DAV:   2    -0.136453937941E+04   -0.30187E+00   -0.31910E+00  2304   0.429E+00    0.673E-01
DAV:   3    -0.136455560230E+04   -0.16223E-01   -0.24648E-01  2600   0.849E-01    0.530E-01
DAV:   4    -0.136455100942E+04    0.45929E-02   -0.27491E-02  2600   0.385E-01    0.339E-01
DAV:   5    -0.136454851554E+04    0.24939E-02   -0.11416E-02  2464   0.215E-01    0.136E-01
DAV:   6    -0.136454874731E+04   -0.23178E-03   -0.63594E-03  2480   0.153E-01    0.910E-02
DAV:   7    -0.136454879849E+04   -0.51175E-04   -0.26924E-03  2368   0.997E-02    0.706E-02
DAV:   8    -0.136454880577E+04   -0.72767E-05   -0.91426E-04  2584   0.556E-02    0.414E-02
DAV:   9    -0.136454880088E+04    0.48895E-05   -0.20703E-04  2584   0.314E-02    0.309E-02
DAV:  10    -0.136454880165E+04   -0.77391E-06   -0.14131E-04  2544   0.215E-02    0.206E-02
DAV:  11    -0.136454879968E+04    0.19727E-05   -0.66002E-05  2400   0.162E-02    0.830E-03
DAV:  12    -0.136454880009E+04   -0.41106E-06   -0.17273E-05  1960   0.982E-03    0.729E-03
DAV:  13    -0.136454879963E+04    0.45466E-06   -0.72524E-06  1456   0.582E-03
  10 F= -.13645488E+04 E0= -.13645488E+04  d E =-.441781E+00
 BRION: g(F)=  0.202E+00 g(S)=  0.000E+00 retain N=  8 mean eig= 1.70
 eig:   4.170  4.170  1.373  1.023  1.023  0.385  0.522  0.905
 bond charge predicted
       N       E                     dE             d eps       ncg     rms          rms(c)
DAV:   1    -0.136464778985E+04   -0.98990E-01   -0.43398E+01  1384   0.941E+00    0.113E+00
DAV:   2    -0.136487319483E+04   -0.22540E+00   -0.23833E+00  2288   0.375E+00    0.573E-01
DAV:   3    -0.136488614085E+04   -0.12946E-01   -0.18779E-01  2608   0.726E-01    0.460E-01
DAV:   4    -0.136488297325E+04    0.31676E-02   -0.19424E-02  2608   0.327E-01    0.303E-01
DAV:   5    -0.136488092085E+04    0.20524E-02   -0.86302E-03  2376   0.189E-01    0.115E-01
DAV:   6    -0.136488117913E+04   -0.25828E-03   -0.49689E-03  2496   0.131E-01    0.836E-02
DAV:   7    -0.136488119859E+04   -0.19463E-04   -0.18544E-03  2480   0.819E-02    0.619E-02
DAV:   8    -0.136488119875E+04   -0.16116E-06   -0.68857E-04  2600   0.495E-02    0.357E-02
DAV:   9    -0.136488119350E+04    0.52565E-05   -0.14714E-04  2528   0.262E-02    0.262E-02
DAV:  10    -0.136488119453E+04   -0.10317E-05   -0.78715E-05  2576   0.170E-02    0.156E-02
DAV:  11    -0.136488119423E+04    0.30029E-06   -0.33670E-05  2352   0.123E-02    0.730E-03
DAV:  12    -0.136488119436E+04   -0.13161E-06   -0.10327E-05  1776   0.800E-03    0.608E-03
DAV:  13    -0.136488119411E+04    0.24655E-06   -0.60958E-06  1408   0.565E-03
  11 F= -.13648812E+04 E0= -.13648812E+04  d E =-.332394E+00
 BRION: g(F)=  0.135E+00 g(S)=  0.000E+00 retain N=  9 mean eig= 2.16
 eig:   6.026  6.026  1.912  1.031  1.031  1.289  1.289  0.415  0.415
 bond charge predicted
       N       E                     dE             d eps       ncg     rms          rms(c)
DAV:   1    -0.136491244112E+04   -0.31247E-01   -0.55734E+01  1384   0.107E+01    0.125E+00
DAV:   2    -0.136520649709E+04   -0.29406E+00   -0.31209E+00  2304   0.434E+00    0.640E-01
DAV:   3    -0.136522368633E+04   -0.17189E-01   -0.24100E-01  2584   0.831E-01    0.518E-01
DAV:   4    -0.136522037596E+04    0.33104E-02   -0.23616E-02  2584   0.365E-01    0.366E-01
DAV:   5    -0.136521732861E+04    0.30474E-02   -0.12280E-02  2360   0.217E-01    0.140E-01
DAV:   6    -0.136521770623E+04   -0.37762E-03   -0.73036E-03  2448   0.156E-01    0.113E-01
DAV:   7    -0.136521768250E+04    0.23732E-04   -0.31358E-03  2448   0.103E-01    0.779E-02
DAV:   8    -0.136521767858E+04    0.39232E-05   -0.11781E-03  2608   0.659E-02    0.465E-02
DAV:   9    -0.136521766950E+04    0.90747E-05   -0.22434E-04  2544   0.324E-02    0.340E-02
DAV:  10    -0.136521767032E+04   -0.82020E-06   -0.96813E-05  2584   0.183E-02    0.184E-02
DAV:  11    -0.136521767212E+04   -0.17941E-05   -0.39777E-05  2456   0.132E-02    0.113E-02
DAV:  12    -0.136521767098E+04    0.11409E-05   -0.18265E-05  2208   0.101E-02    0.801E-03
DAV:  13    -0.136521767107E+04   -0.97847E-07   -0.14140E-05  1888   0.689E-03    0.498E-03
DAV:  14    -0.136521767080E+04    0.26937E-06   -0.13716E-06   976   0.433E-03
  12 F= -.13652177E+04 E0= -.13652177E+04  d E =-.336477E+00
 BRION: g(F)=  0.113E+00 g(S)=  0.000E+00 retain N= 10 mean eig= 2.53
 eig:   7.350  7.350  2.887  1.762  1.762  1.136  1.136  0.951  0.423  0.586
 bond charge predicted
       N       E                     dE             d eps       ncg     rms          rms(c)
DAV:   1    -0.136519290790E+04    0.24763E-01   -0.60873E+01  1384   0.112E+01    0.130E+00
DAV:   2    -0.136551229771E+04   -0.31939E+00   -0.33773E+00  2296   0.452E+00    0.651E-01
DAV:   3    -0.136553153975E+04   -0.19242E-01   -0.26626E-01  2592   0.857E-01    0.527E-01
DAV:   4    -0.136552810395E+04    0.34358E-02   -0.23954E-02  2600   0.373E-01    0.386E-01
DAV:   5    -0.136552412835E+04    0.39756E-02   -0.12558E-02  2320   0.223E-01    0.152E-01
DAV:   6    -0.136552438976E+04   -0.26141E-03   -0.89333E-03  2392   0.171E-01    0.111E-01
DAV:   7    -0.136552442193E+04   -0.32177E-04   -0.37277E-03  2440   0.110E-01    0.832E-02
DAV:   8    -0.136552440235E+04    0.19583E-04   -0.11501E-03  2584   0.679E-02    0.483E-02
DAV:   9    -0.136552438691E+04    0.15445E-04   -0.28575E-04  2416   0.348E-02    0.326E-02
DAV:  10    -0.136552439094E+04   -0.40345E-05   -0.11500E-04  2448   0.202E-02    0.184E-02
DAV:  11    -0.136552439213E+04   -0.11857E-05   -0.42944E-05  2464   0.141E-02    0.107E-02
DAV:  12    -0.136552439194E+04    0.19139E-06   -0.20425E-05  2240   0.102E-02    0.931E-03
DAV:  13    -0.136552439139E+04    0.54628E-06   -0.12577E-05  1800   0.675E-03    0.510E-03
DAV:  14    -0.136552439108E+04    0.31323E-06   -0.23614E-06  1016   0.498E-03
  13 F= -.13655244E+04 E0= -.13655244E+04  d E =-.306720E+00
 BRION: g(F)=  0.816E-01 g(S)=  0.000E+00 retain N=  7 mean eig= 3.55
 eig:   7.946  7.946  2.820  2.820  0.843  1.252  1.252
 bond charge predicted
       N       E                     dE             d eps       ncg     rms          rms(c)
DAV:   1    -0.136551612041E+04    0.82710E-02   -0.42472E+01  1376   0.936E+00    0.108E+00
DAV:   2    -0.136573881026E+04   -0.22269E+00   -0.23535E+00  2312   0.379E+00    0.548E-01
DAV:   3    -0.136575183874E+04   -0.13028E-01   -0.18305E-01  2592   0.701E-01    0.445E-01
DAV:   4    -0.136574927110E+04    0.25676E-02   -0.16411E-02  2600   0.310E-01    0.328E-01
DAV:   5    -0.136574616478E+04    0.31063E-02   -0.95871E-03  2240   0.194E-01    0.125E-01
DAV:   6    -0.136574644131E+04   -0.27653E-03   -0.69934E-03  2368   0.150E-01    0.100E-01
DAV:   7    -0.136574643763E+04    0.36734E-05   -0.26422E-03  2440   0.913E-02    0.724E-02
DAV:   8    -0.136574641685E+04    0.20786E-04   -0.79099E-04  2592   0.562E-02    0.388E-02
DAV:   9    -0.136574640468E+04    0.12166E-04   -0.19998E-04  2344   0.288E-02    0.261E-02
DAV:  10    -0.136574640813E+04   -0.34508E-05   -0.65365E-05  2416   0.158E-02    0.155E-02
DAV:  11    -0.136574640764E+04    0.49596E-06   -0.33485E-05  2360   0.116E-02    0.798E-03
DAV:  12    -0.136574640788E+04   -0.24837E-06   -0.11810E-05  1840   0.845E-03    0.765E-03
DAV:  13    -0.136574640742E+04    0.46613E-06   -0.68936E-06  1480   0.552E-03
  14 F= -.13657464E+04 E0= -.13657464E+04  d E =-.222016E+00
 BRION: g(F)=  0.656E-01 g(S)=  0.000E+00 retain N=  3 mean eig= 5.24
 eig:   6.933  6.933  1.841
 bond charge predicted
       N       E                     dE             d eps       ncg     rms          rms(c)
DAV:   1    -0.136576437009E+04   -0.17962E-01   -0.26654E+01  1376   0.739E+00    0.852E-01
DAV:   2    -0.136590453732E+04   -0.14017E+00   -0.14829E+00  2296   0.299E+00    0.430E-01
DAV:   3    -0.136591320464E+04   -0.86673E-02   -0.11872E-01  2608   0.564E-01    0.353E-01
DAV:   4    -0.136591179811E+04    0.14065E-02   -0.10198E-02  2608   0.248E-01    0.265E-01
DAV:   5    -0.136590989780E+04    0.19003E-02   -0.58530E-03  2304   0.149E-01    0.107E-01
DAV:   6    -0.136591000990E+04   -0.11210E-03   -0.43633E-03  2352   0.119E-01    0.816E-02
DAV:   7    -0.136591000351E+04    0.63880E-05   -0.19214E-03  2456   0.780E-02    0.596E-02
DAV:   8    -0.136590999094E+04    0.12567E-04   -0.58808E-04  2560   0.489E-02    0.344E-02
DAV:   9    -0.136590998233E+04    0.86085E-05   -0.14738E-04  2392   0.243E-02    0.228E-02
DAV:  10    -0.136590998416E+04   -0.18266E-05   -0.50133E-05  2416   0.134E-02    0.130E-02
DAV:  11    -0.136590998499E+04   -0.82506E-06   -0.20271E-05  2136   0.964E-03    0.851E-03
DAV:  12    -0.136590998440E+04    0.58443E-06   -0.98133E-06  1744   0.737E-03
  15 F= -.13659100E+04 E0= -.13659100E+04  d E =-.163577E+00
 BRION: g(F)=  0.545E-01 g(S)=  0.000E+00 retain N=  3 mean eig= 5.66
 eig:   7.491  7.491  2.012
 bond charge predicted
       N       E                     dE             d eps       ncg     rms          rms(c)
DAV:   1    -0.136587287930E+04    0.37106E-01   -0.37973E+01  1376   0.880E+00    0.100E+00
DAV:   2    -0.136607049218E+04   -0.19761E+00   -0.20829E+00  2304   0.354E+00    0.511E-01
DAV:   3    -0.136608207397E+04   -0.11582E-01   -0.16250E-01  2608   0.655E-01    0.413E-01
DAV:   4    -0.136607982118E+04    0.22528E-02   -0.14205E-02  2608   0.290E-01    0.304E-01
DAV:   5    -0.136607709767E+04    0.27235E-02   -0.79445E-03  2304   0.175E-01    0.121E-01
DAV:   6    -0.136607724651E+04   -0.14884E-03   -0.58918E-03  2336   0.137E-01    0.861E-02
DAV:   7    -0.136607726734E+04   -0.20830E-04   -0.23769E-03  2456   0.863E-02    0.660E-02
DAV:   8    -0.136607725041E+04    0.16934E-04   -0.65375E-04  2568   0.522E-02    0.369E-02
DAV:   9    -0.136607723847E+04    0.11940E-04   -0.20037E-04  2408   0.278E-02    0.236E-02
DAV:  10    -0.136607724232E+04   -0.38505E-05   -0.64077E-05  2456   0.156E-02    0.154E-02
DAV:  11    -0.136607724184E+04    0.47746E-06   -0.33114E-05  2320   0.115E-02    0.848E-03
DAV:  12    -0.136607724180E+04    0.37267E-07   -0.12728E-05  1888   0.863E-03    0.764E-03
DAV:  13    -0.136607724143E+04    0.37575E-06   -0.85272E-06  1616   0.566E-03
  16 F= -.13660772E+04 E0= -.13660772E+04  d E =-.167257E+00
 BRION: g(F)=  0.459E-01 g(S)=  0.000E+00 retain N=  2 mean eig= 4.97
 eig:   4.974  4.974
 bond charge predicted
       N       E                     dE             d eps       ncg     rms          rms(c)
DAV:   1    -0.136610003033E+04   -0.22789E-01   -0.12104E+01  1376   0.492E+00    0.559E-01
DAV:   2    -0.136616188666E+04   -0.61856E-01   -0.65024E-01  2296   0.197E+00    0.290E-01
DAV:   3    -0.136616547841E+04   -0.35918E-02   -0.50776E-02  2600   0.367E-01    0.237E-01
DAV:   4    -0.136616478958E+04    0.68883E-03   -0.44106E-03  2600   0.159E-01    0.175E-01
DAV:   5    -0.136616391625E+04    0.87334E-03   -0.25952E-03  2256   0.987E-02    0.701E-02
DAV:   6    -0.136616397169E+04   -0.55439E-04   -0.19339E-03  2320   0.782E-02    0.527E-02
DAV:   7    -0.136616396818E+04    0.35069E-05   -0.79173E-04  2440   0.493E-02    0.394E-02
DAV:   8    -0.136616396082E+04    0.73577E-05   -0.24042E-04  2512   0.314E-02    0.223E-02
DAV:   9    -0.136616395715E+04    0.36687E-05   -0.67571E-05  2360   0.161E-02    0.145E-02
DAV:  10    -0.136616395804E+04   -0.89219E-06   -0.18835E-05  2256   0.867E-03    0.912E-03
DAV:  11    -0.136616395780E+04    0.23963E-06   -0.88754E-06  1688   0.677E-03
  17 F= -.13661640E+04 E0= -.13661640E+04  d E =-.867164E-01
 BRION: g(F)=  0.424E-01 g(S)=  0.000E+00 retain N=  3 mean eig= 5.23
 eig:   7.122  7.122  1.434
 bond charge predicted
       N       E                     dE             d eps       ncg     rms          rms(c)
DAV:   1    -0.136613262868E+04    0.31329E-01   -0.26508E+01  1376   0.728E+00    0.821E-01
DAV:   2    -0.136626808048E+04   -0.13545E+00   -0.14224E+00  2296   0.290E+00    0.420E-01
DAV:   3    -0.136627604164E+04   -0.79612E-02   -0.11107E-01  2608   0.540E-01    0.339E-01
DAV:   4    -0.136627457654E+04    0.14651E-02   -0.94748E-03  2608   0.235E-01    0.251E-01
DAV:   5    -0.136627270946E+04    0.18671E-02   -0.51879E-03  2312   0.142E-01    0.102E-01
DAV:   6    -0.136627278682E+04   -0.77362E-04   -0.40802E-03  2344   0.113E-01    0.700E-02
DAV:   7    -0.136627280212E+04   -0.15300E-04   -0.16383E-03  2400   0.713E-02    0.548E-02
DAV:   8    -0.136627279171E+04    0.10412E-04   -0.45937E-04  2568   0.438E-02    0.318E-02
DAV:   9    -0.136627278217E+04    0.95327E-05   -0.14554E-04  2408   0.234E-02    0.199E-02
DAV:  10    -0.136627278474E+04   -0.25717E-05   -0.45633E-05  2480   0.132E-02    0.129E-02
DAV:  11    -0.136627278453E+04    0.21314E-06   -0.20702E-05  2128   0.943E-03    0.729E-03
DAV:  12    -0.136627278438E+04    0.15020E-06   -0.97456E-06  1760   0.718E-03
  18 F= -.13662728E+04 E0= -.13662728E+04  d E =-.108827E+00
 BRION: g(F)=  0.339E-01 g(S)=  0.000E+00 retain N=  2 mean eig= 3.01
 eig:   3.014  3.014
 bond charge predicted
       N       E                     dE             d eps       ncg     rms          rms(c)
DAV:   1    -0.136628749750E+04   -0.14713E-01   -0.94023E+00  1368   0.432E+00    0.476E-01
DAV:   2    -0.136633402265E+04   -0.46525E-01   -0.48568E-01  2296   0.172E+00    0.244E-01
DAV:   3    -0.136633666943E+04   -0.26468E-02   -0.36763E-02  2600   0.310E-01    0.198E-01
DAV:   4    -0.136633621479E+04    0.45464E-03   -0.30100E-03  2600   0.130E-01    0.151E-01
DAV:   5    -0.136633550432E+04    0.71047E-03   -0.18495E-03  2136   0.852E-02    0.611E-02
DAV:   6    -0.136633554724E+04   -0.42920E-04   -0.16373E-03  2248   0.693E-02    0.467E-02
DAV:   7    -0.136633555324E+04   -0.60004E-05   -0.57385E-04  2408   0.412E-02    0.369E-02
DAV:   8    -0.136633554745E+04    0.57828E-05   -0.16770E-04  2528   0.256E-02    0.211E-02
DAV:   9    -0.136633553794E+04    0.95124E-05   -0.70838E-05  2160   0.161E-02    0.112E-02
DAV:  10    -0.136633553983E+04   -0.18843E-05   -0.22248E-05  2232   0.928E-03    0.851E-03
DAV:  11    -0.136633553882E+04    0.10080E-05   -0.74333E-06  1560   0.608E-03    0.290E-03
DAV:  12    -0.136633553892E+04   -0.97716E-07   -0.21255E-06  1016   0.505E-03
  19 F= -.13663355E+04 E0= -.13663355E+04  d E =-.627545E-01
 BRION: g(F)=  0.298E-01 g(S)=  0.000E+00 retain N=  3 mean eig= 4.46
 eig:   6.040  6.040  1.308
 bond charge predicted
       N       E                     dE             d eps       ncg     rms          rms(c)
DAV:   1    -0.136632117731E+04    0.14362E-01   -0.18678E+01  1368   0.607E+00    0.668E-01
DAV:   2    -0.136641383876E+04   -0.92661E-01   -0.96752E-01  2296   0.239E+00    0.343E-01
DAV:   3    -0.136641926926E+04   -0.54305E-02   -0.74056E-02  2592   0.437E-01    0.279E-01
DAV:   4    -0.136641847487E+04    0.79439E-03   -0.59855E-03  2592   0.183E-01    0.215E-01
DAV:   5    -0.136641706953E+04    0.14053E-02   -0.34686E-03  2176   0.118E-01    0.909E-02
DAV:   6    -0.136641713367E+04   -0.64146E-04   -0.33787E-03  2272   0.991E-02    0.657E-02
DAV:   7    -0.136641714020E+04   -0.65279E-05   -0.11345E-03  2424   0.591E-02    0.532E-02
DAV:   8    -0.136641712775E+04    0.12453E-04   -0.35856E-04  2552   0.370E-02    0.301E-02
DAV:   9    -0.136641711029E+04    0.17453E-04   -0.13904E-04  2176   0.225E-02    0.166E-02
DAV:  10    -0.136641711401E+04   -0.37151E-05   -0.48675E-05  2416   0.130E-02    0.125E-02
DAV:  11    -0.136641711201E+04    0.19997E-05   -0.17992E-05  1912   0.905E-03    0.429E-03
DAV:  12    -0.136641711239E+04   -0.38043E-06   -0.48214E-06  1304   0.630E-03
  20 F= -.13664171E+04 E0= -.13664171E+04  d E =-.815735E-01
 BRION: g(F)=  0.268E-01 g(S)=  0.000E+00 retain N=  3 mean eig= 5.67
 eig:   7.574  7.574  1.872
