 running on  160 total cores
 distrk:  each k-point on  160 cores,    1 groups
 distr:  one band on   20 cores,    8 groups
 using from now: INCAR     
 vasp.5.4.4.18Apr17-6-g9f103f2a35 (build May 01 2020 14:22:42) gamma-only       
  
 POSCAR found type information on POSCAR  O  La Zr Li Al
 POSCAR found :  5 types and     188 ions
 scaLAPACK will be used
 LDA part: xc-table for Pade appr. of Perdew
 POSCAR, INCAR and KPOINTS ok, starting setup
 FFT: planning ...
 WAVECAR not read
 WARNING: random wavefunctions but no delay for mixing, default for NELMDL
 entering main loop
       N       E                     dE             d eps       ncg     rms          rms(c)
DAV:   1     0.252846896846E+05    0.25285E+05   -0.41921E+05  1592   0.253E+03
DAV:   2     0.946029690784E+04   -0.15824E+05   -0.14635E+05  1424   0.709E+02
DAV:   3     0.267047061618E+04   -0.67898E+04   -0.61877E+04  1528   0.356E+02
DAV:   4    -0.354542741227E+03   -0.30250E+04   -0.28307E+04  2032   0.223E+02
DAV:   5    -0.139810536540E+04   -0.10436E+04   -0.99743E+03  2536   0.136E+02    0.116E+02
DAV:   6    -0.130388621890E+04    0.94219E+02   -0.15412E+03  2464   0.663E+01    0.505E+01
DAV:   7    -0.132641745295E+04   -0.22531E+02   -0.41494E+02  2536   0.345E+01    0.263E+01
DAV:   8    -0.133220122853E+04   -0.57838E+01   -0.26688E+02  2512   0.276E+01    0.252E+01
DAV:   9    -0.132710724286E+04    0.50940E+01   -0.46697E+01  2552   0.144E+01    0.819E+00
DAV:  10    -0.132773898913E+04   -0.63175E+00   -0.15411E+01  2616   0.761E+00    0.683E+00
DAV:  11    -0.132812172288E+04   -0.38273E+00   -0.61310E+00  2592   0.423E+00    0.422E+00
DAV:  12    -0.132794173635E+04    0.17999E+00   -0.22974E+00  2536   0.348E+00    0.243E+00
DAV:  13    -0.132797605037E+04   -0.34314E-01   -0.86892E-01  2528   0.172E+00    0.151E+00
DAV:  14    -0.132797588414E+04    0.16623E-03   -0.22701E-01  2616   0.980E-01    0.950E-01
DAV:  15    -0.132798171374E+04   -0.58296E-02   -0.73000E-02  2560   0.530E-01    0.689E-01
DAV:  16    -0.132798168932E+04    0.24420E-04   -0.23132E-02  2624   0.291E-01    0.396E-01
DAV:  17    -0.132798073852E+04    0.95080E-03   -0.20239E-02  2384   0.258E-01    0.197E-01
DAV:  18    -0.132798103269E+04   -0.29417E-03   -0.43359E-03  2512   0.137E-01    0.720E-02
DAV:  19    -0.132798110428E+04   -0.71596E-04   -0.14021E-03  2624   0.720E-02    0.634E-02
DAV:  20    -0.132798115720E+04   -0.52919E-04   -0.38679E-04  2624   0.362E-02    0.160E-02
DAV:  21    -0.132798116270E+04   -0.55006E-05   -0.16540E-04  2552   0.226E-02    0.297E-02
DAV:  22    -0.132798118015E+04   -0.17449E-04   -0.60717E-05  2160   0.153E-02    0.101E-02
DAV:  23    -0.132798117869E+04    0.14573E-05   -0.28760E-05  1896   0.870E-03    0.763E-03
DAV:  24    -0.132798118324E+04   -0.45428E-05   -0.90474E-06  1184   0.766E-03    0.223E-03
DAV:  25    -0.132798118267E+04    0.56729E-06   -0.42149E-06  1032   0.470E-03
   1 F= -.13279812E+04 E0= -.13279812E+04  d E =-.132798E+04
 BRION: g(F)=  0.506E+02 g(S)=  0.000E+00
 bond charge predicted
       N       E                     dE             d eps       ncg     rms          rms(c)
DAV:   1    -0.130167299902E+04    0.26308E+02   -0.61976E+03  1680   0.118E+02    0.244E+01
DAV:   2    -0.134699248927E+04   -0.45319E+02   -0.52013E+02  2552   0.524E+01    0.130E+01
DAV:   3    -0.134565584220E+04    0.13366E+01   -0.31050E+01  2600   0.140E+01    0.909E+00
DAV:   4    -0.134404388965E+04    0.16120E+01   -0.11476E+01  2448   0.676E+00    0.428E+00
DAV:   5    -0.134383891299E+04    0.20498E+00   -0.28650E+00  2560   0.386E+00    0.291E+00
DAV:   6    -0.134374312661E+04    0.95786E-01   -0.22970E+00  2528   0.279E+00    0.138E+00
DAV:   7    -0.134375489970E+04   -0.11773E-01   -0.48815E-01  2528   0.158E+00    0.116E+00
DAV:   8    -0.134374602490E+04    0.88748E-02   -0.23276E-01  2616   0.823E-01    0.500E-01
DAV:   9    -0.134374744856E+04   -0.14237E-02   -0.42091E-02  2608   0.457E-01    0.352E-01
DAV:  10    -0.134374600305E+04    0.14455E-02   -0.14911E-02  2584   0.282E-01    0.169E-01
DAV:  11    -0.134374691851E+04   -0.91546E-03   -0.12958E-02  2592   0.202E-01    0.152E-01
DAV:  12    -0.134374679701E+04    0.12150E-03   -0.22207E-03  2608   0.997E-02    0.730E-02
DAV:  13    -0.134374679341E+04    0.35980E-05   -0.13165E-03  2624   0.642E-02    0.249E-02
DAV:  14    -0.134374680953E+04   -0.16120E-04   -0.22083E-04  2536   0.329E-02    0.179E-02
DAV:  15    -0.134374681425E+04   -0.47210E-05   -0.63939E-05  2616   0.162E-02    0.897E-03
DAV:  16    -0.134374681491E+04   -0.66147E-06   -0.19484E-05  2416   0.929E-03    0.507E-03
DAV:  17    -0.134374681544E+04   -0.53013E-06   -0.50777E-06  1376   0.656E-03
   2 F= -.13437468E+04 E0= -.13437468E+04  d E =-.157656E+02
 BRION: g(F)=  0.933E+02 g(S)=  0.000E+00 retain N=  1 mean eig= 0.39
 eig:   0.390
 bond charge predicted
       N       E                     dE             d eps       ncg     rms          rms(c)
DAV:   1    -0.133296913822E+04    0.10778E+02   -0.17393E+03  1328   0.482E+01    0.181E+01
DAV:   2    -0.135420515136E+04   -0.21236E+02   -0.28067E+02  2568   0.258E+01    0.164E+01
DAV:   3    -0.135162170130E+04    0.25835E+01   -0.29303E+01  2496   0.971E+00    0.113E+01
DAV:   4    -0.134977426094E+04    0.18474E+01   -0.21340E+01  2176   0.495E+00    0.433E+00
DAV:   5    -0.135013413955E+04   -0.35988E+00   -0.44528E+00  2512   0.332E+00    0.491E+00
DAV:   6    -0.134970420506E+04    0.42993E+00   -0.42931E+00  2520   0.275E+00    0.124E+00
DAV:   7    -0.134974753489E+04   -0.43330E-01   -0.66119E-01  2456   0.167E+00    0.127E+00
DAV:   8    -0.134972464113E+04    0.22894E-01   -0.31126E-01  2536   0.902E-01    0.476E-01
DAV:   9    -0.134972583499E+04   -0.11939E-02   -0.61444E-02  2512   0.499E-01    0.275E-01
DAV:  10    -0.134972628041E+04   -0.44542E-03   -0.17749E-02  2592   0.235E-01    0.153E-01
DAV:  11    -0.134972644640E+04   -0.16598E-03   -0.42810E-03  2616   0.132E-01    0.127E-01
DAV:  12    -0.134972625406E+04    0.19234E-03   -0.14692E-03  2624   0.727E-02    0.560E-02
DAV:  13    -0.134972630316E+04   -0.49107E-04   -0.12087E-03  2608   0.595E-02    0.385E-02
DAV:  14    -0.134972629261E+04    0.10554E-04   -0.17072E-04  2560   0.280E-02    0.216E-02
DAV:  15    -0.134972629248E+04    0.12795E-06   -0.65514E-05  2592   0.151E-02    0.778E-03
DAV:  16    -0.134972629381E+04   -0.13236E-05   -0.15623E-05  2392   0.821E-03    0.429E-03
DAV:  17    -0.134972629385E+04   -0.47541E-07   -0.18442E-06  1112   0.467E-03
   3 F= -.13497263E+04 E0= -.13497263E+04  d E =-.597948E+01
 BRION: g(F)=  0.107E+02 g(S)=  0.000E+00 retain N=  2 mean eig= 1.76
 eig:   0.216  3.304
 bond charge predicted
       N       E                     dE             d eps       ncg     rms          rms(c)
DAV:   1    -0.135055765212E+04   -0.83136E+00   -0.54401E+02  1376   0.320E+01    0.667E+00
DAV:   2    -0.135340537216E+04   -0.28477E+01   -0.33048E+01  2400   0.130E+01    0.324E+00
DAV:   3    -0.135341625667E+04   -0.10885E-01   -0.24863E+00  2608   0.341E+00    0.266E+00
DAV:   4    -0.135331911209E+04    0.97145E-01   -0.57635E-01  2560   0.156E+00    0.138E+00
DAV:   5    -0.135329737645E+04    0.21736E-01   -0.22852E-01  2336   0.107E+00    0.772E-01
DAV:   6    -0.135329671602E+04    0.66043E-03   -0.16662E-01  2512   0.771E-01    0.486E-01
DAV:   7    -0.135329744343E+04   -0.72741E-03   -0.47493E-02  2520   0.412E-01    0.383E-01
DAV:   8    -0.135329650954E+04    0.93389E-03   -0.10373E-02  2616   0.201E-01    0.217E-01
DAV:   9    -0.135329636020E+04    0.14934E-03   -0.55716E-03  2608   0.137E-01    0.114E-01
DAV:  10    -0.135329642272E+04   -0.62523E-04   -0.17812E-03  2224   0.858E-02    0.101E-01
DAV:  11    -0.135329634317E+04    0.79552E-04   -0.10676E-03  2360   0.556E-02    0.419E-02
DAV:  12    -0.135329634238E+04    0.79059E-06   -0.29452E-04  2544   0.334E-02    0.236E-02
DAV:  13    -0.135329634724E+04   -0.48556E-05   -0.10474E-04  2592   0.206E-02    0.150E-02
DAV:  14    -0.135329634725E+04   -0.10230E-07   -0.39865E-05  2512   0.115E-02    0.106E-02
DAV:  15    -0.135329634699E+04    0.25680E-06   -0.15099E-05  1960   0.754E-03    0.465E-03
DAV:  16    -0.135329634679E+04    0.19485E-06   -0.17000E-06  1056   0.466E-03
   4 F= -.13532963E+04 E0= -.13532963E+04  d E =-.357005E+01
 BRION: g(F)=  0.422E+01 g(S)=  0.000E+00 retain N=  3 mean eig= 2.32
 eig:   6.195  0.381  0.381
 bond charge predicted
       N       E                     dE             d eps       ncg     rms          rms(c)
DAV:   1    -0.135428392354E+04   -0.98758E+00   -0.22742E+02  1368   0.211E+01    0.346E+00
DAV:   2    -0.135541469716E+04   -0.11308E+01   -0.12225E+01  2304   0.811E+00    0.176E+00
DAV:   3    -0.135543268452E+04   -0.17987E-01   -0.85433E-01  2608   0.174E+00    0.142E+00
DAV:   4    -0.135539053568E+04    0.42149E-01   -0.23882E-01  2480   0.100E+00    0.661E-01
DAV:   5    -0.135538820656E+04    0.23291E-02   -0.81556E-02  2448   0.605E-01    0.490E-01
DAV:   6    -0.135538763633E+04    0.57023E-03   -0.67844E-02  2544   0.455E-01    0.248E-01
DAV:   7    -0.135538752216E+04    0.11417E-03   -0.11059E-02  2456   0.229E-01    0.209E-01
DAV:   8    -0.135538729858E+04    0.22358E-03   -0.56418E-03  2376   0.123E-01    0.869E-02
DAV:   9    -0.135538735029E+04   -0.51712E-04   -0.18257E-03  2616   0.784E-02    0.658E-02
DAV:  10    -0.135538733104E+04    0.19252E-04   -0.50113E-04  2480   0.473E-02    0.450E-02
DAV:  11    -0.135538733139E+04   -0.34936E-06   -0.36560E-04  2552   0.336E-02    0.217E-02
DAV:  12    -0.135538733076E+04    0.62840E-06   -0.82657E-05  2488   0.181E-02    0.113E-02
DAV:  13    -0.135538733223E+04   -0.14742E-05   -0.24567E-05  2392   0.100E-02    0.705E-03
DAV:  14    -0.135538733241E+04   -0.17036E-06   -0.78834E-06  1672   0.591E-03
   5 F= -.13553873E+04 E0= -.13553873E+04  d E =-.209099E+01
 BRION: g(F)=  0.250E+01 g(S)=  0.000E+00 retain N=  4 mean eig= 1.88
 eig:   5.836  0.657  0.515  0.515
 bond charge predicted
       N       E                     dE             d eps       ncg     rms          rms(c)
DAV:   1    -0.135618417624E+04   -0.79684E+00   -0.18860E+02  1344   0.193E+01    0.256E+00
DAV:   2    -0.135711209979E+04   -0.92792E+00   -0.99628E+00  2320   0.743E+00    0.139E+00
DAV:   3    -0.135714571776E+04   -0.33618E-01   -0.72420E-01  2616   0.157E+00    0.122E+00
DAV:   4    -0.135712485346E+04    0.20864E-01   -0.10324E-01  2592   0.695E-01    0.774E-01
DAV:   5    -0.135711116680E+04    0.13687E-01   -0.69993E-02  2168   0.506E-01    0.343E-01
DAV:   6    -0.135711297384E+04   -0.18070E-02   -0.38373E-02  2560   0.365E-01    0.377E-01
DAV:   7    -0.135711156999E+04    0.14039E-02   -0.19590E-02  2432   0.250E-01    0.209E-01
DAV:   8    -0.135711146223E+04    0.10776E-03   -0.57201E-03  2536   0.140E-01    0.101E-01
DAV:   9    -0.135711143378E+04    0.28452E-04   -0.87329E-04  2528   0.637E-02    0.713E-02
DAV:  10    -0.135711146663E+04   -0.32850E-04   -0.57344E-04  2320   0.396E-02    0.474E-02
DAV:  11    -0.135711142576E+04    0.40870E-04   -0.21276E-04  2512   0.340E-02    0.193E-02
DAV:  12    -0.135711144150E+04   -0.15746E-04   -0.24571E-04  2488   0.261E-02    0.254E-02
DAV:  13    -0.135711143194E+04    0.95666E-05   -0.53497E-05  2320   0.148E-02    0.110E-02
DAV:  14    -0.135711143208E+04   -0.14009E-06   -0.16162E-05  1888   0.763E-03    0.436E-03
DAV:  15    -0.135711143217E+04   -0.90964E-07   -0.14943E-06  1016   0.426E-03
   6 F= -.13571114E+04 E0= -.13571114E+04  d E =-.172410E+01
 BRION: g(F)=  0.166E+01 g(S)=  0.000E+00 retain N=  5 mean eig= 1.90
 eig:   6.400  0.859  0.764  0.764  0.693
 bond charge predicted
       N       E                     dE             d eps       ncg     rms          rms(c)
DAV:   1    -0.135756841059E+04   -0.45698E+00   -0.19687E+02  1352   0.193E+01    0.260E+00
DAV:   2    -0.135857879947E+04   -0.10104E+01   -0.10573E+01  2312   0.737E+00    0.144E+00
DAV:   3    -0.135860718123E+04   -0.28382E-01   -0.70374E-01  2624   0.150E+00    0.118E+00
DAV:   4    -0.135858102975E+04    0.26151E-01   -0.13126E-01  2568   0.742E-01    0.646E-01
DAV:   5    -0.135857232992E+04    0.86998E-02   -0.52952E-02  2448   0.464E-01    0.322E-01
DAV:   6    -0.135857294992E+04   -0.62000E-03   -0.24661E-02  2560   0.298E-01    0.235E-01
DAV:   7    -0.135857247386E+04    0.47606E-03   -0.78384E-03  2408   0.176E-01    0.150E-01
DAV:   8    -0.135857256486E+04   -0.90999E-04   -0.46645E-03  2408   0.108E-01    0.803E-02
DAV:   9    -0.135857250585E+04    0.59007E-04   -0.71543E-04  2408   0.553E-02    0.568E-02
DAV:  10    -0.135857248652E+04    0.19329E-04   -0.47110E-04  2384   0.410E-02    0.314E-02
DAV:  11    -0.135857248740E+04   -0.87533E-06   -0.17893E-04  2424   0.272E-02    0.127E-02
DAV:  12    -0.135857249162E+04   -0.42207E-05   -0.58654E-05  2432   0.143E-02    0.110E-02
DAV:  13    -0.135857249132E+04    0.30306E-06   -0.13850E-05  1888   0.814E-03    0.681E-03
DAV:  14    -0.135857249127E+04    0.44442E-07   -0.59215E-06  1472   0.565E-03
   7 F= -.13585725E+04 E0= -.13585725E+04  d E =-.146106E+01
 BRION: g(F)=  0.805E+00 g(S)=  0.000E+00 retain N=  6 mean eig= 2.11
 eig:   6.690  2.196  2.196  0.233  0.678  0.678
 bond charge predicted
       N       E                     dE             d eps       ncg     rms          rms(c)
DAV:   1    -0.135892461010E+04   -0.35212E+00   -0.87316E+01  1376   0.130E+01    0.183E+00
DAV:   2    -0.135937566601E+04   -0.45106E+00   -0.47489E+00  2304   0.514E+00    0.955E-01
DAV:   3    -0.135939154276E+04   -0.15877E-01   -0.33367E-01  2624   0.100E+00    0.753E-01
DAV:   4    -0.135938025321E+04    0.11290E-01   -0.57105E-02  2520   0.522E-01    0.391E-01
DAV:   5    -0.135937841117E+04    0.18420E-02   -0.21888E-02  2464   0.298E-01    0.200E-01
DAV:   6    -0.135937864712E+04   -0.23594E-03   -0.87465E-03  2584   0.166E-01    0.101E-01
DAV:   7    -0.135937864823E+04   -0.11177E-05   -0.20635E-03  2384   0.968E-02    0.690E-02
DAV:   8    -0.135937868716E+04   -0.38930E-04   -0.89447E-04  2400   0.503E-02    0.400E-02
DAV:   9    -0.135937867539E+04    0.11778E-04   -0.17152E-04  2600   0.304E-02    0.256E-02
DAV:  10    -0.135937867870E+04   -0.33158E-05   -0.18416E-04  2528   0.244E-02    0.163E-02
DAV:  11    -0.135937867721E+04    0.14886E-05   -0.46322E-05  2376   0.151E-02    0.754E-03
DAV:  12    -0.135937867852E+04   -0.13045E-05   -0.21301E-05  2168   0.873E-03    0.568E-03
DAV:  13    -0.135937867799E+04    0.52668E-06   -0.17871E-06  1032   0.541E-03
   8 F= -.13593787E+04 E0= -.13593787E+04  d E =-.806187E+00
 BRION: g(F)=  0.503E+00 g(S)=  0.000E+00 retain N=  6 mean eig= 1.62
 eig:   3.829  3.829  0.412  0.412  0.629  0.629
 bond charge predicted
       N       E                     dE             d eps       ncg     rms          rms(c)
DAV:   1    -0.135975069341E+04   -0.37201E+00   -0.53148E+01  1376   0.104E+01    0.137E+00
DAV:   2    -0.136001832375E+04   -0.26763E+00   -0.28284E+00  2296   0.395E+00    0.670E-01
DAV:   3    -0.136003275744E+04   -0.14434E-01   -0.22014E-01  2592   0.797E-01    0.546E-01
DAV:   4    -0.136002837996E+04    0.43775E-02   -0.27082E-02  2584   0.376E-01    0.342E-01
DAV:   5    -0.136002603462E+04    0.23453E-02   -0.13003E-02  2336   0.242E-01    0.138E-01
DAV:   6    -0.136002648524E+04   -0.45062E-03   -0.68241E-03  2504   0.161E-01    0.128E-01
DAV:   7    -0.136002639692E+04    0.88323E-04   -0.23741E-03  2552   0.963E-02    0.889E-02
DAV:   8    -0.136002635502E+04    0.41901E-04   -0.13362E-03  2560   0.653E-02    0.421E-02
DAV:   9    -0.136002634935E+04    0.56701E-05   -0.19319E-04  2472   0.317E-02    0.318E-02
DAV:  10    -0.136002634645E+04    0.28986E-05   -0.12003E-04  2480   0.211E-02    0.173E-02
DAV:  11    -0.136002634650E+04   -0.50903E-07   -0.37287E-05  2416   0.136E-02    0.819E-03
DAV:  12    -0.136002634756E+04   -0.10606E-05   -0.15770E-05  1976   0.796E-03    0.731E-03
DAV:  13    -0.136002634679E+04    0.77260E-06   -0.23195E-06  1024   0.551E-03
   9 F= -.13600263E+04 E0= -.13600263E+04  d E =-.647669E+00
 BRION: g(F)=  0.428E+00 g(S)=  0.000E+00 retain N=  7 mean eig= 1.99
 eig:   4.918  4.918  1.096  1.096  0.500  0.691  0.691
 bond charge predicted
       N       E                     dE             d eps       ncg     rms          rms(c)
DAV:   1    -0.136037676611E+04   -0.35042E+00   -0.72400E+01  1384   0.122E+01    0.150E+00
DAV:   2    -0.136075991504E+04   -0.38315E+00   -0.40640E+00  2296   0.485E+00    0.746E-01
DAV:   3    -0.136078272171E+04   -0.22807E-01   -0.32715E-01  2584   0.952E-01    0.617E-01
DAV:   4    -0.136077797290E+04    0.47488E-02   -0.34666E-02  2624   0.441E-01    0.427E-01
DAV:   5    -0.136077355151E+04    0.44214E-02   -0.15301E-02  2400   0.271E-01    0.183E-01
DAV:   6    -0.136077372198E+04   -0.17047E-03   -0.11759E-02  2336   0.214E-01    0.135E-01
DAV:   7    -0.136077381094E+04   -0.88955E-04   -0.54360E-03  2416   0.139E-01    0.117E-01
DAV:   8    -0.136077375005E+04    0.60885E-04   -0.17636E-03  2608   0.812E-02    0.670E-02
DAV:   9    -0.136077370738E+04    0.42670E-04   -0.62347E-04  2568   0.475E-02    0.370E-02
DAV:  10    -0.136077372328E+04   -0.15903E-04   -0.23103E-04  2568   0.298E-02    0.293E-02
DAV:  11    -0.136077371955E+04    0.37386E-05   -0.90422E-05  2432   0.198E-02    0.185E-02
DAV:  12    -0.136077371766E+04    0.18851E-05   -0.48677E-05  2304   0.148E-02    0.153E-02
DAV:  13    -0.136077371578E+04    0.18839E-05   -0.30931E-05  2152   0.100E-02    0.685E-03
DAV:  14    -0.136077371579E+04   -0.11118E-07   -0.84196E-06  1752   0.587E-03
  10 F= -.13607737E+04 E0= -.13607737E+04  d E =-.747369E+00
 BRION: g(F)=  0.330E+00 g(S)=  0.000E+00 retain N=  8 mean eig= 2.78
 eig:   6.729  6.729  2.874  2.874  0.865  0.865  0.431  0.863
 bond charge predicted
       N       E                     dE             d eps       ncg     rms          rms(c)
DAV:   1    -0.136105898352E+04   -0.28527E+00   -0.91625E+01  1384   0.136E+01    0.166E+00
DAV:   2    -0.136154346664E+04   -0.48448E+00   -0.51374E+00  2304   0.547E+00    0.833E-01
DAV:   3    -0.136157109272E+04   -0.27626E-01   -0.40914E-01  2576   0.107E+00    0.678E-01
DAV:   4    -0.136156465140E+04    0.64413E-02   -0.44835E-02  2592   0.487E-01    0.460E-01
DAV:   5    -0.136155951946E+04    0.51319E-02   -0.17592E-02  2456   0.280E-01    0.204E-01
DAV:   6    -0.136155942326E+04    0.96197E-04   -0.11983E-02  2320   0.211E-01    0.123E-01
DAV:   7    -0.136155962552E+04   -0.20225E-03   -0.61199E-03  2464   0.146E-01    0.117E-01
DAV:   8    -0.136155958057E+04    0.44949E-04   -0.17366E-03  2608   0.815E-02    0.772E-02
DAV:   9    -0.136155952387E+04    0.56696E-04   -0.70077E-04  2560   0.495E-02    0.407E-02
DAV:  10    -0.136155954266E+04   -0.18787E-04   -0.30146E-04  2592   0.324E-02    0.300E-02
DAV:  11    -0.136155953965E+04    0.30146E-05   -0.87557E-05  2448   0.199E-02    0.174E-02
DAV:  12    -0.136155953740E+04    0.22483E-05   -0.65397E-05  2264   0.160E-02    0.134E-02
DAV:  13    -0.136155953648E+04    0.91632E-06   -0.29462E-05  2288   0.105E-02    0.783E-03
DAV:  14    -0.136155953641E+04    0.73633E-07   -0.10065E-05  1760   0.598E-03    0.312E-03
DAV:  15    -0.136155953639E+04    0.14654E-07   -0.10515E-06   992   0.375E-03
  11 F= -.13615595E+04 E0= -.13615595E+04  d E =-.785821E+00
 BRION: g(F)=  0.256E+00 g(S)=  0.000E+00 retain N=  9 mean eig= 3.26
 eig:   7.697  7.697  4.660  4.660  1.074  1.074  0.402  1.030  1.030
 bond charge predicted
       N       E                     dE             d eps       ncg     rms          rms(c)
DAV:   1    -0.136181796161E+04   -0.25843E+00   -0.69219E+01  1376   0.118E+01    0.140E+00
DAV:   2    -0.136217926832E+04   -0.36131E+00   -0.38151E+00  2312   0.474E+00    0.713E-01
DAV:   3    -0.136219932815E+04   -0.20060E-01   -0.29900E-01  2576   0.896E-01    0.571E-01
DAV:   4    -0.136219419633E+04    0.51318E-02   -0.31293E-02  2568   0.406E-01    0.390E-01
DAV:   5    -0.136219009703E+04    0.40993E-02   -0.12248E-02  2448   0.234E-01    0.169E-01
DAV:   6    -0.136218993285E+04    0.16418E-03   -0.86471E-03  2296   0.174E-01    0.920E-02
DAV:   7    -0.136219012701E+04   -0.19415E-03   -0.41030E-03  2424   0.118E-01    0.886E-02
DAV:   8    -0.136219009585E+04    0.31160E-04   -0.10075E-03  2616   0.638E-02    0.565E-02
DAV:   9    -0.136219007370E+04    0.22152E-04   -0.51130E-04  2568   0.418E-02    0.296E-02
DAV:  10    -0.136219008764E+04   -0.13943E-04   -0.15735E-04  2536   0.256E-02    0.258E-02
DAV:  11    -0.136219008253E+04    0.51046E-05   -0.55110E-05  2488   0.152E-02    0.132E-02
DAV:  12    -0.136219008152E+04    0.10098E-05   -0.44000E-05  2072   0.127E-02    0.905E-03
DAV:  13    -0.136219008162E+04   -0.97949E-07   -0.15808E-05  1888   0.818E-03    0.657E-03
DAV:  14    -0.136219008130E+04    0.32132E-06   -0.71677E-06  1552   0.561E-03
  12 F= -.13621901E+04 E0= -.13621901E+04  d E =-.630545E+00
 BRION: g(F)=  0.220E+00 g(S)=  0.000E+00 retain N=  9 mean eig= 3.09
 eig:   7.151  7.151  3.067  3.067  2.226  2.226  0.907  0.907  1.146
 bond charge predicted
       N       E                     dE             d eps       ncg     rms          rms(c)
DAV:   1    -0.136233086999E+04   -0.14079E+00   -0.10864E+02  1376   0.147E+01    0.172E+00
DAV:   2    -0.136289133051E+04   -0.56046E+00   -0.59293E+00  2296   0.591E+00    0.896E-01
DAV:   3    -0.136292219563E+04   -0.30865E-01   -0.46506E-01  2592   0.112E+00    0.723E-01
DAV:   4    -0.136291436943E+04    0.78262E-02   -0.47969E-02  2592   0.500E-01    0.495E-01
DAV:   5    -0.136290792676E+04    0.64427E-02   -0.18829E-02  2424   0.277E-01    0.219E-01
DAV:   6    -0.136290756231E+04    0.36445E-03   -0.13174E-02  2272   0.211E-01    0.120E-01
DAV:   7    -0.136290783697E+04   -0.27466E-03   -0.66876E-03  2376   0.147E-01    0.112E-01
DAV:   8    -0.136290779779E+04    0.39175E-04   -0.18421E-03  2624   0.834E-02    0.785E-02
DAV:   9    -0.136290774655E+04    0.51241E-04   -0.77267E-04  2576   0.525E-02    0.431E-02
DAV:  10    -0.136290776172E+04   -0.15166E-04   -0.26053E-04  2552   0.310E-02    0.301E-02
DAV:  11    -0.136290776135E+04    0.37218E-06   -0.60579E-05  2544   0.172E-02    0.190E-02
DAV:  12    -0.136290775741E+04    0.39310E-05   -0.78322E-05  2080   0.165E-02    0.117E-02
DAV:  13    -0.136290775815E+04   -0.73574E-06   -0.31584E-05  2048   0.111E-02    0.942E-03
DAV:  14    -0.136290775745E+04    0.69641E-06   -0.12421E-05  1672   0.664E-03    0.452E-03
DAV:  15    -0.136290775713E+04    0.32132E-06   -0.21207E-06  1016   0.545E-03
  13 F= -.13629078E+04 E0= -.13629078E+04  d E =-.717676E+00
 BRION: g(F)=  0.187E+00 g(S)=  0.000E+00 retain N=  8 mean eig= 3.71
 eig:   7.593  7.593  3.868  3.868  1.894  1.894  1.628  1.349
 bond charge predicted
       N       E                     dE             d eps       ncg     rms          rms(c)
DAV:   1    -0.136304882536E+04   -0.14107E+00   -0.67617E+01  1376   0.116E+01    0.135E+00
DAV:   2    -0.136339507427E+04   -0.34625E+00   -0.36481E+00  2288   0.468E+00    0.700E-01
DAV:   3    -0.136341380907E+04   -0.18735E-01   -0.28244E-01  2592   0.877E-01    0.556E-01
DAV:   4    -0.136340858334E+04    0.52257E-02   -0.28243E-02  2592   0.387E-01    0.379E-01
DAV:   5    -0.136340460217E+04    0.39812E-02   -0.11968E-02  2360   0.221E-01    0.157E-01
DAV:   6    -0.136340456665E+04    0.35522E-04   -0.80022E-03  2304   0.162E-01    0.928E-02
DAV:   7    -0.136340469275E+04   -0.12610E-03   -0.35416E-03  2384   0.109E-01    0.785E-02
DAV:   8    -0.136340467614E+04    0.16605E-04   -0.96917E-04  2616   0.611E-02    0.500E-02
DAV:   9    -0.136340466270E+04    0.13437E-04   -0.36819E-04  2560   0.372E-02    0.302E-02
DAV:  10    -0.136340467003E+04   -0.73234E-05   -0.13103E-04  2576   0.228E-02    0.219E-02
DAV:  11    -0.136340466730E+04    0.27318E-05   -0.48693E-05  2432   0.143E-02    0.103E-02
DAV:  12    -0.136340466761E+04   -0.31201E-06   -0.30336E-05  2072   0.110E-02    0.818E-03
DAV:  13    -0.136340466733E+04    0.28136E-06   -0.10100E-05  1776   0.671E-03    0.544E-03
DAV:  14    -0.136340466724E+04    0.83193E-07   -0.70460E-06  1544   0.547E-03
  14 F= -.13634047E+04 E0= -.13634047E+04  d E =-.496910E+00
 BRION: g(F)=  0.158E+00 g(S)=  0.000E+00 retain N=  3 mean eig= 5.03
 eig:   6.415  6.415  2.273
 bond charge predicted
       N       E                     dE             d eps       ncg     rms          rms(c)
DAV:   1    -0.136358845839E+04   -0.18379E+00   -0.34289E+01  1376   0.828E+00    0.956E-01
DAV:   2    -0.136376604378E+04   -0.17759E+00   -0.18785E+00  2304   0.333E+00    0.492E-01
DAV:   3    -0.136377643418E+04   -0.10390E-01   -0.14971E-01  2600   0.622E-01    0.394E-01
DAV:   4    -0.136377414822E+04    0.22860E-02   -0.13721E-02  2608   0.278E-01    0.278E-01
DAV:   5    -0.136377206901E+04    0.20792E-02   -0.64117E-03  2320   0.157E-01    0.117E-01
DAV:   6    -0.136377205518E+04    0.13830E-04   -0.42534E-03  2296   0.118E-01    0.780E-02
DAV:   7    -0.136377210305E+04   -0.47871E-04   -0.22869E-03  2448   0.851E-02    0.640E-02
DAV:   8    -0.136377209022E+04    0.12835E-04   -0.66730E-04  2576   0.519E-02    0.449E-02
DAV:   9    -0.136377207216E+04    0.18055E-04   -0.23493E-04  2512   0.294E-02    0.263E-02
DAV:  10    -0.136377207436E+04   -0.21975E-05   -0.78256E-05  2528   0.169E-02    0.160E-02
DAV:  11    -0.136377207553E+04   -0.11732E-05   -0.19822E-05  2112   0.994E-03    0.108E-02
DAV:  12    -0.136377207454E+04    0.98765E-06   -0.23240E-05  1936   0.921E-03    0.780E-03
DAV:  13    -0.136377207446E+04    0.84212E-07   -0.94679E-06  1776   0.635E-03
  15 F= -.13637721E+04 E0= -.13637721E+04  d E =-.367407E+00
 BRION: g(F)=  0.143E+00 g(S)=  0.000E+00 retain N=  2 mean eig= 4.08
 eig:   4.076  4.076
 bond charge predicted
       N       E                     dE             d eps       ncg     rms          rms(c)
DAV:   1    -0.136394628259E+04   -0.17421E+00   -0.39537E+01  1384   0.890E+00    0.102E+00
DAV:   2    -0.136415089904E+04   -0.20462E+00   -0.21687E+00  2288   0.359E+00    0.528E-01
DAV:   3    -0.136416289436E+04   -0.11995E-01   -0.17422E-01  2600   0.685E-01    0.426E-01
DAV:   4    -0.136416030702E+04    0.25873E-02   -0.15978E-02  2616   0.299E-01    0.304E-01
DAV:   5    -0.136415773925E+04    0.25678E-02   -0.76932E-03  2304   0.173E-01    0.132E-01
DAV:   6    -0.136415768693E+04    0.52317E-04   -0.55032E-03  2280   0.135E-01    0.885E-02
DAV:   7    -0.136415774200E+04   -0.55066E-04   -0.27935E-03  2432   0.938E-02    0.723E-02
DAV:   8    -0.136415772298E+04    0.19019E-04   -0.84141E-04  2560   0.575E-02    0.486E-02
DAV:   9    -0.136415770264E+04    0.20335E-04   -0.30017E-04  2496   0.331E-02    0.283E-02
DAV:  10    -0.136415770670E+04   -0.40534E-05   -0.10044E-04  2504   0.194E-02    0.190E-02
DAV:  11    -0.136415770652E+04    0.17371E-06   -0.33244E-05  2384   0.122E-02    0.116E-02
DAV:  12    -0.136415770587E+04    0.64979E-06   -0.26822E-05  2144   0.103E-02    0.930E-03
DAV:  13    -0.136415770527E+04    0.59776E-06   -0.11584E-05  1768   0.699E-03    0.577E-03
DAV:  14    -0.136415770501E+04    0.26185E-06   -0.42929E-06  1288   0.500E-03
  16 F= -.13641577E+04 E0= -.13641577E+04  d E =-.385631E+00
 BRION: g(F)=  0.131E+00 g(S)=  0.000E+00 retain N=  3 mean eig= 6.08
 eig:   7.936  7.936  2.354
 bond charge predicted
       N       E                     dE             d eps       ncg     rms          rms(c)
DAV:   1    -0.136431844026E+04   -0.16073E+00   -0.35916E+01  1400   0.847E+00    0.973E-01
DAV:   2    -0.136450622307E+04   -0.18778E+00   -0.19853E+00  2296   0.341E+00    0.499E-01
DAV:   3    -0.136451731565E+04   -0.11093E-01   -0.15898E-01  2600   0.640E-01    0.401E-01
DAV:   4    -0.136451495651E+04    0.23591E-02   -0.14262E-02  2616   0.287E-01    0.288E-01
DAV:   5    -0.136451254458E+04    0.24119E-02   -0.69345E-03  2280   0.167E-01    0.122E-01
DAV:   6    -0.136451251265E+04    0.31934E-04   -0.51546E-03  2248   0.131E-01    0.841E-02
DAV:   7    -0.136451257513E+04   -0.62485E-04   -0.26624E-03  2432   0.913E-02    0.696E-02
DAV:   8    -0.136451255172E+04    0.23408E-04   -0.71555E-04  2568   0.545E-02    0.445E-02
DAV:   9    -0.136451253233E+04    0.19393E-04   -0.29547E-04  2528   0.319E-02    0.249E-02
DAV:  10    -0.136451253776E+04   -0.54303E-05   -0.92909E-05  2528   0.190E-02    0.183E-02
DAV:  11    -0.136451253709E+04    0.66942E-06   -0.35196E-05  2344   0.124E-02    0.109E-02
DAV:  12    -0.136451253684E+04    0.25115E-06   -0.25022E-05  2224   0.103E-02    0.956E-03
DAV:  13    -0.136451253623E+04    0.61517E-06   -0.10770E-05  1760   0.657E-03    0.614E-03
DAV:  14    -0.136451253580E+04    0.42672E-06   -0.38090E-06  1224   0.502E-03
  17 F= -.13645125E+04 E0= -.13645125E+04  d E =-.354831E+00
 BRION: g(F)=  0.120E+00 g(S)=  0.000E+00 retain N=  2 mean eig= 4.78
 eig:   4.779  4.779
 bond charge predicted
       N       E                     dE             d eps       ncg     rms          rms(c)
DAV:   1    -0.136465267992E+04   -0.14014E+00   -0.39031E+01  1400   0.884E+00    0.103E+00
DAV:   2    -0.136485733938E+04   -0.20466E+00   -0.21724E+00  2312   0.357E+00    0.529E-01
DAV:   3    -0.136486964293E+04   -0.12304E-01   -0.17660E-01  2600   0.678E-01    0.430E-01
DAV:   4    -0.136486712255E+04    0.25204E-02   -0.16069E-02  2616   0.303E-01    0.307E-01
DAV:   5    -0.136486458542E+04    0.25371E-02   -0.79313E-03  2272   0.176E-01    0.131E-01
DAV:   6    -0.136486459144E+04   -0.60145E-05   -0.55437E-03  2264   0.135E-01    0.942E-02
DAV:   7    -0.136486462272E+04   -0.31288E-04   -0.28934E-03  2432   0.953E-02    0.746E-02
DAV:   8    -0.136486460225E+04    0.20473E-04   -0.93321E-04  2552   0.602E-02    0.498E-02
DAV:   9    -0.136486457958E+04    0.22676E-04   -0.30729E-04  2472   0.336E-02    0.291E-02
DAV:  10    -0.136486458339E+04   -0.38135E-05   -0.10049E-04  2528   0.192E-02    0.190E-02
DAV:  11    -0.136486458373E+04   -0.34556E-06   -0.33241E-05  2352   0.122E-02    0.125E-02
DAV:  12    -0.136486458280E+04    0.92978E-06   -0.28156E-05  2200   0.106E-02    0.985E-03
DAV:  13    -0.136486458223E+04    0.57228E-06   -0.12097E-05  1792   0.698E-03    0.621E-03
DAV:  14    -0.136486458190E+04    0.32899E-06   -0.44457E-06  1328   0.499E-03
  18 F= -.13648646E+04 E0= -.13648646E+04  d E =-.352046E+00
 BRION: g(F)=  0.109E+00 g(S)=  0.000E+00 retain N=  2 mean eig= 4.00
 eig:   3.997  3.997
 bond charge predicted
       N       E                     dE             d eps       ncg     rms          rms(c)
DAV:   1    -0.136499991671E+04   -0.13533E+00   -0.20964E+01  1400   0.649E+00    0.747E-01
DAV:   2    -0.136511062477E+04   -0.11071E+00   -0.11761E+00  2304   0.260E+00    0.387E-01
DAV:   3    -0.136511734751E+04   -0.67227E-02   -0.96665E-02  2600   0.503E-01    0.319E-01
DAV:   4    -0.136511600247E+04    0.13450E-02   -0.86869E-03  2624   0.224E-01    0.232E-01
DAV:   5    -0.136511445835E+04    0.15441E-02   -0.44562E-03  2264   0.134E-01    0.101E-01
DAV:   6    -0.136511442821E+04    0.30136E-04   -0.35642E-03  2240   0.111E-01    0.727E-02
DAV:   7    -0.136511445836E+04   -0.30143E-04   -0.18125E-03  2448   0.752E-02    0.596E-02
DAV:   8    -0.136511444022E+04    0.18138E-04   -0.51910E-04  2552   0.465E-02    0.362E-02
DAV:   9    -0.136511442786E+04    0.12357E-04   -0.19706E-04  2512   0.260E-02    0.204E-02
DAV:  10    -0.136511443131E+04   -0.34492E-05   -0.56715E-05  2520   0.152E-02    0.152E-02
DAV:  11    -0.136511443072E+04    0.58691E-06   -0.24063E-05  2216   0.103E-02    0.968E-03
DAV:  12    -0.136511443036E+04    0.36154E-06   -0.16649E-05  1936   0.874E-03    0.842E-03
DAV:  13    -0.136511442991E+04    0.45473E-06   -0.90217E-06  1760   0.624E-03
  19 F= -.13651144E+04 E0= -.13651144E+04  d E =-.249848E+00
 BRION: g(F)=  0.981E-01 g(S)=  0.000E+00 retain N=  3 mean eig= 5.31
 eig:   7.173  7.173  1.597
 bond charge predicted
       N       E                     dE             d eps       ncg     rms          rms(c)
DAV:   1    -0.136520353207E+04   -0.89102E-01   -0.41119E+01  1400   0.905E+00    0.106E+00
DAV:   2    -0.136542167787E+04   -0.21815E+00   -0.23057E+00  2312   0.364E+00    0.539E-01
DAV:   3    -0.136543462447E+04   -0.12947E-01   -0.18622E-01  2600   0.694E-01    0.433E-01
DAV:   4    -0.136543184898E+04    0.27755E-02   -0.16799E-02  2608   0.310E-01    0.311E-01
DAV:   5    -0.136542905839E+04    0.27906E-02   -0.78577E-03  2320   0.181E-01    0.135E-01
DAV:   6    -0.136542896696E+04    0.91430E-04   -0.61192E-03  2272   0.147E-01    0.876E-02
DAV:   7    -0.136542906793E+04   -0.10097E-03   -0.33327E-03  2400   0.101E-01    0.781E-02
DAV:   8    -0.136542903931E+04    0.28621E-04   -0.81752E-04  2568   0.584E-02    0.519E-02
DAV:   9    -0.136542900925E+04    0.30061E-04   -0.37234E-04  2520   0.354E-02    0.268E-02
DAV:  10    -0.136542901724E+04   -0.79921E-05   -0.12779E-04  2512   0.223E-02    0.195E-02
DAV:  11    -0.136542901687E+04    0.37350E-06   -0.38927E-05  2400   0.132E-02    0.121E-02
DAV:  12    -0.136542901635E+04    0.51604E-06   -0.36033E-05  2184   0.119E-02    0.107E-02
DAV:  13    -0.136542901564E+04    0.70929E-06   -0.14194E-05  1848   0.774E-03    0.753E-03
DAV:  14    -0.136542901522E+04    0.42650E-06   -0.76942E-06  1584   0.551E-03
  20 F= -.13654290E+04 E0= -.13654290E+04  d E =-.314585E+00
 BRION: g(F)=  0.856E-01 g(S)=  0.000E+00 retain N=  2 mean eig= 3.67
 eig:   3.675  3.675
