 running on  160 total cores
 distrk:  each k-point on  160 cores,    1 groups
 distr:  one band on   20 cores,    8 groups
 using from now: INCAR     
 vasp.5.4.4.18Apr17-6-g9f103f2a35 (build May 01 2020 14:22:42) gamma-only       
  
 POSCAR found type information on POSCAR  O  La Zr Li Al
 POSCAR found :  5 types and     188 ions
 scaLAPACK will be used
 LDA part: xc-table for Pade appr. of Perdew
 POSCAR, INCAR and KPOINTS ok, starting setup
 FFT: planning ...
 WAVECAR not read
 WARNING: random wavefunctions but no delay for mixing, default for NELMDL
 entering main loop
       N       E                     dE             d eps       ncg     rms          rms(c)
DAV:   1     0.252671558195E+05    0.25267E+05   -0.42031E+05  1592   0.253E+03
DAV:   2     0.943084854708E+04   -0.15836E+05   -0.14655E+05  1432   0.710E+02
DAV:   3     0.265203989044E+04   -0.67788E+04   -0.61841E+04  1536   0.355E+02
DAV:   4    -0.368133370287E+03   -0.30202E+04   -0.28238E+04  2056   0.224E+02
DAV:   5    -0.139982024694E+04   -0.10317E+04   -0.99042E+03  2544   0.139E+02    0.116E+02
DAV:   6    -0.129438919553E+04    0.10543E+03   -0.14787E+03  2440   0.663E+01    0.502E+01
DAV:   7    -0.131720080840E+04   -0.22812E+02   -0.39883E+02  2568   0.344E+01    0.258E+01
DAV:   8    -0.132421358741E+04   -0.70128E+01   -0.26283E+02  2536   0.273E+01    0.254E+01
DAV:   9    -0.131850858783E+04    0.57050E+01   -0.49370E+01  2528   0.147E+01    0.816E+00
DAV:  10    -0.131927010062E+04   -0.76151E+00   -0.16488E+01  2624   0.793E+00    0.719E+00
DAV:  11    -0.131960633568E+04   -0.33624E+00   -0.57114E+00  2624   0.420E+00    0.430E+00
DAV:  12    -0.131947552812E+04    0.13081E+00   -0.22482E+00  2560   0.340E+00    0.298E+00
DAV:  13    -0.131952129363E+04   -0.45766E-01   -0.90073E-01  2592   0.174E+00    0.197E+00
DAV:  14    -0.131951057118E+04    0.10722E-01   -0.25589E-01  2616   0.103E+00    0.118E+00
DAV:  15    -0.131951716272E+04   -0.65915E-02   -0.81510E-02  2584   0.544E-01    0.884E-01
DAV:  16    -0.131951767792E+04   -0.51520E-03   -0.30078E-02  2600   0.312E-01    0.559E-01
DAV:  17    -0.131951759636E+04    0.81563E-04   -0.20577E-02  2440   0.278E-01    0.297E-01
DAV:  18    -0.131951777762E+04   -0.18126E-03   -0.47014E-03  2448   0.146E-01    0.154E-01
DAV:  19    -0.131951774271E+04    0.34911E-04   -0.26741E-03  2560   0.100E-01    0.933E-02
DAV:  20    -0.131951779744E+04   -0.54736E-04   -0.59127E-04  2520   0.445E-02    0.451E-02
DAV:  21    -0.131951782765E+04   -0.30206E-04   -0.21507E-04  2576   0.269E-02    0.398E-02
DAV:  22    -0.131951783782E+04   -0.10173E-04   -0.66269E-05  2464   0.143E-02    0.151E-02
DAV:  23    -0.131951783678E+04    0.10443E-05   -0.50679E-05  2168   0.124E-02    0.737E-03
DAV:  24    -0.131951784036E+04   -0.35831E-05   -0.11728E-05  1288   0.779E-03    0.453E-03
DAV:  25    -0.131951784086E+04   -0.49597E-06   -0.43103E-06  1032   0.529E-03
   1 F= -.13195178E+04 E0= -.13195178E+04  d E =-.131952E+04
 BRION: g(F)=  0.751E+02 g(S)=  0.000E+00
 bond charge predicted
       N       E                     dE             d eps       ncg     rms          rms(c)
DAV:   1    -0.127298530091E+04    0.46533E+02   -0.92119E+03  1688   0.143E+02    0.333E+01
DAV:   2    -0.134703303668E+04   -0.74048E+02   -0.84933E+02  2584   0.653E+01    0.162E+01
DAV:   3    -0.134436957254E+04    0.26635E+01   -0.47438E+01  2616   0.175E+01    0.106E+01
DAV:   4    -0.134168528899E+04    0.26843E+01   -0.18392E+01  2376   0.885E+00    0.509E+00
DAV:   5    -0.134149559693E+04    0.18969E+00   -0.52313E+00  2576   0.491E+00    0.363E+00
DAV:   6    -0.134134997498E+04    0.14562E+00   -0.32180E+00  2568   0.311E+00    0.187E+00
DAV:   7    -0.134131702595E+04    0.32949E-01   -0.50259E-01  2544   0.188E+00    0.124E+00
DAV:   8    -0.134131854313E+04   -0.15172E-02   -0.54778E-01  2560   0.123E+00    0.806E-01
DAV:   9    -0.134131704750E+04    0.14956E-02   -0.77679E-02  2552   0.630E-01    0.584E-01
DAV:  10    -0.134131423379E+04    0.28137E-02   -0.44579E-02  2600   0.359E-01    0.220E-01
DAV:  11    -0.134131520900E+04   -0.97521E-03   -0.16532E-02  2608   0.237E-01    0.175E-01
DAV:  12    -0.134131513844E+04    0.70560E-04   -0.30055E-03  2592   0.117E-01    0.109E-01
DAV:  13    -0.134131505933E+04    0.79114E-04   -0.21674E-03  2560   0.819E-02    0.256E-02
DAV:  14    -0.134131509124E+04   -0.31914E-04   -0.32369E-04  2624   0.392E-02    0.156E-02
DAV:  15    -0.134131510001E+04   -0.87648E-05   -0.69978E-05  2624   0.179E-02    0.956E-03
DAV:  16    -0.134131510019E+04   -0.18260E-06   -0.23218E-05  2160   0.110E-02    0.624E-03
DAV:  17    -0.134131510186E+04   -0.16697E-05   -0.16390E-05  2112   0.830E-03    0.497E-03
DAV:  18    -0.134131510175E+04    0.10576E-06   -0.17855E-06  1088   0.460E-03
   2 F= -.13413151E+04 E0= -.13413151E+04  d E =-.217973E+02
 BRION: g(F)=  0.697E+02 g(S)=  0.000E+00 retain N=  1 mean eig= 0.51
 eig:   0.513
 bond charge predicted
       N       E                     dE             d eps       ncg     rms          rms(c)
DAV:   1    -0.132442385767E+04    0.16891E+02   -0.33204E+03  1400   0.781E+01    0.198E+01
DAV:   2    -0.135351044348E+04   -0.29087E+02   -0.35460E+02  2560   0.371E+01    0.173E+01
DAV:   3    -0.135216929098E+04    0.13412E+01   -0.24020E+01  2592   0.122E+01    0.135E+01
DAV:   4    -0.135057143111E+04    0.15979E+01   -0.19540E+01  2168   0.652E+00    0.664E+00
DAV:   5    -0.135091376967E+04   -0.34234E+00   -0.60150E+00  2312   0.443E+00    0.697E+00
DAV:   6    -0.135010218299E+04    0.81159E+00   -0.79395E+00  2392   0.419E+00    0.158E+00
DAV:   7    -0.135014398650E+04   -0.41804E-01   -0.12453E+00  2376   0.240E+00    0.121E+00
DAV:   8    -0.135014971187E+04   -0.57254E-02   -0.37406E-01  2584   0.103E+00    0.646E-01
DAV:   9    -0.135014546335E+04    0.42485E-02   -0.68644E-02  2544   0.554E-01    0.321E-01
DAV:  10    -0.135014695957E+04   -0.14962E-02   -0.27646E-02  2560   0.311E-01    0.209E-01
DAV:  11    -0.135014672523E+04    0.23434E-03   -0.57201E-03  2624   0.182E-01    0.172E-01
DAV:  12    -0.135014660801E+04    0.11723E-03   -0.67171E-03  2296   0.131E-01    0.993E-02
DAV:  13    -0.135014658323E+04    0.24775E-04   -0.18966E-03  2512   0.910E-02    0.681E-02
DAV:  14    -0.135014655273E+04    0.30501E-04   -0.61207E-04  2528   0.497E-02    0.425E-02
DAV:  15    -0.135014654196E+04    0.10774E-04   -0.32195E-04  2608   0.316E-02    0.110E-02
DAV:  16    -0.135014654535E+04   -0.33958E-05   -0.51146E-05  2464   0.155E-02    0.556E-03
DAV:  17    -0.135014654653E+04   -0.11839E-05   -0.86059E-06  1792   0.720E-03    0.476E-03
DAV:  18    -0.135014654626E+04    0.27881E-06   -0.13433E-06  1032   0.444E-03
   3 F= -.13501465E+04 E0= -.13501465E+04  d E =-.883144E+01
 BRION: g(F)=  0.130E+02 g(S)=  0.000E+00 retain N=  2 mean eig= 1.33
 eig:   0.355  2.301
 bond charge predicted
       N       E                     dE             d eps       ncg     rms          rms(c)
DAV:   1    -0.135109766768E+04   -0.95112E+00   -0.47039E+02  1352   0.280E+01    0.614E+00
DAV:   2    -0.135384123486E+04   -0.27436E+01   -0.31379E+01  2344   0.118E+01    0.322E+00
DAV:   3    -0.135383559604E+04    0.56388E-02   -0.21321E+00  2552   0.339E+00    0.265E+00
DAV:   4    -0.135373930035E+04    0.96296E-01   -0.80384E-01  2368   0.167E+00    0.130E+00
DAV:   5    -0.135374102235E+04   -0.17220E-02   -0.29325E-01  2440   0.106E+00    0.119E+00
DAV:   6    -0.135372187023E+04    0.19152E-01   -0.19029E-01  2496   0.819E-01    0.534E-01
DAV:   7    -0.135372321462E+04   -0.13444E-02   -0.75181E-02  2528   0.491E-01    0.415E-01
DAV:   8    -0.135372201131E+04    0.12033E-02   -0.12766E-02  2608   0.234E-01    0.243E-01
DAV:   9    -0.135372135755E+04    0.65375E-03   -0.77539E-03  2392   0.151E-01    0.103E-01
DAV:  10    -0.135372165538E+04   -0.29782E-03   -0.40388E-03  2288   0.109E-01    0.996E-02
DAV:  11    -0.135372152225E+04    0.13313E-03   -0.44157E-04  2568   0.525E-02    0.597E-02
DAV:  12    -0.135372152068E+04    0.15721E-05   -0.10166E-03  2264   0.475E-02    0.358E-02
DAV:  13    -0.135372151829E+04    0.23914E-05   -0.16552E-04  2440   0.278E-02    0.243E-02
DAV:  14    -0.135372151335E+04    0.49400E-05   -0.68245E-05  2384   0.130E-02    0.794E-03
DAV:  15    -0.135372151444E+04   -0.10916E-05   -0.65853E-06  1504   0.669E-03    0.563E-03
DAV:  16    -0.135372151374E+04    0.69654E-06   -0.37146E-06  1216   0.540E-03
   4 F= -.13537215E+04 E0= -.13537215E+04  d E =-.357497E+01
 BRION: g(F)=  0.408E+01 g(S)=  0.000E+00 retain N=  3 mean eig= 1.79
 eig:   4.640  0.361  0.361
 bond charge predicted
       N       E                     dE             d eps       ncg     rms          rms(c)
DAV:   1    -0.135481340188E+04   -0.10919E+01   -0.18400E+02  1360   0.188E+01    0.319E+00
DAV:   2    -0.135575532679E+04   -0.94192E+00   -0.10204E+01  2280   0.727E+00    0.162E+00
DAV:   3    -0.135577231923E+04   -0.16992E-01   -0.72533E-01  2600   0.158E+00    0.135E+00
DAV:   4    -0.135573832827E+04    0.33991E-01   -0.18560E-01  2528   0.869E-01    0.680E-01
DAV:   5    -0.135573345631E+04    0.48720E-02   -0.73628E-02  2432   0.546E-01    0.460E-01
DAV:   6    -0.135573260252E+04    0.85379E-03   -0.45593E-02  2560   0.401E-01    0.256E-01
DAV:   7    -0.135573256378E+04    0.38741E-04   -0.15392E-02  2440   0.227E-01    0.195E-01
DAV:   8    -0.135573243747E+04    0.12632E-03   -0.40897E-03  2480   0.115E-01    0.998E-02
DAV:   9    -0.135573237445E+04    0.63018E-04   -0.16690E-03  2560   0.717E-02    0.647E-02
DAV:  10    -0.135573241663E+04   -0.42179E-04   -0.70671E-04  2424   0.498E-02    0.666E-02
DAV:  11    -0.135573236085E+04    0.55779E-04   -0.37814E-04  2376   0.359E-02    0.258E-02
DAV:  12    -0.135573236726E+04   -0.64139E-05   -0.21329E-04  2408   0.257E-02    0.168E-02
DAV:  13    -0.135573236683E+04    0.43570E-06   -0.36746E-05  2272   0.132E-02    0.109E-02
DAV:  14    -0.135573236651E+04    0.31575E-06   -0.22150E-05  1840   0.764E-03    0.453E-03
DAV:  15    -0.135573236645E+04    0.56869E-07   -0.24607E-06  1072   0.501E-03
   5 F= -.13557324E+04 E0= -.13557324E+04  d E =-.201085E+01
 BRION: g(F)=  0.179E+01 g(S)=  0.000E+00 retain N=  4 mean eig= 1.57
 eig:   4.279  0.867  0.575  0.575
 bond charge predicted
       N       E                     dE             d eps       ncg     rms          rms(c)
DAV:   1    -0.135633861654E+04   -0.60625E+00   -0.16085E+02  1392   0.177E+01    0.263E+00
DAV:   2    -0.135713721391E+04   -0.79860E+00   -0.84357E+00  2272   0.667E+00    0.129E+00
DAV:   3    -0.135716409003E+04   -0.26876E-01   -0.59631E-01  2616   0.136E+00    0.105E+00
DAV:   4    -0.135714318435E+04    0.20906E-01   -0.98348E-02  2568   0.684E-01    0.586E-01
DAV:   5    -0.135713776356E+04    0.54208E-02   -0.45009E-02  2424   0.425E-01    0.278E-01
DAV:   6    -0.135713859712E+04   -0.83356E-03   -0.21945E-02  2560   0.279E-01    0.189E-01
DAV:   7    -0.135713845664E+04    0.14048E-03   -0.66085E-03  2448   0.158E-01    0.128E-01
DAV:   8    -0.135713847682E+04   -0.20181E-04   -0.24788E-03  2520   0.889E-02    0.676E-02
DAV:   9    -0.135713843809E+04    0.38736E-04   -0.49215E-04  2608   0.497E-02    0.458E-02
DAV:  10    -0.135713846631E+04   -0.28219E-04   -0.55202E-04  2352   0.385E-02    0.412E-02
DAV:  11    -0.135713844331E+04    0.22998E-04   -0.17239E-04  2536   0.284E-02    0.152E-02
DAV:  12    -0.135713844831E+04   -0.49996E-05   -0.91489E-05  2400   0.166E-02    0.123E-02
DAV:  13    -0.135713844697E+04    0.13370E-05   -0.19637E-05  2080   0.966E-03    0.534E-03
DAV:  14    -0.135713844702E+04   -0.48502E-07   -0.50845E-06  1360   0.571E-03
   6 F= -.13571384E+04 E0= -.13571384E+04  d E =-.140608E+01
 BRION: g(F)=  0.998E+00 g(S)=  0.000E+00 retain N=  5 mean eig= 1.56
 eig:   2.814  2.814  0.828  0.828  0.521
 bond charge predicted
       N       E                     dE             d eps       ncg     rms          rms(c)
DAV:   1    -0.135747521084E+04   -0.33676E+00   -0.21379E+02  1376   0.208E+01    0.273E+00
DAV:   2    -0.135855554970E+04   -0.10803E+01   -0.11310E+01  2280   0.787E+00    0.138E+00
DAV:   3    -0.135860954805E+04   -0.53998E-01   -0.85807E-01  2592   0.157E+00    0.111E+00
DAV:   4    -0.135858994841E+04    0.19600E-01   -0.11210E-01  2568   0.752E-01    0.665E-01
DAV:   5    -0.135858242716E+04    0.75212E-02   -0.50033E-02  2432   0.448E-01    0.287E-01
DAV:   6    -0.135858378612E+04   -0.13590E-02   -0.22476E-02  2544   0.289E-01    0.213E-01
DAV:   7    -0.135858354263E+04    0.24349E-03   -0.86260E-03  2456   0.183E-01    0.136E-01
DAV:   8    -0.135858363581E+04   -0.93179E-04   -0.41549E-03  2576   0.114E-01    0.832E-02
DAV:   9    -0.135858358463E+04    0.51179E-04   -0.69711E-04  2536   0.598E-02    0.623E-02
DAV:  10    -0.135858358039E+04    0.42367E-05   -0.67106E-04  2392   0.437E-02    0.348E-02
DAV:  11    -0.135858357616E+04    0.42267E-05   -0.19102E-04  2496   0.307E-02    0.141E-02
DAV:  12    -0.135858358155E+04   -0.53853E-05   -0.72547E-05  2432   0.173E-02    0.151E-02
DAV:  13    -0.135858357933E+04    0.22230E-05   -0.32456E-05  2296   0.110E-02    0.723E-03
DAV:  14    -0.135858357960E+04   -0.27896E-06   -0.11772E-05  1768   0.660E-03    0.430E-03
DAV:  15    -0.135858357966E+04   -0.54773E-07   -0.11046E-06   992   0.406E-03
   7 F= -.13585836E+04 E0= -.13585836E+04  d E =-.144513E+01
 BRION: g(F)=  0.795E+00 g(S)=  0.000E+00 retain N=  6 mean eig= 1.68
 eig:   3.012  3.012  1.362  1.362  0.799  0.520
 bond charge predicted
       N       E                     dE             d eps       ncg     rms          rms(c)
DAV:   1    -0.135894769340E+04   -0.36411E+00   -0.54017E+01  1368   0.101E+01    0.149E+00
DAV:   2    -0.135921609467E+04   -0.26840E+00   -0.28627E+00  2256   0.388E+00    0.714E-01
DAV:   3    -0.135922771005E+04   -0.11615E-01   -0.22342E-01  2616   0.821E-01    0.560E-01
DAV:   4    -0.135922146337E+04    0.62467E-02   -0.27828E-02  2552   0.380E-01    0.326E-01
DAV:   5    -0.135921937965E+04    0.20837E-02   -0.15827E-02  2288   0.237E-01    0.144E-01
DAV:   6    -0.135921970647E+04   -0.32682E-03   -0.66234E-03  2504   0.149E-01    0.111E-01
DAV:   7    -0.135921969360E+04    0.12871E-04   -0.20150E-03  2552   0.857E-02    0.737E-02
DAV:   8    -0.135921966580E+04    0.27801E-04   -0.56654E-04  2600   0.464E-02    0.401E-02
DAV:   9    -0.135921966317E+04    0.26294E-05   -0.14395E-04  2592   0.262E-02    0.232E-02
DAV:  10    -0.135921966891E+04   -0.57417E-05   -0.93826E-05  2400   0.173E-02    0.169E-02
DAV:  11    -0.135921966607E+04    0.28415E-05   -0.24643E-05  2368   0.111E-02    0.774E-03
DAV:  12    -0.135921966671E+04   -0.63796E-06   -0.13973E-05  1832   0.685E-03    0.498E-03
DAV:  13    -0.135921966652E+04    0.18856E-06   -0.13051E-06  1024   0.462E-03
   8 F= -.13592197E+04 E0= -.13592197E+04  d E =-.636087E+00
 BRION: g(F)=  0.541E+00 g(S)=  0.000E+00 retain N=  7 mean eig= 1.78
 eig:   3.141  3.141  2.150  2.150  0.642  0.642  0.596
 bond charge predicted
       N       E                     dE             d eps       ncg     rms          rms(c)
DAV:   1    -0.135960931561E+04   -0.38965E+00   -0.97194E+01  1376   0.141E+01    0.174E+00
DAV:   2    -0.136011423478E+04   -0.50492E+00   -0.53262E+00  2304   0.547E+00    0.884E-01
DAV:   3    -0.136014482830E+04   -0.30594E-01   -0.43335E-01  2608   0.109E+00    0.715E-01
DAV:   4    -0.136013831631E+04    0.65120E-02   -0.44011E-02  2624   0.499E-01    0.486E-01
DAV:   5    -0.136013337551E+04    0.49408E-02   -0.20828E-02  2344   0.305E-01    0.194E-01
DAV:   6    -0.136013396661E+04   -0.59110E-03   -0.13393E-02  2432   0.225E-01    0.154E-01
DAV:   7    -0.136013396465E+04    0.19602E-05   -0.55909E-03  2464   0.143E-01    0.113E-01
DAV:   8    -0.136013393931E+04    0.25335E-04   -0.20968E-03  2584   0.858E-02    0.599E-02
DAV:   9    -0.136013391566E+04    0.23656E-04   -0.44964E-04  2504   0.445E-02    0.415E-02
DAV:  10    -0.136013391985E+04   -0.41899E-05   -0.23099E-04  2544   0.289E-02    0.238E-02
DAV:  11    -0.136013392004E+04   -0.18836E-06   -0.81590E-05  2472   0.193E-02    0.122E-02
DAV:  12    -0.136013392152E+04   -0.14858E-05   -0.34050E-05  2344   0.128E-02    0.123E-02
DAV:  13    -0.136013391997E+04    0.15464E-05   -0.20378E-05  1936   0.849E-03    0.598E-03
DAV:  14    -0.136013392003E+04   -0.54308E-07   -0.73804E-06  1616   0.601E-03
   9 F= -.13601339E+04 E0= -.13601339E+04  d E =-.914254E+00
 BRION: g(F)=  0.402E+00 g(S)=  0.000E+00 retain N=  8 mean eig= 2.29
 eig:   4.323  4.323  3.177  3.177  0.953  0.953  0.538  0.907
 bond charge predicted
       N       E                     dE             d eps       ncg     rms          rms(c)
DAV:   1    -0.136051251906E+04   -0.37860E+00   -0.65678E+01  1384   0.116E+01    0.147E+00
DAV:   2    -0.136086490003E+04   -0.35238E+00   -0.37376E+00  2288   0.462E+00    0.745E-01
DAV:   3    -0.136088583875E+04   -0.20939E-01   -0.30519E-01  2600   0.912E-01    0.602E-01
DAV:   4    -0.136088061192E+04    0.52268E-02   -0.33036E-02  2584   0.430E-01    0.389E-01
DAV:   5    -0.136087767487E+04    0.29371E-02   -0.14600E-02  2424   0.248E-01    0.159E-01
DAV:   6    -0.136087810918E+04   -0.43430E-03   -0.80083E-03  2456   0.171E-01    0.119E-01
DAV:   7    -0.136087807725E+04    0.31929E-04   -0.35255E-03  2464   0.116E-01    0.864E-02
DAV:   8    -0.136087809119E+04   -0.13943E-04   -0.14629E-03  2584   0.692E-02    0.518E-02
DAV:   9    -0.136087806890E+04    0.22293E-04   -0.28124E-04  2552   0.364E-02    0.360E-02
DAV:  10    -0.136087807202E+04   -0.31187E-05   -0.20779E-04  2584   0.257E-02    0.211E-02
DAV:  11    -0.136087807145E+04    0.57017E-06   -0.72101E-05  2352   0.179E-02    0.105E-02
DAV:  12    -0.136087807183E+04   -0.38130E-06   -0.22578E-05  2240   0.116E-02    0.909E-03
DAV:  13    -0.136087807130E+04    0.52353E-06   -0.15301E-05  1872   0.721E-03    0.452E-03
DAV:  14    -0.136087807123E+04    0.76529E-07   -0.27948E-06  1120   0.510E-03
  10 F= -.13608781E+04 E0= -.13608781E+04  d E =-.744151E+00
 BRION: g(F)=  0.360E+00 g(S)=  0.000E+00 retain N=  9 mean eig= 2.68
 eig:   5.991  5.991  3.265  3.265  1.669  1.669  0.837  0.837  0.579
 bond charge predicted
       N       E                     dE             d eps       ncg     rms          rms(c)
DAV:   1    -0.136125438074E+04   -0.37631E+00   -0.52240E+01  1384   0.102E+01    0.125E+00
DAV:   2    -0.136153412303E+04   -0.27974E+00   -0.29702E+00  2288   0.410E+00    0.642E-01
DAV:   3    -0.136155057686E+04   -0.16454E-01   -0.24250E-01  2592   0.811E-01    0.525E-01
DAV:   4    -0.136154668187E+04    0.38950E-02   -0.25542E-02  2584   0.374E-01    0.351E-01
DAV:   5    -0.136154390004E+04    0.27818E-02   -0.10690E-02  2400   0.211E-01    0.150E-01
DAV:   6    -0.136154402673E+04   -0.12670E-03   -0.67815E-03  2368   0.158E-01    0.995E-02
DAV:   7    -0.136154405637E+04   -0.29633E-04   -0.32239E-03  2392   0.107E-01    0.803E-02
DAV:   8    -0.136154405999E+04   -0.36219E-05   -0.11606E-03  2592   0.626E-02    0.510E-02
DAV:   9    -0.136154403993E+04    0.20058E-04   -0.30283E-04  2576   0.351E-02    0.333E-02
DAV:  10    -0.136154404294E+04   -0.30076E-05   -0.14020E-04  2576   0.219E-02    0.207E-02
DAV:  11    -0.136154404382E+04   -0.88522E-06   -0.53108E-05  2392   0.150E-02    0.126E-02
DAV:  12    -0.136154404253E+04    0.12947E-05   -0.27258E-05  2264   0.118E-02    0.967E-03
DAV:  13    -0.136154404209E+04    0.43810E-06   -0.16747E-05  1984   0.781E-03    0.508E-03
DAV:  14    -0.136154404202E+04    0.68379E-07   -0.44627E-06  1312   0.522E-03
  11 F= -.13615440E+04 E0= -.13615440E+04  d E =-.665971E+00
 BRION: g(F)=  0.308E+00 g(S)=  0.000E+00 retain N=  8 mean eig= 2.46
 eig:   5.910  5.910  1.959  1.959  1.176  1.176  0.672  0.958
 bond charge predicted
       N       E                     dE             d eps       ncg     rms          rms(c)
DAV:   1    -0.136186638738E+04   -0.32235E+00   -0.30811E+01  1376   0.785E+00    0.941E-01
DAV:   2    -0.136202425906E+04   -0.15787E+00   -0.16731E+00  2296   0.307E+00    0.482E-01
DAV:   3    -0.136203314394E+04   -0.88849E-02   -0.13369E-01  2584   0.605E-01    0.388E-01
DAV:   4    -0.136203079928E+04    0.23447E-02   -0.13767E-02  2592   0.274E-01    0.260E-01
DAV:   5    -0.136202908504E+04    0.17142E-02   -0.63839E-03  2368   0.166E-01    0.106E-01
DAV:   6    -0.136202919775E+04   -0.11271E-03   -0.39932E-03  2416   0.123E-01    0.793E-02
DAV:   7    -0.136202920304E+04   -0.52986E-05   -0.17082E-03  2424   0.782E-02    0.601E-02
DAV:   8    -0.136202920018E+04    0.28666E-05   -0.67007E-04  2584   0.477E-02    0.344E-02
DAV:   9    -0.136202919204E+04    0.81375E-05   -0.14593E-04  2560   0.252E-02    0.241E-02
DAV:  10    -0.136202919265E+04   -0.61336E-06   -0.74251E-05  2568   0.159E-02    0.147E-02
DAV:  11    -0.136202919242E+04    0.22989E-06   -0.29311E-05  2272   0.115E-02    0.769E-03
DAV:  12    -0.136202919245E+04   -0.30021E-07   -0.10931E-05  1816   0.804E-03    0.683E-03
DAV:  13    -0.136202919210E+04    0.35686E-06   -0.70761E-06  1536   0.555E-03
  12 F= -.13620292E+04 E0= -.13620292E+04  d E =-.485150E+00
 BRION: g(F)=  0.285E+00 g(S)=  0.000E+00 retain N=  9 mean eig= 2.80
 eig:   6.584  6.584  3.694  3.694  1.040  1.040  0.674  0.955  0.955
 bond charge predicted
       N       E                     dE             d eps       ncg     rms          rms(c)
DAV:   1    -0.136232474019E+04   -0.29555E+00   -0.30614E+01  1376   0.783E+00    0.933E-01
DAV:   2    -0.136248380585E+04   -0.15907E+00   -0.16819E+00  2304   0.308E+00    0.480E-01
DAV:   3    -0.136249215820E+04   -0.83523E-02   -0.12853E-01  2592   0.619E-01    0.386E-01
DAV:   4    -0.136248986718E+04    0.22910E-02   -0.14206E-02  2576   0.273E-01    0.255E-01
DAV:   5    -0.136248835277E+04    0.15144E-02   -0.61706E-03  2424   0.157E-01    0.110E-01
DAV:   6    -0.136248841282E+04   -0.60057E-04   -0.34591E-03  2392   0.112E-01    0.729E-02
DAV:   7    -0.136248842639E+04   -0.13568E-04   -0.16051E-03  2392   0.763E-02    0.568E-02
DAV:   8    -0.136248842939E+04   -0.30022E-05   -0.64831E-04  2592   0.469E-02    0.381E-02
DAV:   9    -0.136248841951E+04    0.98879E-05   -0.14898E-04  2520   0.251E-02    0.255E-02
DAV:  10    -0.136248841928E+04    0.22382E-06   -0.75437E-05  2544   0.156E-02    0.146E-02
DAV:  11    -0.136248841908E+04    0.20207E-06   -0.24768E-05  2288   0.105E-02    0.729E-03
DAV:  12    -0.136248841908E+04    0.22119E-08   -0.10234E-05  1824   0.737E-03    0.575E-03
DAV:  13    -0.136248841876E+04    0.31712E-06   -0.38370E-06  1248   0.506E-03
  13 F= -.13624884E+04 E0= -.13624884E+04  d E =-.459227E+00
 BRION: g(F)=  0.263E+00 g(S)=  0.000E+00 retain N=  8 mean eig= 3.21
 eig:   6.885  6.885  3.306  3.306  1.652  1.652  0.997  0.997
 bond charge predicted
       N       E                     dE             d eps       ncg     rms          rms(c)
DAV:   1    -0.136279849584E+04   -0.31008E+00   -0.51876E+01  1368   0.102E+01    0.116E+00
DAV:   2    -0.136306380783E+04   -0.26531E+00   -0.27970E+00  2328   0.398E+00    0.600E-01
DAV:   3    -0.136307743449E+04   -0.13627E-01   -0.20592E-01  2584   0.788E-01    0.480E-01
DAV:   4    -0.136307400933E+04    0.34252E-02   -0.22133E-02  2568   0.340E-01    0.325E-01
DAV:   5    -0.136307146204E+04    0.25473E-02   -0.97988E-03  2408   0.199E-01    0.139E-01
DAV:   6    -0.136307157293E+04   -0.11089E-03   -0.59076E-03  2424   0.147E-01    0.940E-02
DAV:   7    -0.136307160055E+04   -0.27623E-04   -0.26686E-03  2424   0.989E-02    0.739E-02
DAV:   8    -0.136307159647E+04    0.40839E-05   -0.99767E-04  2608   0.595E-02    0.469E-02
DAV:   9    -0.136307158333E+04    0.13139E-04   -0.25861E-04  2544   0.322E-02    0.311E-02
DAV:  10    -0.136307158558E+04   -0.22455E-05   -0.12319E-04  2568   0.204E-02    0.201E-02
DAV:  11    -0.136307158421E+04    0.13676E-05   -0.45179E-05  2344   0.143E-02    0.102E-02
DAV:  12    -0.136307158427E+04   -0.66371E-07   -0.21096E-05  2216   0.985E-03    0.845E-03
DAV:  13    -0.136307158384E+04    0.43488E-06   -0.11108E-05  1792   0.652E-03    0.413E-03
DAV:  14    -0.136307158372E+04    0.11867E-06   -0.22846E-06  1048   0.473E-03
  14 F= -.13630716E+04 E0= -.13630716E+04  d E =-.583165E+00
 BRION: g(F)=  0.244E+00 g(S)=  0.000E+00 retain N=  7 mean eig= 3.83
 eig:   7.970  7.970  3.336  3.336  1.647  1.647  0.893
 bond charge predicted
       N       E                     dE             d eps       ncg     rms          rms(c)
DAV:   1    -0.136331392998E+04   -0.24235E+00   -0.53522E+01  1376   0.104E+01    0.116E+00
DAV:   2    -0.136358487271E+04   -0.27094E+00   -0.28458E+00  2304   0.403E+00    0.595E-01
DAV:   3    -0.136360052208E+04   -0.15649E-01   -0.21812E-01  2560   0.783E-01    0.478E-01
DAV:   4    -0.136359780382E+04    0.27183E-02   -0.20693E-02  2568   0.333E-01    0.348E-01
DAV:   5    -0.136359476499E+04    0.30388E-02   -0.10248E-02  2368   0.200E-01    0.148E-01
DAV:   6    -0.136359487032E+04   -0.10533E-03   -0.71647E-03  2352   0.156E-01    0.104E-01
DAV:   7    -0.136359490232E+04   -0.31996E-04   -0.33609E-03  2464   0.107E-01    0.822E-02
DAV:   8    -0.136359487523E+04    0.27086E-04   -0.11295E-03  2544   0.661E-02    0.529E-02
DAV:   9    -0.136359485586E+04    0.19373E-04   -0.30096E-04  2528   0.344E-02    0.326E-02
DAV:  10    -0.136359485832E+04   -0.24628E-05   -0.10174E-04  2568   0.190E-02    0.192E-02
DAV:  11    -0.136359485954E+04   -0.12245E-05   -0.29809E-05  2464   0.120E-02    0.127E-02
DAV:  12    -0.136359485839E+04    0.11537E-05   -0.22694E-05  2248   0.979E-03    0.937E-03
DAV:  13    -0.136359485788E+04    0.50837E-06   -0.12405E-05  1808   0.685E-03    0.492E-03
DAV:  14    -0.136359485769E+04    0.18966E-06   -0.27280E-06  1088   0.465E-03
  15 F= -.13635949E+04 E0= -.13635949E+04  d E =-.523274E+00
 BRION: g(F)=  0.226E+00 g(S)=  0.000E+00 retain N=  5 mean eig= 3.78
 eig:   6.525  6.525  2.787  1.543  1.543
 bond charge predicted
       N       E                     dE             d eps       ncg     rms          rms(c)
DAV:   1    -0.136383482262E+04   -0.23996E+00   -0.36244E+01  1384   0.857E+00    0.985E-01
DAV:   2    -0.136402056674E+04   -0.18574E+00   -0.19598E+00  2296   0.335E+00    0.502E-01
DAV:   3    -0.136403162168E+04   -0.11055E-01   -0.15491E-01  2568   0.665E-01    0.411E-01
DAV:   4    -0.136402965432E+04    0.19674E-02   -0.15143E-02  2592   0.286E-01    0.296E-01
DAV:   5    -0.136402753502E+04    0.21193E-02   -0.76410E-03  2320   0.172E-01    0.126E-01
DAV:   6    -0.136402764534E+04   -0.11031E-03   -0.51709E-03  2344   0.135E-01    0.953E-02
DAV:   7    -0.136402764095E+04    0.43904E-05   -0.25488E-03  2448   0.924E-02    0.726E-02
DAV:   8    -0.136402762225E+04    0.18702E-04   -0.89839E-04  2584   0.584E-02    0.466E-02
DAV:   9    -0.136402760701E+04    0.15237E-04   -0.23124E-04  2520   0.301E-02    0.287E-02
DAV:  10    -0.136402760864E+04   -0.16317E-05   -0.81948E-05  2568   0.171E-02    0.169E-02
DAV:  11    -0.136402760991E+04   -0.12642E-05   -0.23843E-05  2320   0.109E-02    0.115E-02
DAV:  12    -0.136402760881E+04    0.10958E-05   -0.17813E-05  2096   0.888E-03    0.865E-03
DAV:  13    -0.136402760838E+04    0.43114E-06   -0.11697E-05  1800   0.660E-03    0.441E-03
DAV:  14    -0.136402760818E+04    0.19581E-06   -0.18820E-06   976   0.436E-03
  16 F= -.13640276E+04 E0= -.13640276E+04  d E =-.432750E+00
 BRION: g(F)=  0.208E+00 g(S)=  0.000E+00 retain N=  5 mean eig= 4.21
 eig:   7.313  7.313  3.372  1.537  1.537
 bond charge predicted
       N       E                     dE             d eps       ncg     rms          rms(c)
DAV:   1    -0.136417742108E+04   -0.14981E+00   -0.64601E+01  1376   0.114E+01    0.126E+00
DAV:   2    -0.136450467295E+04   -0.32725E+00   -0.34304E+00  2288   0.445E+00    0.640E-01
DAV:   3    -0.136452483308E+04   -0.20160E-01   -0.27117E-01  2568   0.858E-01    0.520E-01
DAV:   4    -0.136452210857E+04    0.27245E-02   -0.23731E-02  2592   0.363E-01    0.396E-01
DAV:   5    -0.136451781342E+04    0.42951E-02   -0.11397E-02  2320   0.218E-01    0.182E-01
DAV:   6    -0.136451766891E+04    0.14451E-03   -0.10733E-02  2248   0.191E-01    0.115E-01
DAV:   7    -0.136451781447E+04   -0.14556E-03   -0.54769E-03  2408   0.131E-01    0.103E-01
DAV:   8    -0.136451775883E+04    0.55638E-04   -0.12520E-03  2544   0.749E-02    0.684E-02
DAV:   9    -0.136451770307E+04    0.55762E-04   -0.55476E-04  2504   0.431E-02    0.350E-02
DAV:  10    -0.136451771664E+04   -0.13566E-04   -0.21832E-04  2488   0.275E-02    0.222E-02
DAV:  11    -0.136451771917E+04   -0.25280E-05   -0.57731E-05  2400   0.161E-02    0.166E-02
DAV:  12    -0.136451771667E+04    0.24935E-05   -0.44103E-05  2296   0.137E-02    0.140E-02
DAV:  13    -0.136451771518E+04    0.14891E-05   -0.27992E-05  2224   0.965E-03    0.815E-03
DAV:  14    -0.136451771473E+04    0.45916E-06   -0.61623E-06  1544   0.546E-03
  17 F= -.13645177E+04 E0= -.13645177E+04  d E =-.490107E+00
 BRION: g(F)=  0.187E+00 g(S)=  0.000E+00 retain N=  5 mean eig= 4.88
 eig:   7.984  7.984  5.201  1.622  1.622
 bond charge predicted
       N       E                     dE             d eps       ncg     rms          rms(c)
DAV:   1    -0.136472099991E+04   -0.20328E+00   -0.47195E+01  1360   0.972E+00    0.110E+00
DAV:   2    -0.136496103753E+04   -0.24004E+00   -0.25341E+00  2288   0.382E+00    0.564E-01
DAV:   3    -0.136497559346E+04   -0.14556E-01   -0.20298E-01  2568   0.755E-01    0.457E-01
DAV:   4    -0.136497314701E+04    0.24465E-02   -0.18493E-02  2592   0.319E-01    0.336E-01
DAV:   5    -0.136497014402E+04    0.30030E-02   -0.91644E-03  2336   0.190E-01    0.150E-01
DAV:   6    -0.136497011918E+04    0.24843E-04   -0.71322E-03  2328   0.153E-01    0.102E-01
DAV:   7    -0.136497016516E+04   -0.45983E-04   -0.33722E-03  2440   0.107E-01    0.845E-02
DAV:   8    -0.136497013115E+04    0.34017E-04   -0.10866E-03  2576   0.655E-02    0.562E-02
DAV:   9    -0.136497010447E+04    0.26678E-04   -0.34098E-04  2512   0.351E-02    0.312E-02
DAV:  10    -0.136497010910E+04   -0.46304E-05   -0.11354E-04  2512   0.202E-02    0.184E-02
DAV:  11    -0.136497011105E+04   -0.19543E-05   -0.27089E-05  2336   0.119E-02    0.131E-02
DAV:  12    -0.136497010934E+04    0.17107E-05   -0.25605E-05  2104   0.987E-03    0.953E-03
DAV:  13    -0.136497010888E+04    0.46220E-06   -0.12750E-05  1792   0.695E-03    0.548E-03
DAV:  14    -0.136497010865E+04    0.23561E-06   -0.38528E-06  1264   0.484E-03
  18 F= -.13649701E+04 E0= -.13649701E+04  d E =-.452394E+00
 BRION: g(F)=  0.163E+00 g(S)=  0.000E+00 retain N=  3 mean eig= 5.19
 eig:   6.765  6.765  2.030
 bond charge predicted
       N       E                     dE             d eps       ncg     rms          rms(c)
DAV:   1    -0.136514478658E+04   -0.17468E+00   -0.55961E+01  1360   0.106E+01    0.122E+00
DAV:   2    -0.136542857345E+04   -0.28379E+00   -0.29990E+00  2304   0.417E+00    0.631E-01
DAV:   3    -0.136544420393E+04   -0.15630E-01   -0.23393E-01  2584   0.805E-01    0.503E-01
DAV:   4    -0.136544034011E+04    0.38638E-02   -0.23085E-02  2560   0.351E-01    0.351E-01
DAV:   5    -0.136543686966E+04    0.34705E-02   -0.10895E-02  2344   0.209E-01    0.150E-01
DAV:   6    -0.136543687232E+04   -0.26606E-05   -0.75020E-03  2344   0.160E-01    0.995E-02
DAV:   7    -0.136543694143E+04   -0.69116E-04   -0.32708E-03  2432   0.107E-01    0.821E-02
DAV:   8    -0.136543691299E+04    0.28446E-04   -0.10537E-03  2584   0.628E-02    0.500E-02
DAV:   9    -0.136543689582E+04    0.17167E-04   -0.32537E-04  2544   0.350E-02    0.301E-02
DAV:  10    -0.136543690121E+04   -0.53937E-05   -0.12578E-04  2552   0.215E-02    0.203E-02
DAV:  11    -0.136543690011E+04    0.10993E-05   -0.41614E-05  2432   0.139E-02    0.113E-02
DAV:  12    -0.136543690006E+04    0.52532E-07   -0.27228E-05  2240   0.105E-02    0.947E-03
DAV:  13    -0.136543689929E+04    0.76655E-06   -0.11192E-05  1784   0.698E-03    0.489E-03
DAV:  14    -0.136543689932E+04   -0.29831E-07   -0.56643E-06  1488   0.520E-03
  19 F= -.13654369E+04 E0= -.13654369E+04  d E =-.466791E+00
 BRION: g(F)=  0.143E+00 g(S)=  0.000E+00 retain N=  3 mean eig= 5.60
 eig:   7.204  7.204  2.393
 bond charge predicted
       N       E                     dE             d eps       ncg     rms          rms(c)
DAV:   1    -0.136558437947E+04   -0.14748E+00   -0.45105E+01  1360   0.945E+00    0.110E+00
DAV:   2    -0.136580964228E+04   -0.22526E+00   -0.23809E+00  2304   0.372E+00    0.569E-01
DAV:   3    -0.136582108303E+04   -0.11441E-01   -0.18129E-01  2584   0.711E-01    0.450E-01
DAV:   4    -0.136581743614E+04    0.36469E-02   -0.19118E-02  2552   0.315E-01    0.300E-01
DAV:   5    -0.136581477841E+04    0.26577E-02   -0.88038E-03  2344   0.192E-01    0.121E-01
DAV:   6    -0.136581486476E+04   -0.86346E-04   -0.54605E-03  2384   0.135E-01    0.855E-02
DAV:   7    -0.136581489437E+04   -0.29617E-04   -0.19686E-03  2408   0.867E-02    0.663E-02
DAV:   8    -0.136581488379E+04    0.10586E-04   -0.78485E-04  2600   0.511E-02    0.375E-02
DAV:   9    -0.136581487677E+04    0.70206E-05   -0.19389E-04  2520   0.287E-02    0.253E-02
DAV:  10    -0.136581487885E+04   -0.20882E-05   -0.86884E-05  2536   0.181E-02    0.171E-02
DAV:  11    -0.136581487750E+04    0.13575E-05   -0.33368E-05  2384   0.125E-02    0.804E-03
DAV:  12    -0.136581487804E+04   -0.54635E-06   -0.16020E-05  1992   0.846E-03    0.736E-03
DAV:  13    -0.136581487741E+04    0.63704E-06   -0.46134E-06  1328   0.548E-03
  20 F= -.13658149E+04 E0= -.13658149E+04  d E =-.377978E+00
 BRION: g(F)=  0.116E+00 g(S)=  0.000E+00 retain N=  2 mean eig= 3.53
 eig:   3.526  3.526
