 running on  160 total cores
 distrk:  each k-point on  160 cores,    1 groups
 distr:  one band on   20 cores,    8 groups
 using from now: INCAR     
 vasp.5.4.4.18Apr17-6-g9f103f2a35 (build May 01 2020 14:22:42) gamma-only       
  
 POSCAR found type information on POSCAR  O  La Zr Li Al
 POSCAR found :  5 types and     188 ions
 scaLAPACK will be used
 LDA part: xc-table for Pade appr. of Perdew
 POSCAR, INCAR and KPOINTS ok, starting setup
 FFT: planning ...
 WAVECAR not read
 WARNING: random wavefunctions but no delay for mixing, default for NELMDL
 entering main loop
       N       E                     dE             d eps       ncg     rms          rms(c)
DAV:   1     0.253002999717E+05    0.25300E+05   -0.41982E+05  1592   0.253E+03
DAV:   2     0.939839217985E+04   -0.15902E+05   -0.14680E+05  1408   0.706E+02
DAV:   3     0.265368172539E+04   -0.67447E+04   -0.61630E+04  1504   0.358E+02
DAV:   4    -0.389843715147E+03   -0.30435E+04   -0.28442E+04  2056   0.222E+02
DAV:   5    -0.141777504878E+04   -0.10279E+04   -0.99256E+03  2528   0.140E+02    0.117E+02
DAV:   6    -0.129916432729E+04    0.11861E+03   -0.14267E+03  2440   0.654E+01    0.501E+01
DAV:   7    -0.132149276723E+04   -0.22328E+02   -0.36849E+02  2560   0.334E+01    0.243E+01
DAV:   8    -0.132921831483E+04   -0.77255E+01   -0.23102E+02  2536   0.249E+01    0.245E+01
DAV:   9    -0.132370677982E+04    0.55115E+01   -0.48251E+01  2528   0.143E+01    0.795E+00
DAV:  10    -0.132453302563E+04   -0.82625E+00   -0.16561E+01  2616   0.783E+00    0.717E+00
DAV:  11    -0.132488590671E+04   -0.35288E+00   -0.55186E+00  2608   0.411E+00    0.429E+00
DAV:  12    -0.132468976993E+04    0.19614E+00   -0.24665E+00  2560   0.348E+00    0.288E+00
DAV:  13    -0.132474748315E+04   -0.57713E-01   -0.92044E-01  2568   0.180E+00    0.201E+00
DAV:  14    -0.132473564910E+04    0.11834E-01   -0.26152E-01  2608   0.104E+00    0.116E+00
DAV:  15    -0.132474238996E+04   -0.67409E-02   -0.84677E-02  2568   0.586E-01    0.934E-01
DAV:  16    -0.132474297837E+04   -0.58840E-03   -0.27704E-02  2624   0.310E-01    0.560E-01
DAV:  17    -0.132474137607E+04    0.16023E-02   -0.22397E-02  2424   0.289E-01    0.277E-01
DAV:  18    -0.132474169907E+04   -0.32300E-03   -0.51090E-03  2448   0.151E-01    0.122E-01
DAV:  19    -0.132474175687E+04   -0.57797E-04   -0.18029E-03  2608   0.871E-02    0.858E-02
DAV:  20    -0.132474180619E+04   -0.49314E-04   -0.43634E-04  2584   0.382E-02    0.216E-02
DAV:  21    -0.132474182290E+04   -0.16714E-04   -0.14420E-04  2608   0.219E-02    0.280E-02
DAV:  22    -0.132474183410E+04   -0.11202E-04   -0.48275E-05  2160   0.122E-02    0.105E-02
DAV:  23    -0.132474183323E+04    0.87547E-06   -0.33869E-05  2016   0.102E-02    0.542E-03
DAV:  24    -0.132474183588E+04   -0.26547E-05   -0.75568E-06  1080   0.684E-03    0.299E-03
DAV:  25    -0.132474183637E+04   -0.48681E-06   -0.37230E-06  1048   0.531E-03
   1 F= -.13247418E+04 E0= -.13247418E+04  d E =-.132474E+04
 BRION: g(F)=  0.632E+02 g(S)=  0.000E+00
 bond charge predicted
       N       E                     dE             d eps       ncg     rms          rms(c)
DAV:   1    -0.129353979856E+04    0.31202E+02   -0.66186E+03  1656   0.119E+02    0.266E+01
DAV:   2    -0.134462908331E+04   -0.51089E+02   -0.58339E+02  2584   0.549E+01    0.138E+01
DAV:   3    -0.134308572782E+04    0.15434E+01   -0.31418E+01  2608   0.144E+01    0.910E+00
DAV:   4    -0.134162904155E+04    0.14567E+01   -0.12238E+01  2464   0.691E+00    0.439E+00
DAV:   5    -0.134148877231E+04    0.14027E+00   -0.27905E+00  2528   0.384E+00    0.294E+00
DAV:   6    -0.134142055312E+04    0.68219E-01   -0.21740E+00  2464   0.264E+00    0.154E+00
DAV:   7    -0.134142467416E+04   -0.41210E-02   -0.44318E-01  2544   0.153E+00    0.116E+00
DAV:   8    -0.134141633939E+04    0.83348E-02   -0.32225E-01  2592   0.975E-01    0.562E-01
DAV:   9    -0.134141774350E+04   -0.14041E-02   -0.48375E-02  2552   0.501E-01    0.438E-01
DAV:  10    -0.134141612637E+04    0.16171E-02   -0.19099E-02  2624   0.278E-01    0.205E-01
DAV:  11    -0.134141675354E+04   -0.62717E-03   -0.14392E-02  2608   0.205E-01    0.145E-01
DAV:  12    -0.134141667215E+04    0.81392E-04   -0.24303E-03  2568   0.108E-01    0.782E-02
DAV:  13    -0.134141666503E+04    0.71167E-05   -0.12118E-03  2608   0.616E-02    0.219E-02
DAV:  14    -0.134141668277E+04   -0.17732E-04   -0.19146E-04  2600   0.292E-02    0.113E-02
DAV:  15    -0.134141668855E+04   -0.57802E-05   -0.51143E-05  2584   0.150E-02    0.699E-03
DAV:  16    -0.134141668928E+04   -0.72875E-06   -0.13669E-05  1752   0.800E-03    0.453E-03
DAV:  17    -0.134141669030E+04   -0.10263E-05   -0.12816E-05  1888   0.737E-03    0.433E-03
DAV:  18    -0.134141669009E+04    0.21186E-06   -0.13574E-06  1016   0.440E-03
   2 F= -.13414167E+04 E0= -.13414167E+04  d E =-.166749E+02
 BRION: g(F)=  0.141E+03 g(S)=  0.000E+00 retain N=  1 mean eig= 0.36
 eig:   0.360
 bond charge predicted
       N       E                     dE             d eps       ncg     rms          rms(c)
DAV:   1    -0.132489109629E+04    0.16526E+02   -0.23157E+03  1312   0.577E+01    0.208E+01
DAV:   2    -0.135425490687E+04   -0.29364E+02   -0.38000E+02  2520   0.310E+01    0.177E+01
DAV:   3    -0.135095956699E+04    0.32953E+01   -0.34299E+01  2432   0.120E+01    0.128E+01
DAV:   4    -0.134868020065E+04    0.22794E+01   -0.32178E+01  2136   0.688E+00    0.501E+00
DAV:   5    -0.134934429987E+04   -0.66410E+00   -0.74800E+00  2472   0.396E+00    0.698E+00
DAV:   6    -0.134846487382E+04    0.87943E+00   -0.44424E+00  2552   0.281E+00    0.202E+00
DAV:   7    -0.134851719753E+04   -0.52324E-01   -0.16879E+00  2456   0.203E+00    0.128E+00
DAV:   8    -0.134849737445E+04    0.19823E-01   -0.20892E-01  2544   0.105E+00    0.786E-01
DAV:   9    -0.134849468391E+04    0.26905E-02   -0.96745E-02  2504   0.486E-01    0.263E-01
DAV:  10    -0.134849570961E+04   -0.10257E-02   -0.12308E-02  2568   0.240E-01    0.163E-01
DAV:  11    -0.134849561786E+04    0.91748E-04   -0.23335E-03  2624   0.105E-01    0.135E-01
DAV:  12    -0.134849546806E+04    0.14981E-03   -0.38050E-03  2512   0.991E-02    0.471E-02
DAV:  13    -0.134849550337E+04   -0.35312E-04   -0.65199E-04  2480   0.557E-02    0.342E-02
DAV:  14    -0.134849551632E+04   -0.12945E-04   -0.11019E-04  2432   0.222E-02    0.287E-02
DAV:  15    -0.134849550319E+04    0.13126E-04   -0.65136E-05  2584   0.166E-02    0.132E-02
DAV:  16    -0.134849550530E+04   -0.21059E-05   -0.23453E-05  2416   0.105E-02    0.765E-03
DAV:  17    -0.134849550479E+04    0.50190E-06   -0.18483E-06  1104   0.448E-03
   3 F= -.13484955E+04 E0= -.13484955E+04  d E =-.707881E+01
 BRION: g(F)=  0.352E+02 g(S)=  0.000E+00 retain N=  2 mean eig= 1.27
 eig:   0.184  2.346
 bond charge predicted
       N       E                     dE             d eps       ncg     rms          rms(c)
DAV:   1    -0.134681918700E+04    0.16763E+01   -0.91054E+02  1368   0.353E+01    0.957E+00
DAV:   2    -0.135360957162E+04   -0.67904E+01   -0.82290E+01  2392   0.177E+01    0.577E+00
DAV:   3    -0.135331655044E+04    0.29302E+00   -0.57236E+00  2408   0.578E+00    0.478E+00
DAV:   4    -0.135298018292E+04    0.33637E+00   -0.36562E+00  2192   0.284E+00    0.202E+00
DAV:   5    -0.135300924905E+04   -0.29066E-01   -0.98462E-01  2456   0.186E+00    0.242E+00
DAV:   6    -0.135291258900E+04    0.96660E-01   -0.65524E-01  2424   0.154E+00    0.101E+00
DAV:   7    -0.135291751356E+04   -0.49246E-02   -0.35038E-01  2440   0.978E-01    0.778E-01
DAV:   8    -0.135291716078E+04    0.35278E-03   -0.52950E-02  2528   0.443E-01    0.651E-01
DAV:   9    -0.135291041014E+04    0.67506E-02   -0.21874E-02  2328   0.264E-01    0.347E-01
DAV:  10    -0.135291110835E+04   -0.69821E-03   -0.42956E-02  2224   0.297E-01    0.236E-01
DAV:  11    -0.135291024104E+04    0.86731E-03   -0.65016E-03  2496   0.166E-01    0.130E-01
DAV:  12    -0.135291021603E+04    0.25007E-04   -0.32947E-03  2520   0.891E-02    0.308E-02
DAV:  13    -0.135291025195E+04   -0.35923E-04   -0.34482E-04  2560   0.418E-02    0.302E-02
DAV:  14    -0.135291024441E+04    0.75480E-05   -0.71890E-05  2376   0.193E-02    0.213E-02
DAV:  15    -0.135291024344E+04    0.96460E-06   -0.95895E-05  2280   0.149E-02    0.608E-03
DAV:  16    -0.135291024382E+04   -0.38093E-06   -0.10810E-05  1800   0.747E-03    0.420E-03
DAV:  17    -0.135291024404E+04   -0.21691E-06   -0.12181E-06  1032   0.352E-03
   4 F= -.13529102E+04 E0= -.13529102E+04  d E =-.441474E+01
 BRION: g(F)=  0.801E+01 g(S)=  0.000E+00 retain N=  2 mean eig= 0.27
 eig:   0.273  0.273
 bond charge predicted
       N       E                     dE             d eps       ncg     rms          rms(c)
DAV:   1    -0.135505994186E+04   -0.21497E+01   -0.27572E+02  1360   0.234E+01    0.403E+00
DAV:   2    -0.135649504102E+04   -0.14351E+01   -0.15555E+01  2328   0.876E+00    0.210E+00
DAV:   3    -0.135652262880E+04   -0.27588E-01   -0.11145E+00  2624   0.203E+00    0.177E+00
DAV:   4    -0.135647666084E+04    0.45968E-01   -0.28456E-01  2552   0.107E+00    0.905E-01
DAV:   5    -0.135647030340E+04    0.63574E-02   -0.10086E-01  2440   0.644E-01    0.556E-01
DAV:   6    -0.135646935645E+04    0.94694E-03   -0.55991E-02  2600   0.456E-01    0.332E-01
DAV:   7    -0.135646881528E+04    0.54117E-03   -0.23563E-02  2344   0.278E-01    0.223E-01
DAV:   8    -0.135646884091E+04   -0.25625E-04   -0.67146E-03  2480   0.150E-01    0.128E-01
DAV:   9    -0.135646866277E+04    0.17814E-03   -0.20209E-03  2568   0.872E-02    0.703E-02
DAV:  10    -0.135646881047E+04   -0.14770E-03   -0.17969E-03  2488   0.704E-02    0.916E-02
DAV:  11    -0.135646868514E+04    0.12533E-03   -0.71385E-04  2528   0.526E-02    0.313E-02
DAV:  12    -0.135646870062E+04   -0.15478E-04   -0.28365E-04  2520   0.310E-02    0.182E-02
DAV:  13    -0.135646870107E+04   -0.44642E-06   -0.37944E-05  2480   0.130E-02    0.103E-02
DAV:  14    -0.135646870088E+04    0.18971E-06   -0.75301E-06  1504   0.632E-03
   5 F= -.13564687E+04 E0= -.13564687E+04  d E =-.355846E+01
 BRION: g(F)=  0.360E+01 g(S)=  0.000E+00 retain N=  3 mean eig= 0.40
 eig:   0.416  0.150  0.646
 bond charge predicted
       N       E                     dE             d eps       ncg     rms          rms(c)
DAV:   1    -0.135744738140E+04   -0.97868E+00   -0.24554E+02  1368   0.212E+01    0.333E+00
DAV:   2    -0.135867089196E+04   -0.12235E+01   -0.12886E+01  2304   0.802E+00    0.169E+00
DAV:   3    -0.135869222644E+04   -0.21334E-01   -0.80682E-01  2616   0.159E+00    0.141E+00
DAV:   4    -0.135865231469E+04    0.39912E-01   -0.20539E-01  2512   0.905E-01    0.715E-01
DAV:   5    -0.135864670162E+04    0.56131E-02   -0.81534E-02  2480   0.548E-01    0.458E-01
DAV:   6    -0.135864605533E+04    0.64630E-03   -0.35842E-02  2568   0.343E-01    0.223E-01
DAV:   7    -0.135864581216E+04    0.24316E-03   -0.97774E-03  2512   0.199E-01    0.143E-01
DAV:   8    -0.135864588709E+04   -0.74924E-04   -0.35808E-03  2536   0.107E-01    0.822E-02
DAV:   9    -0.135864582975E+04    0.57342E-04   -0.11542E-03  2624   0.650E-02    0.491E-02
DAV:  10    -0.135864585607E+04   -0.26320E-04   -0.43793E-04  2552   0.389E-02    0.400E-02
DAV:  11    -0.135864583611E+04    0.19952E-04   -0.20518E-04  2568   0.279E-02    0.147E-02
DAV:  12    -0.135864583958E+04   -0.34663E-05   -0.70320E-05  2416   0.169E-02    0.850E-03
DAV:  13    -0.135864584005E+04   -0.46720E-06   -0.14500E-05  1872   0.832E-03    0.620E-03
DAV:  14    -0.135864583993E+04    0.11543E-06   -0.45294E-06  1336   0.532E-03
   6 F= -.13586458E+04 E0= -.13586458E+04  d E =-.217714E+01
 BRION: g(F)=  0.219E+01 g(S)=  0.000E+00 retain N=  4 mean eig= 0.73
 eig:   1.097  0.180  0.819  0.819
 bond charge predicted
       N       E                     dE             d eps       ncg     rms          rms(c)
DAV:   1    -0.135860835000E+04    0.37490E-01   -0.46317E+02  1360   0.299E+01    0.421E+00
DAV:   2    -0.136098442488E+04   -0.23761E+01   -0.24952E+01  2272   0.113E+01    0.221E+00
DAV:   3    -0.136105250324E+04   -0.68078E-01   -0.17502E+00  2624   0.233E+00    0.184E+00
DAV:   4    -0.136099069167E+04    0.61812E-01   -0.30846E-01  2536   0.114E+00    0.104E+00
DAV:   5    -0.136096672995E+04    0.23962E-01   -0.11328E-01  2496   0.665E-01    0.483E-01
DAV:   6    -0.136096752180E+04   -0.79186E-03   -0.58437E-02  2464   0.468E-01    0.340E-01
DAV:   7    -0.136096674082E+04    0.78099E-03   -0.23642E-02  2392   0.300E-01    0.224E-01
DAV:   8    -0.136096697634E+04   -0.23552E-03   -0.11115E-02  2488   0.173E-01    0.131E-01
DAV:   9    -0.136096686819E+04    0.10814E-03   -0.18281E-03  2520   0.882E-02    0.915E-02
DAV:  10    -0.136096686133E+04    0.68599E-05   -0.14409E-03  2352   0.655E-02    0.574E-02
DAV:  11    -0.136096684241E+04    0.18926E-04   -0.49605E-04  2528   0.477E-02    0.231E-02
DAV:  12    -0.136096685271E+04   -0.10307E-04   -0.20617E-04  2536   0.283E-02    0.207E-02
DAV:  13    -0.136096685057E+04    0.21427E-05   -0.74566E-05  2488   0.166E-02    0.115E-02
DAV:  14    -0.136096685131E+04   -0.74075E-06   -0.26698E-05  2288   0.937E-03    0.765E-03
DAV:  15    -0.136096685101E+04    0.30603E-06   -0.55611E-06  1336   0.611E-03
   7 F= -.13609669E+04 E0= -.13609669E+04  d E =-.232101E+01
 BRION: g(F)=  0.170E+01 g(S)=  0.000E+00 retain N=  5 mean eig= 0.93
 eig:   1.567  1.031  1.031  0.201  0.814
 bond charge predicted
       N       E                     dE             d eps       ncg     rms          rms(c)
DAV:   1    -0.136148461721E+04   -0.51777E+00   -0.74515E+01  1368   0.121E+01    0.175E+00
DAV:   2    -0.136186139764E+04   -0.37678E+00   -0.40474E+00  2288   0.475E+00    0.895E-01
DAV:   3    -0.136187673408E+04   -0.15336E-01   -0.31755E-01  2616   0.956E-01    0.712E-01
DAV:   4    -0.136186753754E+04    0.91965E-02   -0.44403E-02  2568   0.470E-01    0.406E-01
DAV:   5    -0.136186422323E+04    0.33143E-02   -0.20765E-02  2328   0.292E-01    0.181E-01
DAV:   6    -0.136186466654E+04   -0.44331E-03   -0.10396E-02  2512   0.193E-01    0.144E-01
DAV:   7    -0.136186461029E+04    0.56249E-04   -0.36778E-03  2464   0.114E-01    0.101E-01
DAV:   8    -0.136186458279E+04    0.27499E-04   -0.14546E-03  2552   0.680E-02    0.536E-02
DAV:   9    -0.136186456085E+04    0.21944E-04   -0.26019E-04  2520   0.367E-02    0.387E-02
DAV:  10    -0.136186457039E+04   -0.95388E-05   -0.34457E-04  2264   0.311E-02    0.323E-02
DAV:  11    -0.136186455782E+04    0.12574E-04   -0.11052E-04  2432   0.231E-02    0.125E-02
DAV:  12    -0.136186456155E+04   -0.37363E-05   -0.59443E-05  2296   0.131E-02    0.112E-02
DAV:  13    -0.136186456005E+04    0.14993E-05   -0.11587E-05  1760   0.767E-03    0.469E-03
DAV:  14    -0.136186456020E+04   -0.14974E-06   -0.31462E-06  1120   0.514E-03
   8 F= -.13618646E+04 E0= -.13618646E+04  d E =-.897709E+00
 BRION: g(F)=  0.749E+00 g(S)=  0.000E+00 retain N=  6 mean eig= 1.08
 eig:   2.133  2.133  1.108  0.425  0.425  0.242
 bond charge predicted
       N       E                     dE             d eps       ncg     rms          rms(c)
DAV:   1    -0.136222438157E+04   -0.35982E+00   -0.11280E+02  1376   0.150E+01    0.192E+00
DAV:   2    -0.136279889623E+04   -0.57451E+00   -0.60702E+00  2288   0.579E+00    0.980E-01
DAV:   3    -0.136282790058E+04   -0.29004E-01   -0.47294E-01  2616   0.116E+00    0.769E-01
DAV:   4    -0.136281702649E+04    0.10874E-01   -0.56614E-02  2544   0.545E-01    0.454E-01
DAV:   5    -0.136281317423E+04    0.38523E-02   -0.24294E-02  2400   0.315E-01    0.179E-01
DAV:   6    -0.136281383804E+04   -0.66381E-03   -0.10470E-02  2496   0.192E-01    0.130E-01
DAV:   7    -0.136281383791E+04    0.13244E-06   -0.33311E-03  2528   0.117E-01    0.922E-02
DAV:   8    -0.136281384331E+04   -0.53940E-05   -0.14965E-03  2592   0.706E-02    0.528E-02
DAV:   9    -0.136281382762E+04    0.15686E-04   -0.27330E-04  2552   0.382E-02    0.384E-02
DAV:  10    -0.136281383039E+04   -0.27707E-05   -0.27426E-04  2560   0.295E-02    0.231E-02
DAV:  11    -0.136281382667E+04    0.37158E-05   -0.74283E-05  2448   0.188E-02    0.950E-03
DAV:  12    -0.136281382890E+04   -0.22248E-05   -0.30374E-05  2304   0.107E-02    0.825E-03
DAV:  13    -0.136281382794E+04    0.95776E-06   -0.26878E-06  1056   0.605E-03
   9 F= -.13628138E+04 E0= -.13628138E+04  d E =-.949268E+00
 BRION: g(F)=  0.682E+00 g(S)=  0.000E+00 retain N=  7 mean eig= 1.49
 eig:   3.520  3.520  1.009  1.009  0.478  0.240  0.641
 bond charge predicted
       N       E                     dE             d eps       ncg     rms          rms(c)
DAV:   1    -0.136315015137E+04   -0.33632E+00   -0.71506E+01  1376   0.121E+01    0.151E+00
DAV:   2    -0.136352119705E+04   -0.37105E+00   -0.39298E+00  2288   0.467E+00    0.767E-01
DAV:   3    -0.136354214666E+04   -0.20950E-01   -0.31742E-01  2600   0.953E-01    0.613E-01
DAV:   4    -0.136353615264E+04    0.59940E-02   -0.34881E-02  2584   0.440E-01    0.390E-01
DAV:   5    -0.136353289942E+04    0.32532E-02   -0.15968E-02  2400   0.261E-01    0.150E-01
DAV:   6    -0.136353335362E+04   -0.45419E-03   -0.84291E-03  2480   0.174E-01    0.119E-01
DAV:   7    -0.136353334950E+04    0.41212E-05   -0.31873E-03  2448   0.112E-01    0.864E-02
DAV:   8    -0.136353334821E+04    0.12902E-05   -0.14059E-03  2608   0.682E-02    0.484E-02
DAV:   9    -0.136353333370E+04    0.14501E-04   -0.25376E-04  2520   0.359E-02    0.369E-02
DAV:  10    -0.136353333297E+04    0.73812E-06   -0.20230E-04  2496   0.256E-02    0.220E-02
DAV:  11    -0.136353333162E+04    0.13481E-05   -0.73286E-05  2408   0.181E-02    0.930E-03
DAV:  12    -0.136353333280E+04   -0.11786E-05   -0.23463E-05  2256   0.109E-02    0.899E-03
DAV:  13    -0.136353333217E+04    0.63051E-06   -0.11356E-05  1768   0.671E-03    0.483E-03
DAV:  14    -0.136353333200E+04    0.16538E-06   -0.26176E-06  1072   0.507E-03
  10 F= -.13635333E+04 E0= -.13635333E+04  d E =-.719504E+00
 BRION: g(F)=  0.446E+00 g(S)=  0.000E+00 retain N=  8 mean eig= 2.28
 eig:   5.621  5.621  2.283  2.283  0.744  0.231  0.715  0.715
 bond charge predicted
       N       E                     dE             d eps       ncg     rms          rms(c)
DAV:   1    -0.136372516285E+04   -0.19183E+00   -0.11824E+02  1376   0.155E+01    0.185E+00
DAV:   2    -0.136434496711E+04   -0.61980E+00   -0.65655E+00  2288   0.607E+00    0.954E-01
DAV:   3    -0.136437974058E+04   -0.34773E-01   -0.52440E-01  2600   0.121E+00    0.764E-01
DAV:   4    -0.136437025501E+04    0.94856E-02   -0.55068E-02  2568   0.552E-01    0.501E-01
DAV:   5    -0.136436443621E+04    0.58188E-02   -0.23695E-02  2416   0.307E-01    0.200E-01
DAV:   6    -0.136436482187E+04   -0.38566E-03   -0.13135E-02  2400   0.212E-01    0.129E-01
DAV:   7    -0.136436495092E+04   -0.12905E-03   -0.56326E-03  2448   0.144E-01    0.100E-01
DAV:   8    -0.136436496235E+04   -0.11426E-04   -0.18077E-03  2624   0.812E-02    0.611E-02
DAV:   9    -0.136436494118E+04    0.21166E-04   -0.48539E-04  2568   0.459E-02    0.427E-02
DAV:  10    -0.136436495029E+04   -0.91045E-05   -0.27004E-04  2584   0.304E-02    0.282E-02
DAV:  11    -0.136436494669E+04    0.35946E-05   -0.11955E-04  2472   0.221E-02    0.125E-02
DAV:  12    -0.136436494708E+04   -0.39162E-06   -0.37064E-05  2240   0.141E-02    0.105E-02
DAV:  13    -0.136436494687E+04    0.21746E-06   -0.21248E-05  2088   0.822E-03    0.586E-03
DAV:  14    -0.136436494683E+04    0.34182E-07   -0.62642E-06  1512   0.562E-03
  11 F= -.13643649E+04 E0= -.13643649E+04  d E =-.831615E+00
 BRION: g(F)=  0.256E+00 g(S)=  0.000E+00 retain N=  9 mean eig= 2.83
 eig:   6.862  6.862  3.950  3.950  0.953  0.244  0.901  0.901  0.805
 bond charge predicted
       N       E                     dE             d eps       ncg     rms          rms(c)
DAV:   1    -0.136441489610E+04   -0.49949E-01   -0.11543E+02  1384   0.154E+01    0.182E+00
DAV:   2    -0.136503294364E+04   -0.61805E+00   -0.65574E+00  2296   0.615E+00    0.947E-01
DAV:   3    -0.136506834241E+04   -0.35399E-01   -0.52480E-01  2592   0.120E+00    0.758E-01
DAV:   4    -0.136505960622E+04    0.87362E-02   -0.52306E-02  2576   0.546E-01    0.527E-01
DAV:   5    -0.136505248721E+04    0.71190E-02   -0.24342E-02  2392   0.312E-01    0.213E-01
DAV:   6    -0.136505276102E+04   -0.27382E-03   -0.15772E-02  2360   0.232E-01    0.139E-01
DAV:   7    -0.136505292644E+04   -0.16542E-03   -0.72691E-03  2424   0.156E-01    0.113E-01
DAV:   8    -0.136505290315E+04    0.23293E-04   -0.21330E-03  2624   0.911E-02    0.680E-02
DAV:   9    -0.136505287266E+04    0.30485E-04   -0.63419E-04  2568   0.504E-02    0.438E-02
DAV:  10    -0.136505288511E+04   -0.12450E-04   -0.25410E-04  2608   0.305E-02    0.293E-02
DAV:  11    -0.136505288422E+04    0.89726E-06   -0.11346E-04  2504   0.217E-02    0.163E-02
DAV:  12    -0.136505288347E+04    0.74953E-06   -0.54313E-05  2344   0.161E-02    0.137E-02
DAV:  13    -0.136505288254E+04    0.93029E-06   -0.30495E-05  2280   0.101E-02    0.778E-03
DAV:  14    -0.136505288248E+04    0.59415E-07   -0.11582E-05  1792   0.627E-03    0.339E-03
DAV:  15    -0.136505288250E+04   -0.26193E-07   -0.11275E-06   968   0.394E-03
  12 F= -.13650529E+04 E0= -.13650529E+04  d E =-.687936E+00
 BRION: g(F)=  0.229E+00 g(S)=  0.000E+00 retain N= 10 mean eig= 3.41
 eig:   7.879  7.879  5.834  5.834  1.007  1.704  1.704  0.256  0.986  0.986
 bond charge predicted
       N       E                     dE             d eps       ncg     rms          rms(c)
DAV:   1    -0.136518970279E+04   -0.13682E+00   -0.52251E+01  1392   0.104E+01    0.124E+00
DAV:   2    -0.136547647692E+04   -0.28677E+00   -0.30646E+00  2304   0.433E+00    0.642E-01
DAV:   3    -0.136549340839E+04   -0.16931E-01   -0.24876E-01  2592   0.830E-01    0.528E-01
DAV:   4    -0.136548968871E+04    0.37197E-02   -0.24064E-02  2600   0.377E-01    0.382E-01
DAV:   5    -0.136548577396E+04    0.39148E-02   -0.12249E-02  2336   0.220E-01    0.160E-01
DAV:   6    -0.136548589085E+04   -0.11690E-03   -0.93134E-03  2344   0.179E-01    0.113E-01
DAV:   7    -0.136548595699E+04   -0.66138E-04   -0.46663E-03  2392   0.120E-01    0.915E-02
DAV:   8    -0.136548592981E+04    0.27181E-04   -0.13126E-03  2592   0.728E-02    0.531E-02
DAV:   9    -0.136548591072E+04    0.19090E-04   -0.40525E-04  2592   0.397E-02    0.335E-02
DAV:  10    -0.136548591787E+04   -0.71553E-05   -0.12636E-04  2568   0.223E-02    0.231E-02
DAV:  11    -0.136548591857E+04   -0.69130E-06   -0.74935E-05  2320   0.174E-02    0.153E-02
DAV:  12    -0.136548591717E+04    0.13968E-05   -0.41761E-05  2264   0.141E-02    0.134E-02
DAV:  13    -0.136548591594E+04    0.12286E-05   -0.23283E-05  2144   0.904E-03    0.804E-03
DAV:  14    -0.136548591555E+04    0.39532E-06   -0.92914E-06  1760   0.586E-03
  13 F= -.13654859E+04 E0= -.13654859E+04  d E =-.433033E+00
 BRION: g(F)=  0.168E+00 g(S)=  0.000E+00 retain N=  9 mean eig= 2.51
 eig:   6.936  6.936  0.868  0.868  1.805  1.805  1.179  1.105  1.105
 bond charge predicted
       N       E                     dE             d eps       ncg     rms          rms(c)
DAV:   1    -0.136557016160E+04   -0.84246E-01   -0.53620E+01  1384   0.106E+01    0.125E+00
DAV:   2    -0.136586548602E+04   -0.29532E+00   -0.31557E+00  2304   0.441E+00    0.650E-01
DAV:   3    -0.136588331875E+04   -0.17833E-01   -0.25817E-01  2600   0.848E-01    0.529E-01
DAV:   4    -0.136587966822E+04    0.36505E-02   -0.24081E-02  2600   0.380E-01    0.389E-01
DAV:   5    -0.136587568296E+04    0.39853E-02   -0.12671E-02  2328   0.222E-01    0.166E-01
DAV:   6    -0.136587576393E+04   -0.80969E-04   -0.97200E-03  2336   0.183E-01    0.117E-01
DAV:   7    -0.136587583444E+04   -0.70509E-04   -0.51812E-03  2408   0.126E-01    0.962E-02
DAV:   8    -0.136587580267E+04    0.31773E-04   -0.13969E-03  2592   0.761E-02    0.576E-02
DAV:   9    -0.136587577603E+04    0.26642E-04   -0.43709E-04  2608   0.401E-02    0.338E-02
DAV:  10    -0.136587578393E+04   -0.79054E-05   -0.13528E-04  2568   0.232E-02    0.218E-02
DAV:  11    -0.136587578609E+04   -0.21518E-05   -0.66530E-05  2312   0.163E-02    0.157E-02
DAV:  12    -0.136587578412E+04    0.19686E-05   -0.40956E-05  2264   0.140E-02    0.132E-02
DAV:  13    -0.136587578295E+04    0.11617E-05   -0.23202E-05  2168   0.925E-03    0.820E-03
DAV:  14    -0.136587578250E+04    0.45732E-06   -0.87628E-06  1736   0.582E-03
  14 F= -.13658758E+04 E0= -.13658758E+04  d E =-.389867E+00
 BRION: g(F)=  0.128E+00 g(S)=  0.000E+00 retain N=  6 mean eig= 3.31
 eig:   6.277  6.277  2.073  2.073  1.580  1.580
 bond charge predicted
       N       E                     dE             d eps       ncg     rms          rms(c)
DAV:   1    -0.136595570117E+04   -0.79918E-01   -0.40263E+01  1376   0.917E+00    0.106E+00
DAV:   2    -0.136616966981E+04   -0.21397E+00   -0.22786E+00  2288   0.372E+00    0.548E-01
DAV:   3    -0.136618271924E+04   -0.13049E-01   -0.18506E-01  2600   0.722E-01    0.445E-01
DAV:   4    -0.136618026170E+04    0.24575E-02   -0.16897E-02  2600   0.318E-01    0.327E-01
DAV:   5    -0.136617747826E+04    0.27834E-02   -0.86994E-03  2344   0.191E-01    0.141E-01
DAV:   6    -0.136617753228E+04   -0.54014E-04   -0.69403E-03  2352   0.159E-01    0.966E-02
DAV:   7    -0.136617758819E+04   -0.55918E-04   -0.32607E-03  2424   0.102E-01    0.796E-02
DAV:   8    -0.136617756568E+04    0.22511E-04   -0.91362E-04  2576   0.614E-02    0.470E-02
DAV:   9    -0.136617754716E+04    0.18527E-04   -0.29912E-04  2544   0.335E-02    0.270E-02
DAV:  10    -0.136617755351E+04   -0.63503E-05   -0.10183E-04  2520   0.200E-02    0.181E-02
DAV:  11    -0.136617755419E+04   -0.68451E-06   -0.46141E-05  2368   0.139E-02    0.123E-02
DAV:  12    -0.136617755313E+04    0.10637E-05   -0.23432E-05  2248   0.111E-02    0.108E-02
DAV:  13    -0.136617755221E+04    0.91663E-06   -0.15494E-05  1896   0.748E-03    0.592E-03
DAV:  14    -0.136617755177E+04    0.43696E-06   -0.28460E-06  1088   0.521E-03
  15 F= -.13661776E+04 E0= -.13661776E+04  d E =-.301769E+00
 BRION: g(F)=  0.105E+00 g(S)=  0.000E+00 retain N=  6 mean eig= 4.20
 eig:   7.987  7.987  2.881  2.881  1.524  1.913
 bond charge predicted
       N       E                     dE             d eps       ncg     rms          rms(c)
DAV:   1    -0.136624243342E+04   -0.64881E-01   -0.34792E+01  1376   0.849E+00    0.958E-01
DAV:   2    -0.136641946586E+04   -0.17703E+00   -0.18749E+00  2296   0.339E+00    0.489E-01
DAV:   3    -0.136643045791E+04   -0.10992E-01   -0.15147E-01  2600   0.649E-01    0.393E-01
DAV:   4    -0.136642865610E+04    0.18018E-02   -0.13090E-02  2600   0.276E-01    0.291E-01
DAV:   5    -0.136642651108E+04    0.21450E-02   -0.67430E-03  2288   0.171E-01    0.126E-01
DAV:   6    -0.136642656422E+04   -0.53132E-04   -0.54342E-03  2304   0.140E-01    0.869E-02
DAV:   7    -0.136642660253E+04   -0.38319E-04   -0.24869E-03  2432   0.901E-02    0.694E-02
DAV:   8    -0.136642658991E+04    0.12626E-04   -0.73985E-04  2568   0.540E-02    0.413E-02
DAV:   9    -0.136642657486E+04    0.15050E-04   -0.22012E-04  2520   0.291E-02    0.242E-02
DAV:  10    -0.136642657943E+04   -0.45745E-05   -0.84340E-05  2504   0.177E-02    0.151E-02
DAV:  11    -0.136642657977E+04   -0.33862E-06   -0.28325E-05  2304   0.115E-02    0.975E-03
DAV:  12    -0.136642657919E+04    0.58091E-06   -0.14653E-05  1968   0.888E-03    0.847E-03
DAV:  13    -0.136642657869E+04    0.50098E-06   -0.11297E-05  1760   0.658E-03    0.479E-03
DAV:  14    -0.136642657842E+04    0.27283E-06   -0.23335E-06  1048   0.466E-03
  16 F= -.13664266E+04 E0= -.13664266E+04  d E =-.249027E+00
 BRION: g(F)=  0.929E-01 g(S)=  0.000E+00 retain N=  3 mean eig= 4.46
 eig:   5.540  5.540  2.298
 bond charge predicted
       N       E                     dE             d eps       ncg     rms          rms(c)
DAV:   1    -0.136649972731E+04   -0.73149E-01   -0.27845E+01  1376   0.764E+00    0.880E-01
DAV:   2    -0.136664409238E+04   -0.14437E+00   -0.15418E+00  2296   0.307E+00    0.450E-01
DAV:   3    -0.136665331347E+04   -0.92211E-02   -0.12781E-01  2592   0.601E-01    0.360E-01
DAV:   4    -0.136665179698E+04    0.15165E-02   -0.11609E-02  2608   0.262E-01    0.263E-01
DAV:   5    -0.136665023866E+04    0.15583E-02   -0.58633E-03  2352   0.155E-01    0.116E-01
DAV:   6    -0.136665025560E+04   -0.16943E-04   -0.39661E-03  2384   0.123E-01    0.804E-02
DAV:   7    -0.136665028630E+04   -0.30705E-04   -0.20881E-03  2408   0.836E-02    0.632E-02
DAV:   8    -0.136665027869E+04    0.76166E-05   -0.66551E-04  2576   0.512E-02    0.412E-02
DAV:   9    -0.136665026501E+04    0.13678E-04   -0.18583E-04  2568   0.269E-02    0.238E-02
DAV:  10    -0.136665026769E+04   -0.26781E-05   -0.73226E-05  2560   0.162E-02    0.136E-02
DAV:  11    -0.136665026890E+04   -0.12097E-05   -0.23171E-05  2240   0.106E-02    0.963E-03
DAV:  12    -0.136665026802E+04    0.88080E-06   -0.13494E-05  1880   0.857E-03    0.793E-03
DAV:  13    -0.136665026770E+04    0.31905E-06   -0.10230E-05  1760   0.633E-03    0.486E-03
DAV:  14    -0.136665026733E+04    0.36506E-06   -0.19609E-06  1000   0.453E-03
  17 F= -.13666503E+04 E0= -.13666503E+04  d E =-.223689E+00
 BRION: g(F)=  0.825E-01 g(S)=  0.000E+00 retain N=  3 mean eig= 5.18
 eig:   6.688  6.688  2.152
 bond charge predicted
       N       E                     dE             d eps       ncg     rms          rms(c)
DAV:   1    -0.136672366888E+04   -0.73401E-01   -0.19452E+01  1360   0.634E+00    0.713E-01
DAV:   2    -0.136681993026E+04   -0.96261E-01   -0.10180E+00  2280   0.247E+00    0.357E-01
DAV:   3    -0.136682601325E+04   -0.60830E-02   -0.82398E-02  2600   0.489E-01    0.282E-01
DAV:   4    -0.136682504717E+04    0.96608E-03   -0.71516E-03  2608   0.202E-01    0.205E-01
DAV:   5    -0.136682402369E+04    0.10235E-02   -0.34423E-03  2336   0.127E-01    0.879E-02
DAV:   6    -0.136682406223E+04   -0.38543E-04   -0.26463E-03  2368   0.997E-02    0.591E-02
DAV:   7    -0.136682408847E+04   -0.26240E-04   -0.11171E-03  2432   0.626E-02    0.472E-02
DAV:   8    -0.136682408389E+04    0.45822E-05   -0.34742E-04  2544   0.361E-02    0.279E-02
DAV:   9    -0.136682407776E+04    0.61355E-05   -0.10101E-04  2496   0.202E-02    0.165E-02
DAV:  10    -0.136682407961E+04   -0.18512E-05   -0.40345E-05  2512   0.127E-02    0.103E-02
DAV:  11    -0.136682407909E+04    0.51351E-06   -0.10080E-05  1696   0.808E-03    0.550E-03
DAV:  12    -0.136682407950E+04   -0.40364E-06   -0.96549E-06  1672   0.669E-03
  18 F= -.13668241E+04 E0= -.13668241E+04  d E =-.173812E+00
 BRION: g(F)=  0.761E-01 g(S)=  0.000E+00 retain N=  3 mean eig= 4.64
 eig:   6.045  6.045  1.815
 bond charge predicted
       N       E                     dE             d eps       ncg     rms          rms(c)
DAV:   1    -0.136689889612E+04   -0.74817E-01   -0.11335E+01  1368   0.485E+00    0.554E-01
DAV:   2    -0.136695601131E+04   -0.57115E-01   -0.60750E-01  2304   0.191E+00    0.278E-01
DAV:   3    -0.136695953229E+04   -0.35210E-02   -0.48177E-02  2592   0.385E-01    0.220E-01
DAV:   4    -0.136695898738E+04    0.54492E-03   -0.45139E-03  2600   0.160E-01    0.158E-01
DAV:   5    -0.136695849253E+04    0.49485E-03   -0.23541E-03  2376   0.971E-02    0.671E-02
DAV:   6    -0.136695853244E+04   -0.39918E-04   -0.13201E-03  2432   0.708E-02    0.505E-02
DAV:   7    -0.136695853688E+04   -0.44370E-05   -0.68460E-04  2472   0.494E-02    0.356E-02
DAV:   8    -0.136695853699E+04   -0.10485E-06   -0.24447E-04  2528   0.305E-02    0.232E-02
DAV:   9    -0.136695853366E+04    0.33302E-05   -0.51011E-05  2528   0.151E-02    0.153E-02
DAV:  10    -0.136695853370E+04   -0.48603E-07   -0.28516E-05  2400   0.973E-03    0.747E-03
DAV:  11    -0.136695853356E+04    0.14713E-06   -0.36915E-06  1176   0.683E-03
  19 F= -.13669585E+04 E0= -.13669585E+04  d E =-.134454E+00
 BRION: g(F)=  0.720E-01 g(S)=  0.000E+00 retain N=  3 mean eig= 4.26
 eig:   5.627  5.627  1.537
 bond charge predicted
       N       E                     dE             d eps       ncg     rms          rms(c)
DAV:   1    -0.136702901237E+04   -0.70479E-01   -0.18614E+01  1360   0.620E+00    0.688E-01
DAV:   2    -0.136712132087E+04   -0.92309E-01   -0.97542E-01  2296   0.241E+00    0.341E-01
DAV:   3    -0.136712717137E+04   -0.58505E-02   -0.77347E-02  2592   0.480E-01    0.269E-01
DAV:   4    -0.136712638218E+04    0.78919E-03   -0.67076E-03  2608   0.196E-01    0.198E-01
DAV:   5    -0.136712548886E+04    0.89333E-03   -0.33406E-03  2336   0.122E-01    0.836E-02
DAV:   6    -0.136712554216E+04   -0.53298E-04   -0.23100E-03  2376   0.925E-02    0.594E-02
DAV:   7    -0.136712556026E+04   -0.18105E-04   -0.10128E-03  2464   0.600E-02    0.442E-02
DAV:   8    -0.136712555602E+04    0.42361E-05   -0.32947E-04  2576   0.362E-02    0.266E-02
DAV:   9    -0.136712555179E+04    0.42311E-05   -0.84372E-05  2488   0.188E-02    0.164E-02
DAV:  10    -0.136712555308E+04   -0.12823E-05   -0.34882E-05  2520   0.116E-02    0.906E-03
DAV:  11    -0.136712555298E+04    0.95795E-07   -0.69646E-06  1464   0.748E-03
  20 F= -.13671256E+04 E0= -.13671256E+04  d E =-.167019E+00
 BRION: g(F)=  0.672E-01 g(S)=  0.000E+00 retain N=  3 mean eig= 4.92
 eig:   6.631  6.631  1.492
