 running on  160 total cores
 distrk:  each k-point on  160 cores,    1 groups
 distr:  one band on   20 cores,    8 groups
 using from now: INCAR     
 vasp.5.4.4.18Apr17-6-g9f103f2a35 (build May 01 2020 14:22:42) gamma-only       
  
 POSCAR found type information on POSCAR  O  La Zr Li Al
 POSCAR found :  5 types and     188 ions
 scaLAPACK will be used
 LDA part: xc-table for Pade appr. of Perdew
 POSCAR, INCAR and KPOINTS ok, starting setup
 FFT: planning ...
 WAVECAR not read
 WARNING: random wavefunctions but no delay for mixing, default for NELMDL
 entering main loop
       N       E                     dE             d eps       ncg     rms          rms(c)
DAV:   1     0.253261588386E+05    0.25326E+05   -0.42054E+05  1592   0.253E+03
DAV:   2     0.943579854204E+04   -0.15890E+05   -0.14704E+05  1432   0.707E+02
DAV:   3     0.269702894667E+04   -0.67388E+04   -0.61398E+04  1496   0.356E+02
DAV:   4    -0.358917641764E+03   -0.30559E+04   -0.28481E+04  2056   0.223E+02
DAV:   5    -0.140881972722E+04   -0.10499E+04   -0.10094E+04  2520   0.141E+02    0.116E+02
DAV:   6    -0.129920413870E+04    0.10962E+03   -0.14649E+03  2440   0.663E+01    0.502E+01
DAV:   7    -0.132179591447E+04   -0.22592E+02   -0.39942E+02  2568   0.343E+01    0.257E+01
DAV:   8    -0.133022857873E+04   -0.84327E+01   -0.27760E+02  2536   0.283E+01    0.265E+01
DAV:   9    -0.132316097663E+04    0.70676E+01   -0.55014E+01  2496   0.152E+01    0.828E+00
DAV:  10    -0.132400227190E+04   -0.84130E+00   -0.16941E+01  2616   0.816E+00    0.759E+00
DAV:  11    -0.132437165725E+04   -0.36939E+00   -0.68204E+00  2624   0.446E+00    0.481E+00
DAV:  12    -0.132422890829E+04    0.14275E+00   -0.24316E+00  2592   0.359E+00    0.344E+00
DAV:  13    -0.132426820985E+04   -0.39302E-01   -0.14377E+00  2544   0.209E+00    0.259E+00
DAV:  14    -0.132424665879E+04    0.21551E-01   -0.22319E-01  2592   0.112E+00    0.144E+00
DAV:  15    -0.132423224587E+04    0.14413E-01   -0.13126E-01  2560   0.629E-01    0.895E-01
DAV:  16    -0.132422998305E+04    0.22628E-02   -0.37865E-02  2608   0.383E-01    0.606E-01
DAV:  17    -0.132422847872E+04    0.15043E-02   -0.16227E-02  2376   0.245E-01    0.439E-01
DAV:  18    -0.132422816835E+04    0.31037E-03   -0.78638E-03  2464   0.172E-01    0.140E-01
DAV:  19    -0.132422809847E+04    0.69883E-04   -0.29518E-03  2480   0.120E-01    0.131E-01
DAV:  20    -0.132422811004E+04   -0.11570E-04   -0.15717E-03  2496   0.684E-02    0.680E-02
DAV:  21    -0.132422810833E+04    0.17071E-05   -0.35344E-04  2624   0.393E-02    0.317E-02
DAV:  22    -0.132422811580E+04   -0.74692E-05   -0.17502E-04  2560   0.241E-02    0.205E-02
DAV:  23    -0.132422811966E+04   -0.38539E-05   -0.60337E-05  2464   0.145E-02    0.195E-02
DAV:  24    -0.132422812432E+04   -0.46652E-05   -0.12122E-05  1280   0.842E-03    0.108E-02
DAV:  25    -0.132422812190E+04    0.24174E-05   -0.18237E-05  1672   0.812E-03    0.906E-03
DAV:  26    -0.132422812304E+04   -0.11393E-05   -0.30087E-06  1032   0.543E-03    0.537E-03
DAV:  27    -0.132422812353E+04   -0.48440E-06   -0.13382E-06   992   0.377E-03
   1 F= -.13242281E+04 E0= -.13242124E+04  d E =-.132423E+04
 BRION: g(F)=  0.657E+02 g(S)=  0.000E+00
 bond charge predicted
       N       E                     dE             d eps       ncg     rms          rms(c)
DAV:   1    -0.127922944902E+04    0.44999E+02   -0.90030E+03  1720   0.144E+02    0.329E+01
DAV:   2    -0.134995435946E+04   -0.70725E+02   -0.82053E+02  2576   0.655E+01    0.162E+01
DAV:   3    -0.134749652213E+04    0.24578E+01   -0.48238E+01  2624   0.178E+01    0.108E+01
DAV:   4    -0.134456361526E+04    0.29329E+01   -0.15617E+01  2416   0.861E+00    0.516E+00
DAV:   5    -0.134423555945E+04    0.32806E+00   -0.56540E+00  2552   0.527E+00    0.357E+00
DAV:   6    -0.134416221342E+04    0.73346E-01   -0.40279E+00  2544   0.353E+00    0.218E+00
DAV:   7    -0.134408945983E+04    0.72754E-01   -0.66988E-01  2536   0.205E+00    0.106E+00
DAV:   8    -0.134410303101E+04   -0.13571E-01   -0.47572E-01  2608   0.119E+00    0.824E-01
DAV:   9    -0.134410322513E+04   -0.19412E-03   -0.67338E-02  2592   0.576E-01    0.650E-01
DAV:  10    -0.134409724578E+04    0.59794E-02   -0.68642E-02  2496   0.475E-01    0.237E-01
DAV:  11    -0.134409932932E+04   -0.20835E-02   -0.26438E-02  2504   0.323E-01    0.284E-01
DAV:  12    -0.134409891866E+04    0.41066E-03   -0.43997E-03  2600   0.144E-01    0.206E-01
DAV:  13    -0.134409830014E+04    0.61851E-03   -0.53136E-03  2296   0.123E-01    0.369E-02
DAV:  14    -0.134409841862E+04   -0.11847E-03   -0.12988E-03  2424   0.728E-02    0.276E-02
DAV:  15    -0.134409845722E+04   -0.38609E-04   -0.28388E-04  2616   0.303E-02    0.414E-02
DAV:  16    -0.134409842768E+04    0.29543E-04   -0.10884E-04  2576   0.226E-02    0.225E-02
DAV:  17    -0.134409842959E+04   -0.19135E-05   -0.12953E-04  2504   0.184E-02    0.882E-03
DAV:  18    -0.134409842869E+04    0.90491E-06   -0.14136E-05  1992   0.904E-03    0.349E-03
DAV:  19    -0.134409842911E+04   -0.42051E-06   -0.82168E-06  1624   0.562E-03
   2 F= -.13440984E+04 E0= -.13440984E+04  d E =-.198703E+02
 BRION: g(F)=  0.525E+02 g(S)=  0.000E+00 retain N=  1 mean eig= 0.54
 eig:   0.537
 bond charge predicted
       N       E                     dE             d eps       ncg     rms          rms(c)
DAV:   1    -0.133012610293E+04    0.13972E+02   -0.30221E+03  1392   0.764E+01    0.186E+01
DAV:   2    -0.135443858429E+04   -0.24312E+02   -0.29413E+02  2536   0.344E+01    0.159E+01
DAV:   3    -0.135398060918E+04    0.45798E+00   -0.20912E+01  2600   0.112E+01    0.125E+01
DAV:   4    -0.135276784197E+04    0.12128E+01   -0.14368E+01  2216   0.589E+00    0.634E+00
DAV:   5    -0.135283777970E+04   -0.69938E-01   -0.40931E+00  2336   0.421E+00    0.597E+00
DAV:   6    -0.135227375887E+04    0.56402E+00   -0.59024E+00  2360   0.401E+00    0.158E+00
DAV:   7    -0.135232058024E+04   -0.46821E-01   -0.11163E+00  2352   0.217E+00    0.117E+00
DAV:   8    -0.135232152667E+04   -0.94643E-03   -0.29185E-01  2584   0.914E-01    0.643E-01
DAV:   9    -0.135231825680E+04    0.32699E-02   -0.73392E-02  2616   0.534E-01    0.332E-01
DAV:  10    -0.135231914944E+04   -0.89264E-03   -0.21073E-02  2424   0.278E-01    0.179E-01
DAV:  11    -0.135231895119E+04    0.19825E-03   -0.45632E-03  2616   0.167E-01    0.124E-01
DAV:  12    -0.135231905716E+04   -0.10597E-03   -0.45065E-03  2536   0.108E-01    0.865E-02
DAV:  13    -0.135231904607E+04    0.11091E-04   -0.10761E-03  2600   0.687E-02    0.654E-02
DAV:  14    -0.135231900375E+04    0.42319E-04   -0.44874E-04  2536   0.403E-02    0.312E-02
DAV:  15    -0.135231900440E+04   -0.65171E-06   -0.15528E-04  2568   0.243E-02    0.112E-02
DAV:  16    -0.135231900700E+04   -0.26030E-05   -0.43377E-05  2528   0.125E-02    0.650E-03
DAV:  17    -0.135231900707E+04   -0.65513E-07   -0.67542E-06  1536   0.802E-03
   3 F= -.13523190E+04 E0= -.13523190E+04  d E =-.822058E+01
 BRION: g(F)=  0.894E+01 g(S)=  0.000E+00 retain N=  2 mean eig= 1.47
 eig:   0.396  2.547
 bond charge predicted
       N       E                     dE             d eps       ncg     rms          rms(c)
DAV:   1    -0.135346238462E+04   -0.11434E+01   -0.39697E+02  1368   0.264E+01    0.547E+00
DAV:   2    -0.135554509900E+04   -0.20827E+01   -0.23201E+01  2344   0.104E+01    0.274E+00
DAV:   3    -0.135554859373E+04   -0.34947E-02   -0.15714E+00  2616   0.251E+00    0.219E+00
DAV:   4    -0.135547648010E+04    0.72114E-01   -0.47430E-01  2504   0.135E+00    0.105E+00
DAV:   5    -0.135547050699E+04    0.59731E-02   -0.15243E-01  2504   0.836E-01    0.738E-01
DAV:   6    -0.135546682555E+04    0.36814E-02   -0.10468E-01  2536   0.579E-01    0.371E-01
DAV:   7    -0.135546675906E+04    0.66484E-04   -0.24804E-02  2520   0.304E-01    0.289E-01
DAV:   8    -0.135546631034E+04    0.44872E-03   -0.79558E-03  2608   0.161E-01    0.160E-01
DAV:   9    -0.135546610858E+04    0.20175E-03   -0.39576E-03  2560   0.114E-01    0.784E-02
DAV:  10    -0.135546618595E+04   -0.77367E-04   -0.14177E-03  2240   0.698E-02    0.780E-02
DAV:  11    -0.135546611692E+04    0.69035E-04   -0.50809E-04  2568   0.432E-02    0.333E-02
DAV:  12    -0.135546612368E+04   -0.67677E-05   -0.32585E-04  2552   0.303E-02    0.228E-02
DAV:  13    -0.135546612388E+04   -0.19534E-06   -0.52477E-05  2432   0.163E-02    0.160E-02
DAV:  14    -0.135546612180E+04    0.20801E-05   -0.30888E-05  2168   0.916E-03    0.618E-03
DAV:  15    -0.135546612186E+04   -0.63344E-07   -0.45224E-06  1304   0.606E-03
   4 F= -.13554661E+04 E0= -.13554661E+04  d E =-.314711E+01
 BRION: g(F)=  0.306E+01 g(S)=  0.000E+00 retain N=  3 mean eig= 1.82
 eig:   4.736  0.357  0.357
 bond charge predicted
       N       E                     dE             d eps       ncg     rms          rms(c)
DAV:   1    -0.135634821312E+04   -0.88209E+00   -0.17160E+02  1368   0.180E+01    0.306E+00
DAV:   2    -0.135717857066E+04   -0.83036E+00   -0.90770E+00  2288   0.683E+00    0.152E+00
DAV:   3    -0.135719320071E+04   -0.14630E-01   -0.65705E-01  2608   0.146E+00    0.126E+00
DAV:   4    -0.135716335607E+04    0.29845E-01   -0.16405E-01  2536   0.826E-01    0.612E-01
DAV:   5    -0.135715882570E+04    0.45304E-02   -0.55366E-02  2456   0.481E-01    0.394E-01
DAV:   6    -0.135715831535E+04    0.51035E-03   -0.37760E-02  2544   0.363E-01    0.201E-01
DAV:   7    -0.135715842849E+04   -0.11314E-03   -0.12272E-02  2248   0.197E-01    0.172E-01
DAV:   8    -0.135715838240E+04    0.46089E-04   -0.34408E-03  2368   0.996E-02    0.988E-02
DAV:   9    -0.135715829924E+04    0.83160E-04   -0.15877E-03  2616   0.705E-02    0.547E-02
DAV:  10    -0.135715833334E+04   -0.34096E-04   -0.66287E-04  2520   0.497E-02    0.563E-02
DAV:  11    -0.135715830014E+04    0.33202E-04   -0.31176E-04  2488   0.328E-02    0.214E-02
DAV:  12    -0.135715830541E+04   -0.52723E-05   -0.13552E-04  2408   0.205E-02    0.132E-02
DAV:  13    -0.135715830535E+04    0.57509E-07   -0.22835E-05  2192   0.107E-02    0.779E-03
DAV:  14    -0.135715830586E+04   -0.51403E-06   -0.17891E-05  1712   0.723E-03    0.527E-03
DAV:  15    -0.135715830552E+04    0.33992E-06   -0.24666E-06  1064   0.536E-03
   5 F= -.13571583E+04 E0= -.13571583E+04  d E =-.169218E+01
 BRION: g(F)=  0.124E+01 g(S)=  0.000E+00 retain N=  4 mean eig= 1.70
 eig:   3.346  2.249  0.598  0.598
 bond charge predicted
       N       E                     dE             d eps       ncg     rms          rms(c)
DAV:   1    -0.135761345780E+04   -0.45515E+00   -0.18405E+02  1368   0.192E+01    0.272E+00
DAV:   2    -0.135850120238E+04   -0.88774E+00   -0.93926E+00  2272   0.714E+00    0.137E+00
DAV:   3    -0.135853703696E+04   -0.35835E-01   -0.68421E-01  2608   0.145E+00    0.110E+00
DAV:   4    -0.135851595023E+04    0.21087E-01   -0.10748E-01  2520   0.729E-01    0.615E-01
DAV:   5    -0.135851078548E+04    0.51648E-02   -0.47881E-02  2440   0.446E-01    0.288E-01
DAV:   6    -0.135851182454E+04   -0.10391E-02   -0.22702E-02  2584   0.286E-01    0.195E-01
DAV:   7    -0.135851162895E+04    0.19560E-03   -0.65325E-03  2456   0.161E-01    0.131E-01
DAV:   8    -0.135851166377E+04   -0.34822E-04   -0.28784E-03  2480   0.939E-02    0.728E-02
DAV:   9    -0.135851161492E+04    0.48848E-04   -0.56613E-04  2616   0.527E-02    0.471E-02
DAV:  10    -0.135851163890E+04   -0.23985E-04   -0.56360E-04  2480   0.405E-02    0.385E-02
DAV:  11    -0.135851162235E+04    0.16550E-04   -0.17503E-04  2504   0.289E-02    0.139E-02
DAV:  12    -0.135851162814E+04   -0.57896E-05   -0.84495E-05  2392   0.167E-02    0.140E-02
DAV:  13    -0.135851162617E+04    0.19757E-05   -0.23352E-05  2192   0.103E-02    0.657E-03
DAV:  14    -0.135851162635E+04   -0.17983E-06   -0.95102E-06  1688   0.631E-03
   6 F= -.13585116E+04 E0= -.13585116E+04  d E =-.135332E+01
 BRION: g(F)=  0.733E+00 g(S)=  0.000E+00 retain N=  5 mean eig= 1.70
 eig:   3.079  3.079  0.855  0.855  0.640
 bond charge predicted
       N       E                     dE             d eps       ncg     rms          rms(c)
DAV:   1    -0.135890869555E+04   -0.39707E+00   -0.88651E+01  1376   0.135E+01    0.189E+00
DAV:   2    -0.135936011320E+04   -0.45142E+00   -0.47886E+00  2296   0.514E+00    0.916E-01
DAV:   3    -0.135938316552E+04   -0.23052E-01   -0.37516E-01  2608   0.103E+00    0.755E-01
DAV:   4    -0.135937462810E+04    0.85374E-02   -0.50197E-02  2568   0.515E-01    0.447E-01
DAV:   5    -0.135937137711E+04    0.32510E-02   -0.22834E-02  2400   0.310E-01    0.191E-01
DAV:   6    -0.135937204261E+04   -0.66550E-03   -0.10786E-02  2560   0.200E-01    0.160E-01
DAV:   7    -0.135937185471E+04    0.18789E-03   -0.43154E-03  2464   0.128E-01    0.103E-01
DAV:   8    -0.135937187120E+04   -0.16488E-04   -0.20683E-03  2504   0.805E-02    0.582E-02
DAV:   9    -0.135937184641E+04    0.24792E-04   -0.32130E-04  2424   0.397E-02    0.437E-02
DAV:  10    -0.135937184840E+04   -0.19943E-05   -0.34827E-04  2296   0.324E-02    0.282E-02
DAV:  11    -0.135937184371E+04    0.46941E-05   -0.10138E-04  2424   0.229E-02    0.115E-02
DAV:  12    -0.135937184791E+04   -0.42042E-05   -0.55703E-05  2368   0.134E-02    0.129E-02
DAV:  13    -0.135937184564E+04    0.22701E-05   -0.19749E-05  2040   0.940E-03    0.478E-03
DAV:  14    -0.135937184575E+04   -0.11164E-06   -0.38471E-06  1216   0.577E-03
   7 F= -.13593718E+04 E0= -.13593718E+04  d E =-.860219E+00
 BRION: g(F)=  0.525E+00 g(S)=  0.000E+00 retain N=  6 mean eig= 2.01
 eig:   3.665  3.665  1.691  1.691  0.677  0.677
 bond charge predicted
       N       E                     dE             d eps       ncg     rms          rms(c)
DAV:   1    -0.135962732054E+04   -0.25547E+00   -0.11102E+02  1384   0.150E+01    0.197E+00
DAV:   2    -0.136019619507E+04   -0.56887E+00   -0.60270E+00  2288   0.572E+00    0.963E-01
DAV:   3    -0.136022621068E+04   -0.30016E-01   -0.46725E-01  2608   0.117E+00    0.773E-01
DAV:   4    -0.136021642346E+04    0.97872E-02   -0.52819E-02  2592   0.548E-01    0.490E-01
DAV:   5    -0.136021116449E+04    0.52590E-02   -0.27853E-02  2384   0.345E-01    0.193E-01
DAV:   6    -0.136021212098E+04   -0.95650E-03   -0.15008E-02  2536   0.232E-01    0.179E-01
DAV:   7    -0.136021198153E+04    0.13945E-03   -0.51899E-03  2528   0.140E-01    0.121E-01
DAV:   8    -0.136021192538E+04    0.56158E-04   -0.21387E-03  2584   0.859E-02    0.602E-02
DAV:   9    -0.136021190407E+04    0.21305E-04   -0.33898E-04  2592   0.411E-02    0.425E-02
DAV:  10    -0.136021191117E+04   -0.70984E-05   -0.26424E-04  2424   0.293E-02    0.248E-02
DAV:  11    -0.136021190765E+04    0.35217E-05   -0.70390E-05  2440   0.200E-02    0.109E-02
DAV:  12    -0.136021191169E+04   -0.40433E-05   -0.49938E-05  2360   0.123E-02    0.131E-02
DAV:  13    -0.136021190915E+04    0.25426E-05   -0.15508E-05  1944   0.837E-03    0.528E-03
DAV:  14    -0.136021190914E+04    0.10012E-07   -0.35026E-06  1160   0.538E-03
   8 F= -.13602119E+04 E0= -.13602119E+04  d E =-.840063E+00
 BRION: g(F)=  0.368E+00 g(S)=  0.000E+00 retain N=  7 mean eig= 2.35
 eig:   3.895  3.895  3.206  3.206  0.794  0.794  0.694
 bond charge predicted
       N       E                     dE             d eps       ncg     rms          rms(c)
DAV:   1    -0.136047418817E+04   -0.26228E+00   -0.56904E+01  1384   0.109E+01    0.134E+00
DAV:   2    -0.136077280008E+04   -0.29861E+00   -0.31731E+00  2296   0.424E+00    0.689E-01
DAV:   3    -0.136079074121E+04   -0.17941E-01   -0.25311E-01  2584   0.860E-01    0.565E-01
DAV:   4    -0.136078688555E+04    0.38557E-02   -0.26765E-02  2600   0.393E-01    0.389E-01
DAV:   5    -0.136078382618E+04    0.30594E-02   -0.14536E-02  2360   0.252E-01    0.152E-01
DAV:   6    -0.136078437524E+04   -0.54906E-03   -0.89265E-03  2512   0.182E-01    0.143E-01
DAV:   7    -0.136078427381E+04    0.10143E-03   -0.35102E-03  2480   0.113E-01    0.980E-02
DAV:   8    -0.136078422970E+04    0.44111E-04   -0.15214E-03  2568   0.732E-02    0.468E-02
DAV:   9    -0.136078421888E+04    0.10817E-04   -0.23940E-04  2384   0.344E-02    0.338E-02
DAV:  10    -0.136078422192E+04   -0.30318E-05   -0.13054E-04  2440   0.210E-02    0.183E-02
DAV:  11    -0.136078422176E+04    0.15502E-06   -0.37917E-05  2432   0.142E-02    0.971E-03
DAV:  12    -0.136078422309E+04   -0.13335E-05   -0.22518E-05  2304   0.958E-03    0.102E-02
DAV:  13    -0.136078422178E+04    0.13124E-05   -0.10686E-05  1712   0.668E-03    0.477E-03
DAV:  14    -0.136078422165E+04    0.13136E-06   -0.24228E-06  1072   0.503E-03
   9 F= -.13607842E+04 E0= -.13607842E+04  d E =-.572313E+00
 BRION: g(F)=  0.270E+00 g(S)=  0.000E+00 retain N=  8 mean eig= 2.99
 eig:   6.271  6.271  3.775  3.775  1.185  1.185  0.743  0.743
 bond charge predicted
       N       E                     dE             d eps       ncg     rms          rms(c)
DAV:   1    -0.136091821355E+04   -0.13399E+00   -0.10425E+02  1392   0.146E+01    0.173E+00
DAV:   2    -0.136146933730E+04   -0.55112E+00   -0.58450E+00  2312   0.576E+00    0.870E-01
DAV:   3    -0.136150219638E+04   -0.32859E-01   -0.46278E-01  2600   0.114E+00    0.724E-01
DAV:   4    -0.136149629221E+04    0.59042E-02   -0.44126E-02  2600   0.508E-01    0.523E-01
DAV:   5    -0.136148958679E+04    0.67054E-02   -0.21868E-02  2352   0.301E-01    0.227E-01
DAV:   6    -0.136148982396E+04   -0.23717E-03   -0.17546E-02  2328   0.252E-01    0.167E-01
DAV:   7    -0.136148985675E+04   -0.32796E-04   -0.81277E-03  2440   0.168E-01    0.135E-01
DAV:   8    -0.136148979091E+04    0.65843E-04   -0.28320E-03  2584   0.103E-01    0.768E-02
DAV:   9    -0.136148974035E+04    0.50560E-04   -0.73129E-04  2536   0.532E-02    0.472E-02
DAV:  10    -0.136148975080E+04   -0.10450E-04   -0.24760E-04  2552   0.296E-02    0.299E-02
DAV:  11    -0.136148975548E+04   -0.46778E-05   -0.10968E-04  2432   0.214E-02    0.228E-02
DAV:  12    -0.136148974996E+04    0.55118E-05   -0.56176E-05  2320   0.175E-02    0.176E-02
DAV:  13    -0.136148974825E+04    0.17099E-05   -0.52711E-05  2256   0.124E-02    0.861E-03
DAV:  14    -0.136148974809E+04    0.16557E-06   -0.11087E-05  1760   0.673E-03    0.330E-03
DAV:  15    -0.136148974815E+04   -0.62661E-07   -0.20955E-06  1016   0.454E-03
  10 F= -.13614897E+04 E0= -.13614897E+04  d E =-.705527E+00
 BRION: g(F)=  0.212E+00 g(S)=  0.000E+00 retain N=  7 mean eig= 3.19
 eig:   7.259  7.259  2.120  2.120  0.962  1.303  1.303
 bond charge predicted
       N       E                     dE             d eps       ncg     rms          rms(c)
DAV:   1    -0.136166618408E+04   -0.17644E+00   -0.49043E+01  1392   0.100E+01    0.119E+00
DAV:   2    -0.136192463453E+04   -0.25845E+00   -0.27467E+00  2296   0.398E+00    0.599E-01
DAV:   3    -0.136194018799E+04   -0.15553E-01   -0.21891E-01  2600   0.783E-01    0.500E-01
DAV:   4    -0.136193726231E+04    0.29257E-02   -0.20756E-02  2616   0.347E-01    0.364E-01
DAV:   5    -0.136193372712E+04    0.35352E-02   -0.11348E-02  2312   0.220E-01    0.149E-01
DAV:   6    -0.136193398880E+04   -0.26167E-03   -0.91460E-03  2384   0.179E-01    0.126E-01
DAV:   7    -0.136193394841E+04    0.40389E-04   -0.37567E-03  2416   0.114E-01    0.944E-02
DAV:   8    -0.136193391090E+04    0.37503E-04   -0.14405E-03  2552   0.712E-02    0.480E-02
DAV:   9    -0.136193389344E+04    0.17469E-04   -0.30651E-04  2416   0.361E-02    0.323E-02
DAV:  10    -0.136193389678E+04   -0.33489E-05   -0.10740E-04  2448   0.194E-02    0.197E-02
DAV:  11    -0.136193389698E+04   -0.19214E-06   -0.45078E-05  2416   0.142E-02    0.120E-02
DAV:  12    -0.136193389683E+04    0.15042E-06   -0.21420E-05  2280   0.103E-02    0.108E-02
DAV:  13    -0.136193389591E+04    0.91696E-06   -0.16341E-05  1832   0.729E-03    0.532E-03
DAV:  14    -0.136193389568E+04    0.23030E-06   -0.26162E-06  1112   0.485E-03
  11 F= -.13619339E+04 E0= -.13619339E+04  d E =-.444148E+00
 BRION: g(F)=  0.183E+00 g(S)=  0.000E+00 retain N=  7 mean eig= 3.70
 eig:   7.624  7.624  3.585  3.585  1.259  1.259  0.989
 bond charge predicted
       N       E                     dE             d eps       ncg     rms          rms(c)
DAV:   1    -0.136207561605E+04   -0.14172E+00   -0.49804E+01  1392   0.102E+01    0.118E+00
DAV:   2    -0.136234058266E+04   -0.26497E+00   -0.28210E+00  2312   0.402E+00    0.602E-01
DAV:   3    -0.136235701635E+04   -0.16434E-01   -0.22853E-01  2600   0.805E-01    0.507E-01
DAV:   4    -0.136235437870E+04    0.26377E-02   -0.21309E-02  2616   0.355E-01    0.378E-01
DAV:   5    -0.136235078121E+04    0.35975E-02   -0.10880E-02  2344   0.209E-01    0.167E-01
DAV:   6    -0.136235078519E+04   -0.39759E-05   -0.91849E-03  2312   0.177E-01    0.120E-01
DAV:   7    -0.136235080483E+04   -0.19636E-04   -0.43591E-03  2416   0.121E-01    0.952E-02
DAV:   8    -0.136235076549E+04    0.39335E-04   -0.14328E-03  2552   0.752E-02    0.553E-02
DAV:   9    -0.136235074482E+04    0.20675E-04   -0.38867E-04  2552   0.383E-02    0.327E-02
DAV:  10    -0.136235075083E+04   -0.60127E-05   -0.10493E-04  2552   0.201E-02    0.209E-02
DAV:  11    -0.136235075381E+04   -0.29807E-05   -0.46202E-05  2344   0.142E-02    0.163E-02
DAV:  12    -0.136235075138E+04    0.24336E-05   -0.32055E-05  2312   0.123E-02    0.129E-02
DAV:  13    -0.136235075027E+04    0.11053E-05   -0.20904E-05  2144   0.840E-03    0.695E-03
DAV:  14    -0.136235074975E+04    0.52420E-06   -0.26496E-06  1080   0.500E-03
  12 F= -.13623507E+04 E0= -.13623507E+04  d E =-.416854E+00
 BRION: g(F)=  0.153E+00 g(S)=  0.000E+00 retain N=  3 mean eig= 5.14
 eig:   6.884  6.884  1.645
 bond charge predicted
       N       E                     dE             d eps       ncg     rms          rms(c)
DAV:   1    -0.136247175457E+04   -0.12100E+00   -0.51856E+01  1392   0.103E+01    0.118E+00
DAV:   2    -0.136274443028E+04   -0.27268E+00   -0.28993E+00  2312   0.403E+00    0.604E-01
DAV:   3    -0.136276132942E+04   -0.16899E-01   -0.23501E-01  2600   0.811E-01    0.502E-01
DAV:   4    -0.136275870520E+04    0.26242E-02   -0.22062E-02  2616   0.358E-01    0.376E-01
DAV:   5    -0.136275499065E+04    0.37146E-02   -0.95718E-03  2400   0.210E-01    0.181E-01
DAV:   6    -0.136275459532E+04    0.39533E-03   -0.99719E-03  2232   0.201E-01    0.105E-01
DAV:   7    -0.136275484053E+04   -0.24520E-03   -0.57672E-03  2392   0.135E-01    0.108E-01
DAV:   8    -0.136275479299E+04    0.47534E-04   -0.11535E-03  2576   0.722E-02    0.755E-02
DAV:   9    -0.136275472147E+04    0.71523E-04   -0.63969E-04  2544   0.458E-02    0.353E-02
DAV:  10    -0.136275473747E+04   -0.15996E-04   -0.24304E-04  2512   0.298E-02    0.241E-02
DAV:  11    -0.136275473996E+04   -0.24919E-05   -0.75240E-05  2400   0.177E-02    0.184E-02
DAV:  12    -0.136275473678E+04    0.31777E-05   -0.66785E-05  2296   0.173E-02    0.162E-02
DAV:  13    -0.136275473523E+04    0.15518E-05   -0.36468E-05  2232   0.118E-02    0.116E-02
DAV:  14    -0.136275473415E+04    0.10756E-05   -0.12242E-05  1784   0.663E-03    0.441E-03
DAV:  15    -0.136275473404E+04    0.11599E-06   -0.12574E-06   960   0.398E-03
  13 F= -.13627547E+04 E0= -.13627547E+04  d E =-.403984E+00
 BRION: g(F)=  0.133E+00 g(S)=  0.000E+00 retain N=  3 mean eig= 4.38
 eig:   5.773  5.773  1.578
 bond charge predicted
       N       E                     dE             d eps       ncg     rms          rms(c)
DAV:   1    -0.136286384034E+04   -0.10911E+00   -0.32258E+01  1376   0.822E+00    0.970E-01
DAV:   2    -0.136303557870E+04   -0.17174E+00   -0.18357E+00  2296   0.322E+00    0.488E-01
DAV:   3    -0.136304669264E+04   -0.11114E-01   -0.15219E-01  2576   0.665E-01    0.406E-01
DAV:   4    -0.136304504575E+04    0.16469E-02   -0.14991E-02  2600   0.295E-01    0.301E-01
DAV:   5    -0.136304291621E+04    0.21295E-02   -0.70485E-03  2424   0.175E-01    0.135E-01
DAV:   6    -0.136304286651E+04    0.49700E-04   -0.56176E-03  2304   0.145E-01    0.924E-02
DAV:   7    -0.136304292390E+04   -0.57392E-04   -0.28761E-03  2448   0.984E-02    0.783E-02
DAV:   8    -0.136304289599E+04    0.27911E-04   -0.87703E-04  2592   0.595E-02    0.467E-02
DAV:   9    -0.136304287900E+04    0.16990E-04   -0.27762E-04  2552   0.314E-02    0.258E-02
DAV:  10    -0.136304288374E+04   -0.47390E-05   -0.80258E-05  2560   0.179E-02    0.170E-02
DAV:  11    -0.136304288546E+04   -0.17195E-05   -0.30599E-05  2344   0.118E-02    0.129E-02
DAV:  12    -0.136304288373E+04    0.17282E-05   -0.22579E-05  2160   0.106E-02    0.997E-03
DAV:  13    -0.136304288307E+04    0.65405E-06   -0.13797E-05  1840   0.731E-03    0.552E-03
DAV:  14    -0.136304288276E+04    0.31317E-06   -0.20767E-06  1000   0.478E-03
  14 F= -.13630429E+04 E0= -.13630429E+04  d E =-.288149E+00
 BRION: g(F)=  0.117E+00 g(S)=  0.000E+00 retain N=  3 mean eig= 4.41
 eig:   5.773  5.773  1.676
 bond charge predicted
       N       E                     dE             d eps       ncg     rms          rms(c)
DAV:   1    -0.136314482346E+04   -0.10194E+00   -0.25681E+01  1376   0.731E+00    0.836E-01
DAV:   2    -0.136328043438E+04   -0.13561E+00   -0.14428E+00  2280   0.286E+00    0.424E-01
DAV:   3    -0.136328929071E+04   -0.88563E-02   -0.11921E-01  2568   0.588E-01    0.351E-01
DAV:   4    -0.136328820594E+04    0.10848E-02   -0.11573E-02  2616   0.258E-01    0.267E-01
DAV:   5    -0.136328655200E+04    0.16539E-02   -0.45297E-03  2448   0.148E-01    0.138E-01
DAV:   6    -0.136328623240E+04    0.31960E-03   -0.47510E-03  2192   0.143E-01    0.704E-02
DAV:   7    -0.136328639310E+04   -0.16069E-03   -0.30038E-03  2400   0.959E-02    0.784E-02
DAV:   8    -0.136328638265E+04    0.10444E-04   -0.54752E-04  2600   0.514E-02    0.628E-02
DAV:   9    -0.136328632711E+04    0.55543E-04   -0.30889E-04  2440   0.330E-02    0.308E-02
DAV:  10    -0.136328633506E+04   -0.79536E-05   -0.19184E-04  2416   0.240E-02    0.169E-02
DAV:  11    -0.136328633728E+04   -0.22123E-05   -0.49483E-05  2152   0.147E-02    0.126E-02
DAV:  12    -0.136328633519E+04    0.20837E-05   -0.34435E-05  2160   0.132E-02    0.116E-02
DAV:  13    -0.136328633425E+04    0.93960E-06   -0.23295E-05  2112   0.925E-03    0.861E-03
DAV:  14    -0.136328633339E+04    0.85957E-06   -0.44004E-06  1288   0.572E-03
  15 F= -.13632863E+04 E0= -.13632863E+04  d E =-.243451E+00
 BRION: g(F)=  0.102E+00 g(S)=  0.000E+00 retain N=  3 mean eig= 5.37
 eig:   7.218  7.218  1.669
 bond charge predicted
       N       E                     dE             d eps       ncg     rms          rms(c)
DAV:   1    -0.136336577917E+04   -0.79445E-01   -0.26220E+01  1376   0.738E+00    0.835E-01
DAV:   2    -0.136350279523E+04   -0.13702E+00   -0.14514E+00  2288   0.286E+00    0.422E-01
DAV:   3    -0.136351153420E+04   -0.87390E-02   -0.11812E-01  2568   0.584E-01    0.343E-01
DAV:   4    -0.136351039217E+04    0.11420E-02   -0.11453E-02  2608   0.256E-01    0.260E-01
DAV:   5    -0.136350873113E+04    0.16610E-02   -0.44185E-03  2440   0.149E-01    0.132E-01
DAV:   6    -0.136350844054E+04    0.29059E-03   -0.46268E-03  2192   0.142E-01    0.671E-02
DAV:   7    -0.136350860662E+04   -0.16608E-03   -0.29769E-03  2408   0.944E-02    0.759E-02
DAV:   8    -0.136350859731E+04    0.93168E-05   -0.51445E-04  2576   0.500E-02    0.599E-02
DAV:   9    -0.136350854664E+04    0.50666E-04   -0.29692E-04  2456   0.325E-02    0.295E-02
DAV:  10    -0.136350855511E+04   -0.84658E-05   -0.18470E-04  2464   0.238E-02    0.174E-02
DAV:  11    -0.136350855565E+04   -0.54522E-06   -0.45649E-05  2264   0.139E-02    0.118E-02
DAV:  12    -0.136350855422E+04    0.14311E-05   -0.31146E-05  2176   0.120E-02    0.112E-02
DAV:  13    -0.136350855337E+04    0.85370E-06   -0.20563E-05  2016   0.877E-03    0.800E-03
DAV:  14    -0.136350855262E+04    0.74616E-06   -0.31719E-06  1144   0.544E-03
  16 F= -.13635086E+04 E0= -.13635086E+04  d E =-.222219E+00
 BRION: g(F)=  0.927E-01 g(S)=  0.000E+00 retain N=  3 mean eig= 4.34
 eig:   5.754  5.754  1.514
 bond charge predicted
       N       E                     dE             d eps       ncg     rms          rms(c)
DAV:   1    -0.136353970102E+04   -0.31148E-01   -0.37354E+01  1376   0.884E+00    0.101E+00
DAV:   2    -0.136373707380E+04   -0.19737E+00   -0.20959E+00  2272   0.346E+00    0.515E-01
DAV:   3    -0.136374988619E+04   -0.12812E-01   -0.17128E-01  2568   0.702E-01    0.422E-01
DAV:   4    -0.136374836040E+04    0.15258E-02   -0.16773E-02  2608   0.310E-01    0.320E-01
DAV:   5    -0.136374614944E+04    0.22110E-02   -0.66642E-03  2480   0.176E-01    0.163E-01
DAV:   6    -0.136374578279E+04    0.36665E-03   -0.64101E-03  2208   0.162E-01    0.829E-02
DAV:   7    -0.136374597783E+04   -0.19504E-03   -0.37463E-03  2424   0.108E-01    0.892E-02
DAV:   8    -0.136374595929E+04    0.18537E-04   -0.76562E-04  2592   0.603E-02    0.686E-02
DAV:   9    -0.136374589701E+04    0.62275E-04   -0.38875E-04  2464   0.368E-02    0.335E-02
DAV:  10    -0.136374590693E+04   -0.99166E-05   -0.22005E-04  2432   0.263E-02    0.186E-02
DAV:  11    -0.136374591038E+04   -0.34441E-05   -0.54388E-05  2200   0.154E-02    0.146E-02
DAV:  12    -0.136374590724E+04    0.31342E-05   -0.41317E-05  2224   0.140E-02    0.128E-02
DAV:  13    -0.136374590597E+04    0.12675E-05   -0.26989E-05  2160   0.100E-02    0.858E-03
DAV:  14    -0.136374590536E+04    0.61131E-06   -0.57847E-06  1472   0.561E-03
  17 F= -.13637459E+04 E0= -.13637459E+04  d E =-.237353E+00
 BRION: g(F)=  0.784E-01 g(S)=  0.000E+00 retain N=  3 mean eig= 5.24
 eig:   7.053  7.053  1.610
 bond charge predicted
       N       E                     dE             d eps       ncg     rms          rms(c)
DAV:   1    -0.136379076040E+04   -0.44854E-01   -0.22380E+01  1376   0.681E+00    0.759E-01
DAV:   2    -0.136390655198E+04   -0.11579E+00   -0.12207E+00  2296   0.265E+00    0.387E-01
DAV:   3    -0.136391387460E+04   -0.73226E-02   -0.97612E-02  2576   0.519E-01    0.313E-01
DAV:   4    -0.136391297751E+04    0.89709E-03   -0.90654E-03  2608   0.228E-01    0.238E-01
DAV:   5    -0.136391165384E+04    0.13237E-02   -0.36202E-03  2416   0.131E-01    0.120E-01
DAV:   6    -0.136391145200E+04    0.20185E-03   -0.37271E-03  2216   0.123E-01    0.615E-02
DAV:   7    -0.136391156344E+04   -0.11144E-03   -0.22357E-03  2416   0.829E-02    0.652E-02
DAV:   8    -0.136391155529E+04    0.81450E-05   -0.41571E-04  2584   0.447E-02    0.504E-02
DAV:   9    -0.136391152052E+04    0.34773E-04   -0.22079E-04  2456   0.278E-02    0.245E-02
DAV:  10    -0.136391152696E+04   -0.64392E-05   -0.13120E-04  2448   0.202E-02    0.148E-02
DAV:  11    -0.136391152760E+04   -0.63823E-06   -0.32207E-05  2152   0.119E-02    0.105E-02
DAV:  12    -0.136391152634E+04    0.12576E-05   -0.23352E-05  2104   0.105E-02    0.966E-03
DAV:  13    -0.136391152565E+04    0.68318E-06   -0.14642E-05  1880   0.770E-03    0.665E-03
DAV:  14    -0.136391152510E+04    0.55846E-06   -0.18457E-06   976   0.496E-03
  18 F= -.13639115E+04 E0= -.13639115E+04  d E =-.165620E+00
 BRION: g(F)=  0.687E-01 g(S)=  0.000E+00 retain N=  3 mean eig= 4.73
 eig:   6.292  6.292  1.604
 bond charge predicted
       N       E                     dE             d eps       ncg     rms          rms(c)
DAV:   1    -0.136395975765E+04   -0.48232E-01   -0.13368E+01  1368   0.525E+00    0.586E-01
DAV:   2    -0.136402816401E+04   -0.68406E-01   -0.71736E-01  2296   0.203E+00    0.299E-01
DAV:   3    -0.136403235722E+04   -0.41932E-02   -0.56181E-02  2584   0.391E-01    0.240E-01
DAV:   4    -0.136403178712E+04    0.57010E-03   -0.51244E-03  2608   0.171E-01    0.181E-01
DAV:   5    -0.136403096251E+04    0.82461E-03   -0.22795E-03  2376   0.103E-01    0.841E-02
DAV:   6    -0.136403092263E+04    0.39879E-04   -0.21665E-03  2280   0.900E-02    0.479E-02
DAV:   7    -0.136403096298E+04   -0.40357E-04   -0.10539E-03  2424   0.584E-02    0.452E-02
DAV:   8    -0.136403095600E+04    0.69797E-05   -0.24701E-04  2576   0.326E-02    0.295E-02
DAV:   9    -0.136403094550E+04    0.10504E-04   -0.10464E-04  2496   0.192E-02    0.151E-02
DAV:  10    -0.136403094813E+04   -0.26275E-05   -0.42115E-05  2528   0.124E-02    0.101E-02
DAV:  11    -0.136403094801E+04    0.11642E-06   -0.10799E-05  1624   0.754E-03    0.682E-03
DAV:  12    -0.136403094772E+04    0.28760E-06   -0.84136E-06  1576   0.719E-03
  19 F= -.13640309E+04 E0= -.13640309E+04  d E =-.119423E+00
 BRION: g(F)=  0.620E-01 g(S)=  0.000E+00 retain N=  3 mean eig= 4.59
 eig:   6.117  6.117  1.529
 bond charge predicted
       N       E                     dE             d eps       ncg     rms          rms(c)
DAV:   1    -0.136400385620E+04    0.27092E-01   -0.41452E+01  1376   0.923E+00    0.102E+00
DAV:   2    -0.136421596528E+04   -0.21211E+00   -0.22263E+00  2296   0.361E+00    0.522E-01
DAV:   3    -0.136422918975E+04   -0.13224E-01   -0.17514E-01  2576   0.690E-01    0.420E-01
DAV:   4    -0.136422763905E+04    0.15507E-02   -0.15772E-02  2608   0.298E-01    0.322E-01
DAV:   5    -0.136422516324E+04    0.24758E-02   -0.66691E-03  2384   0.173E-01    0.158E-01
DAV:   6    -0.136422491649E+04    0.24675E-03   -0.66307E-03  2232   0.156E-01    0.825E-02
DAV:   7    -0.136422506905E+04   -0.15256E-03   -0.35577E-03  2408   0.106E-01    0.827E-02
DAV:   8    -0.136422504784E+04    0.21217E-04   -0.76630E-04  2576   0.594E-02    0.608E-02
DAV:   9    -0.136422500028E+04    0.47555E-04   -0.36934E-04  2472   0.353E-02    0.294E-02
DAV:  10    -0.136422501044E+04   -0.10163E-04   -0.17926E-04  2480   0.240E-02    0.181E-02
DAV:  11    -0.136422501212E+04   -0.16726E-05   -0.39499E-05  2160   0.134E-02    0.141E-02
DAV:  12    -0.136422501046E+04    0.16537E-05   -0.40337E-05  2184   0.128E-02    0.129E-02
DAV:  13    -0.136422500902E+04    0.14436E-05   -0.20860E-05  2096   0.903E-03    0.854E-03
DAV:  14    -0.136422500835E+04    0.67057E-06   -0.47293E-06  1320   0.549E-03
  20 F= -.13642250E+04 E0= -.13642250E+04  d E =-.194061E+00
 BRION: g(F)=  0.540E-01 g(S)=  0.000E+00 retain N=  3 mean eig= 5.83
 eig:   7.955  7.955  1.567
