 running on  160 total cores
 distrk:  each k-point on  160 cores,    1 groups
 distr:  one band on   20 cores,    8 groups
 using from now: INCAR     
 vasp.5.4.4.18Apr17-6-g9f103f2a35 (build May 01 2020 14:22:42) gamma-only       
  
 POSCAR found type information on POSCAR  O  La Zr Li Al
 POSCAR found :  5 types and     188 ions
 scaLAPACK will be used
 LDA part: xc-table for Pade appr. of Perdew
 POSCAR, INCAR and KPOINTS ok, starting setup
 FFT: planning ...
 WAVECAR not read
 WARNING: random wavefunctions but no delay for mixing, default for NELMDL
 entering main loop
       N       E                     dE             d eps       ncg     rms          rms(c)
DAV:   1     0.253530830719E+05    0.25353E+05   -0.42001E+05  1616   0.253E+03
DAV:   2     0.941405396239E+04   -0.15939E+05   -0.14686E+05  1424   0.708E+02
DAV:   3     0.270829704346E+04   -0.67058E+04   -0.60975E+04  1504   0.358E+02
DAV:   4    -0.339395649774E+03   -0.30477E+04   -0.28434E+04  2024   0.221E+02
DAV:   5    -0.137879801903E+04   -0.10394E+04   -0.99264E+03  2544   0.141E+02    0.116E+02
DAV:   6    -0.128925311260E+04    0.89545E+02   -0.15617E+03  2440   0.664E+01    0.504E+01
DAV:   7    -0.131176620199E+04   -0.22513E+02   -0.41560E+02  2560   0.347E+01    0.267E+01
DAV:   8    -0.131734972718E+04   -0.55835E+01   -0.26691E+02  2520   0.280E+01    0.250E+01
DAV:   9    -0.131251260937E+04    0.48371E+01   -0.41136E+01  2528   0.142E+01    0.935E+00
DAV:  10    -0.131262900948E+04   -0.11640E+00   -0.16913E+01  2592   0.743E+00    0.667E+00
DAV:  11    -0.131292594029E+04   -0.29693E+00   -0.48550E+00  2616   0.396E+00    0.461E+00
DAV:  12    -0.131294667672E+04   -0.20736E-01   -0.21987E+00  2624   0.294E+00    0.378E+00
DAV:  13    -0.131288427383E+04    0.62403E-01   -0.81789E-01  2536   0.182E+00    0.165E+00
DAV:  14    -0.131288216647E+04    0.21074E-02   -0.22189E-01  2624   0.946E-01    0.121E+00
DAV:  15    -0.131288013776E+04    0.20287E-02   -0.69283E-02  2592   0.571E-01    0.971E-01
DAV:  16    -0.131287592686E+04    0.42109E-02   -0.36447E-02  2576   0.339E-01    0.435E-01
DAV:  17    -0.131287603088E+04   -0.10401E-03   -0.10320E-02  2552   0.217E-01    0.248E-01
DAV:  18    -0.131287609460E+04   -0.63722E-04   -0.30068E-03  2608   0.102E-01    0.811E-02
DAV:  19    -0.131287615673E+04   -0.62133E-04   -0.17133E-03  2600   0.824E-02    0.803E-02
DAV:  20    -0.131287616821E+04   -0.11480E-04   -0.58410E-04  2464   0.437E-02    0.310E-02
DAV:  21    -0.131287617790E+04   -0.96936E-05   -0.19378E-04  2600   0.281E-02    0.280E-02
DAV:  22    -0.131287618669E+04   -0.87865E-05   -0.82076E-05  2568   0.155E-02    0.102E-02
DAV:  23    -0.131287619014E+04   -0.34479E-05   -0.18509E-05  1608   0.975E-03    0.859E-03
DAV:  24    -0.131287619025E+04   -0.11579E-06   -0.12342E-05  1608   0.635E-03    0.425E-03
DAV:  25    -0.131287619036E+04   -0.10281E-06   -0.27553E-06  1024   0.496E-03
   1 F= -.13128762E+04 E0= -.13128609E+04  d E =-.131288E+04
 BRION: g(F)=  0.775E+02 g(S)=  0.000E+00
 bond charge predicted
       N       E                     dE             d eps       ncg     rms          rms(c)
DAV:   1    -0.126947162656E+04    0.43405E+02   -0.91264E+03  1784   0.147E+02    0.330E+01
DAV:   2    -0.134765165899E+04   -0.78180E+02   -0.89231E+02  2592   0.698E+01    0.171E+01
DAV:   3    -0.134511420761E+04    0.25375E+01   -0.49735E+01  2616   0.175E+01    0.116E+01
DAV:   4    -0.134258690790E+04    0.25273E+01   -0.19197E+01  2416   0.864E+00    0.536E+00
DAV:   5    -0.134245385444E+04    0.13305E+00   -0.48971E+00  2600   0.478E+00    0.361E+00
DAV:   6    -0.134237792697E+04    0.75927E-01   -0.37865E+00  2552   0.342E+00    0.215E+00
DAV:   7    -0.134235566365E+04    0.22263E-01   -0.68099E-01  2520   0.197E+00    0.154E+00
DAV:   8    -0.134234639124E+04    0.92724E-02   -0.57306E-01  2600   0.123E+00    0.702E-01
DAV:   9    -0.134234786443E+04   -0.14732E-02   -0.71735E-02  2544   0.620E-01    0.489E-01
DAV:  10    -0.134234657063E+04    0.12938E-02   -0.27286E-02  2624   0.328E-01    0.238E-01
DAV:  11    -0.134234730547E+04   -0.73484E-03   -0.11193E-02  2624   0.204E-01    0.122E-01
DAV:  12    -0.134234753648E+04   -0.23101E-03   -0.27343E-03  2592   0.102E-01    0.711E-02
DAV:  13    -0.134234749374E+04    0.42737E-04   -0.87612E-04  2624   0.690E-02    0.256E-02
DAV:  14    -0.134234752275E+04   -0.29005E-04   -0.29872E-04  2536   0.344E-02    0.165E-02
DAV:  15    -0.134234753115E+04   -0.84001E-05   -0.93268E-05  2608   0.192E-02    0.854E-03
DAV:  16    -0.134234753320E+04   -0.20492E-05   -0.24370E-05  2080   0.103E-02    0.596E-03
DAV:  17    -0.134234753401E+04   -0.80868E-06   -0.99046E-06  1752   0.746E-03
   2 F= -.13423475E+04 E0= -.13423475E+04  d E =-.294713E+02
 BRION: g(F)=  0.383E+02 g(S)=  0.000E+00 retain N=  1 mean eig= 0.62
 eig:   0.623
 bond charge predicted
       N       E                     dE             d eps       ncg     rms          rms(c)
DAV:   1    -0.132351453359E+04    0.18833E+02   -0.33188E+03  1432   0.800E+01    0.160E+01
DAV:   2    -0.135059709858E+04   -0.27083E+02   -0.31655E+02  2496   0.366E+01    0.171E+01
DAV:   3    -0.135124128792E+04   -0.64419E+00   -0.21428E+01  2592   0.106E+01    0.138E+01
DAV:   4    -0.135026657444E+04    0.97471E+00   -0.78943E+00  2496   0.503E+00    0.870E+00
DAV:   5    -0.135011382365E+04    0.15275E+00   -0.38661E+00  2232   0.391E+00    0.543E+00
DAV:   6    -0.134971193141E+04    0.40189E+00   -0.33933E+00  2456   0.349E+00    0.221E+00
DAV:   7    -0.134973800625E+04   -0.26075E-01   -0.10792E+00  2472   0.191E+00    0.116E+00
DAV:   8    -0.134973294613E+04    0.50601E-02   -0.15904E-01  2600   0.828E-01    0.729E-01
DAV:   9    -0.134973522458E+04   -0.22785E-02   -0.56638E-02  2584   0.433E-01    0.642E-01
DAV:  10    -0.134973069807E+04    0.45265E-02   -0.28216E-02  2552   0.312E-01    0.285E-01
DAV:  11    -0.134973133750E+04   -0.63943E-03   -0.18811E-02  2520   0.231E-01    0.146E-01
DAV:  12    -0.134973128051E+04    0.56984E-04   -0.24228E-03  2608   0.105E-01    0.963E-02
DAV:  13    -0.134973123171E+04    0.48807E-04   -0.20479E-03  2360   0.731E-02    0.384E-02
DAV:  14    -0.134973125019E+04   -0.18482E-04   -0.44507E-04  2416   0.465E-02    0.207E-02
DAV:  15    -0.134973127009E+04   -0.19901E-04   -0.25981E-04  2472   0.254E-02    0.278E-02
DAV:  16    -0.134973126104E+04    0.90482E-05   -0.55239E-05  2504   0.154E-02    0.159E-02
DAV:  17    -0.134973126074E+04    0.29978E-06   -0.52092E-05  2264   0.111E-02    0.591E-03
DAV:  18    -0.134973126128E+04   -0.54117E-06   -0.48270E-06  1192   0.621E-03
   3 F= -.13497313E+04 E0= -.13497313E+04  d E =-.738373E+01
 BRION: g(F)=  0.784E+01 g(S)=  0.000E+00 retain N=  2 mean eig= 1.04
 eig:   0.449  1.636
 bond charge predicted
       N       E                     dE             d eps       ncg     rms          rms(c)
DAV:   1    -0.135170358990E+04   -0.19723E+01   -0.39813E+02  1408   0.287E+01    0.542E+00
DAV:   2    -0.135376207715E+04   -0.20585E+01   -0.23891E+01  2312   0.113E+01    0.248E+00
DAV:   3    -0.135382349985E+04   -0.61423E-01   -0.20169E+00  2552   0.275E+00    0.212E+00
DAV:   4    -0.135375742151E+04    0.66078E-01   -0.46917E-01  2544   0.143E+00    0.113E+00
DAV:   5    -0.135373874476E+04    0.18677E-01   -0.18536E-01  2296   0.898E-01    0.705E-01
DAV:   6    -0.135373731404E+04    0.14307E-02   -0.10592E-01  2576   0.656E-01    0.504E-01
DAV:   7    -0.135373673630E+04    0.57774E-03   -0.55818E-02  2400   0.415E-01    0.326E-01
DAV:   8    -0.135373657843E+04    0.15787E-03   -0.13970E-02  2536   0.222E-01    0.170E-01
DAV:   9    -0.135373643342E+04    0.14501E-03   -0.36685E-03  2616   0.123E-01    0.104E-01
DAV:  10    -0.135373659464E+04   -0.16122E-03   -0.23255E-03  2416   0.886E-02    0.113E-01
DAV:  11    -0.135373643299E+04    0.16165E-03   -0.13966E-03  2440   0.703E-02    0.381E-02
DAV:  12    -0.135373645656E+04   -0.23573E-04   -0.45589E-04  2464   0.428E-02    0.302E-02
DAV:  13    -0.135373645423E+04    0.23298E-05   -0.12998E-04  2600   0.217E-02    0.155E-02
DAV:  14    -0.135373645453E+04   -0.29456E-06   -0.34025E-05  2488   0.109E-02    0.741E-03
DAV:  15    -0.135373645545E+04   -0.91833E-06   -0.99175E-06  1704   0.668E-03
   4 F= -.13537365E+04 E0= -.13537365E+04  d E =-.400519E+01
 BRION: g(F)=  0.257E+01 g(S)=  0.000E+00 retain N=  3 mean eig= 0.89
 eig:   1.597  0.598  0.477
 bond charge predicted
       N       E                     dE             d eps       ncg     rms          rms(c)
DAV:   1    -0.135475098989E+04   -0.10145E+01   -0.19078E+02  1360   0.199E+01    0.365E+00
DAV:   2    -0.135568145323E+04   -0.93046E+00   -0.10150E+01  2288   0.733E+00    0.172E+00
DAV:   3    -0.135571089647E+04   -0.29443E-01   -0.74905E-01  2592   0.166E+00    0.138E+00
DAV:   4    -0.135568887489E+04    0.22022E-01   -0.19835E-01  2504   0.898E-01    0.667E-01
DAV:   5    -0.135568841006E+04    0.46483E-03   -0.55200E-02  2472   0.492E-01    0.446E-01
DAV:   6    -0.135568741789E+04    0.99217E-03   -0.34091E-02  2568   0.333E-01    0.192E-01
DAV:   7    -0.135568748909E+04   -0.71199E-04   -0.74525E-03  2408   0.177E-01    0.141E-01
DAV:   8    -0.135568751111E+04   -0.22020E-04   -0.24259E-03  2512   0.907E-02    0.797E-02
DAV:   9    -0.135568746568E+04    0.45425E-04   -0.10112E-03  2624   0.629E-02    0.431E-02
DAV:  10    -0.135568749108E+04   -0.25402E-04   -0.39883E-04  2512   0.406E-02    0.421E-02
DAV:  11    -0.135568747542E+04    0.15663E-04   -0.23171E-04  2496   0.273E-02    0.159E-02
DAV:  12    -0.135568747619E+04   -0.76469E-06   -0.57772E-05  2416   0.163E-02    0.710E-03
DAV:  13    -0.135568747785E+04   -0.16602E-05   -0.15470E-05  2032   0.801E-03    0.604E-03
DAV:  14    -0.135568747760E+04    0.24456E-06   -0.18017E-06  1040   0.479E-03
   5 F= -.13556875E+04 E0= -.13556875E+04  d E =-.195102E+01
 BRION: g(F)=  0.162E+01 g(S)=  0.000E+00 retain N=  4 mean eig= 1.49
 eig:   2.288  2.288  0.684  0.684
 bond charge predicted
       N       E                     dE             d eps       ncg     rms          rms(c)
DAV:   1    -0.135654322966E+04   -0.85575E+00   -0.19034E+02  1392   0.195E+01    0.275E+00
DAV:   2    -0.135747829997E+04   -0.93507E+00   -0.98554E+00  2288   0.733E+00    0.138E+00
DAV:   3    -0.135751443465E+04   -0.36135E-01   -0.71842E-01  2616   0.145E+00    0.110E+00
DAV:   4    -0.135749131995E+04    0.23115E-01   -0.12675E-01  2528   0.769E-01    0.542E-01
DAV:   5    -0.135748845318E+04    0.28668E-02   -0.42154E-02  2488   0.448E-01    0.287E-01
DAV:   6    -0.135748914141E+04   -0.68823E-03   -0.21914E-02  2584   0.268E-01    0.162E-01
DAV:   7    -0.135748905871E+04    0.82706E-04   -0.46219E-03  2440   0.147E-01    0.118E-01
DAV:   8    -0.135748908531E+04   -0.26606E-04   -0.20558E-03  2392   0.779E-02    0.572E-02
DAV:   9    -0.135748907170E+04    0.13614E-04   -0.38281E-04  2616   0.458E-02    0.367E-02
DAV:  10    -0.135748908335E+04   -0.11647E-04   -0.33471E-04  2592   0.338E-02    0.294E-02
DAV:  11    -0.135748907887E+04    0.44749E-05   -0.12074E-04  2504   0.228E-02    0.142E-02
DAV:  12    -0.135748908002E+04   -0.11478E-05   -0.48129E-05  2376   0.131E-02    0.918E-03
DAV:  13    -0.135748907989E+04    0.12958E-06   -0.11631E-05  1888   0.778E-03    0.572E-03
DAV:  14    -0.135748907976E+04    0.13143E-06   -0.39081E-06  1224   0.526E-03
   6 F= -.13574891E+04 E0= -.13574891E+04  d E =-.180160E+01
 BRION: g(F)=  0.102E+01 g(S)=  0.000E+00 retain N=  5 mean eig= 1.55
 eig:   2.632  2.632  0.901  0.901  0.698
 bond charge predicted
       N       E                     dE             d eps       ncg     rms          rms(c)
DAV:   1    -0.135811264747E+04   -0.62357E+00   -0.10332E+02  1384   0.145E+01    0.186E+00
DAV:   2    -0.135863523953E+04   -0.52259E+00   -0.55533E+00  2296   0.555E+00    0.934E-01
DAV:   3    -0.135866393451E+04   -0.28695E-01   -0.44396E-01  2608   0.112E+00    0.754E-01
DAV:   4    -0.135865572586E+04    0.82086E-02   -0.52273E-02  2600   0.533E-01    0.473E-01
DAV:   5    -0.135865174675E+04    0.39791E-02   -0.23872E-02  2392   0.301E-01    0.201E-01
DAV:   6    -0.135865229316E+04   -0.54642E-03   -0.10820E-02  2512   0.203E-01    0.157E-01
DAV:   7    -0.135865222783E+04    0.65339E-04   -0.54274E-03  2520   0.141E-01    0.106E-01
DAV:   8    -0.135865223846E+04   -0.10632E-04   -0.21243E-03  2600   0.868E-02    0.675E-02
DAV:   9    -0.135865220762E+04    0.30841E-04   -0.39641E-04  2528   0.428E-02    0.493E-02
DAV:  10    -0.135865220988E+04   -0.22617E-05   -0.37899E-04  2472   0.327E-02    0.297E-02
DAV:  11    -0.135865220558E+04    0.42952E-05   -0.12693E-04  2488   0.243E-02    0.126E-02
DAV:  12    -0.135865220735E+04   -0.17636E-05   -0.41478E-05  2336   0.142E-02    0.113E-02
DAV:  13    -0.135865220654E+04    0.80500E-06   -0.19605E-05  1976   0.829E-03    0.533E-03
DAV:  14    -0.135865220649E+04    0.48167E-07   -0.39996E-06  1232   0.555E-03
   7 F= -.13586522E+04 E0= -.13586522E+04  d E =-.116313E+01
 BRION: g(F)=  0.666E+00 g(S)=  0.000E+00 retain N=  6 mean eig= 2.13
 eig:   4.024  4.024  1.587  1.587  0.769  0.769
 bond charge predicted
       N       E                     dE             d eps       ncg     rms          rms(c)
DAV:   1    -0.135910002306E+04   -0.44782E+00   -0.13856E+02  1376   0.169E+01    0.212E+00
DAV:   2    -0.135980187486E+04   -0.70185E+00   -0.74482E+00  2288   0.648E+00    0.107E+00
DAV:   3    -0.135984154617E+04   -0.39671E-01   -0.58951E-01  2608   0.130E+00    0.867E-01
DAV:   4    -0.135983130465E+04    0.10242E-01   -0.67729E-02  2608   0.610E-01    0.554E-01
DAV:   5    -0.135982553393E+04    0.57707E-02   -0.30812E-02  2400   0.359E-01    0.227E-01
DAV:   6    -0.135982638166E+04   -0.84773E-03   -0.15753E-02  2488   0.244E-01    0.186E-01
DAV:   7    -0.135982622554E+04    0.15612E-03   -0.71793E-03  2472   0.166E-01    0.125E-01
DAV:   8    -0.135982624251E+04   -0.16968E-04   -0.32761E-03  2576   0.105E-01    0.754E-02
DAV:   9    -0.135982621030E+04    0.32211E-04   -0.54135E-04  2536   0.518E-02    0.567E-02
DAV:  10    -0.135982620347E+04    0.68250E-05   -0.42112E-04  2496   0.358E-02    0.309E-02
DAV:  11    -0.135982620365E+04   -0.17583E-06   -0.14228E-04  2504   0.257E-02    0.146E-02
DAV:  12    -0.135982620493E+04   -0.12887E-05   -0.46997E-05  2336   0.157E-02    0.133E-02
DAV:  13    -0.135982620406E+04    0.87562E-06   -0.30693E-05  2128   0.986E-03    0.724E-03
DAV:  14    -0.135982620405E+04    0.82946E-08   -0.90071E-06  1760   0.613E-03
   8 F= -.13598262E+04 E0= -.13598262E+04  d E =-.117400E+01
 BRION: g(F)=  0.457E+00 g(S)=  0.000E+00 retain N=  7 mean eig= 2.63
 eig:   5.412  5.412  2.339  2.339  1.013  1.013  0.880
 bond charge predicted
       N       E                     dE             d eps       ncg     rms          rms(c)
DAV:   1    -0.136009259819E+04   -0.26639E+00   -0.14486E+02  1392   0.171E+01    0.204E+00
DAV:   2    -0.136083379898E+04   -0.74120E+00   -0.78412E+00  2288   0.679E+00    0.103E+00
DAV:   3    -0.136087597673E+04   -0.42178E-01   -0.61569E-01  2600   0.130E+00    0.830E-01
DAV:   4    -0.136086630459E+04    0.96721E-02   -0.62789E-02  2616   0.592E-01    0.556E-01
DAV:   5    -0.136085952839E+04    0.67762E-02   -0.27480E-02  2424   0.333E-01    0.234E-01
DAV:   6    -0.136085992330E+04   -0.39491E-03   -0.16046E-02  2376   0.239E-01    0.160E-01
DAV:   7    -0.136085996528E+04   -0.41985E-04   -0.76573E-03  2448   0.167E-01    0.120E-01
DAV:   8    -0.136085999606E+04   -0.30778E-04   -0.28249E-03  2584   0.996E-02    0.812E-02
DAV:   9    -0.136085994497E+04    0.51090E-04   -0.71588E-04  2576   0.546E-02    0.543E-02
DAV:  10    -0.136085994843E+04   -0.34550E-05   -0.37999E-04  2592   0.351E-02    0.320E-02
DAV:  11    -0.136085995158E+04   -0.31552E-05   -0.13581E-04  2464   0.239E-02    0.189E-02
DAV:  12    -0.136085994887E+04    0.27085E-05   -0.60746E-05  2328   0.172E-02    0.148E-02
DAV:  13    -0.136085994817E+04    0.70105E-06   -0.42565E-05  2288   0.115E-02    0.817E-03
DAV:  14    -0.136085994817E+04   -0.55297E-09   -0.13672E-05  1784   0.698E-03    0.444E-03
DAV:  15    -0.136085994806E+04    0.10853E-06   -0.12420E-06   984   0.430E-03
   9 F= -.13608599E+04 E0= -.13608599E+04  d E =-.103374E+01
 BRION: g(F)=  0.340E+00 g(S)=  0.000E+00 retain N=  8 mean eig= 3.22
 eig:   7.618  7.618  2.536  2.536  1.789  1.789  0.924  0.924
 bond charge predicted
       N       E                     dE             d eps       ncg     rms          rms(c)
DAV:   1    -0.136113635994E+04   -0.27641E+00   -0.65215E+01  1400   0.115E+01    0.138E+00
DAV:   2    -0.136147680158E+04   -0.34044E+00   -0.36071E+00  2304   0.467E+00    0.706E-01
DAV:   3    -0.136149649052E+04   -0.19689E-01   -0.28279E-01  2592   0.870E-01    0.570E-01
DAV:   4    -0.136149201072E+04    0.44798E-02   -0.28994E-02  2600   0.402E-01    0.382E-01
DAV:   5    -0.136148891020E+04    0.31005E-02   -0.13186E-02  2416   0.228E-01    0.154E-01
DAV:   6    -0.136148919234E+04   -0.28214E-03   -0.72142E-03  2424   0.158E-01    0.111E-01
DAV:   7    -0.136148918929E+04    0.30558E-05   -0.33991E-03  2480   0.111E-01    0.808E-02
DAV:   8    -0.136148919988E+04   -0.10599E-04   -0.13621E-03  2600   0.692E-02    0.544E-02
DAV:   9    -0.136148918016E+04    0.19721E-04   -0.28675E-04  2544   0.358E-02    0.384E-02
DAV:  10    -0.136148917910E+04    0.10679E-05   -0.14611E-04  2568   0.217E-02    0.212E-02
DAV:  11    -0.136148918113E+04   -0.20353E-05   -0.50103E-05  2464   0.149E-02    0.134E-02
DAV:  12    -0.136148917908E+04    0.20465E-05   -0.24394E-05  2264   0.112E-02    0.837E-03
DAV:  13    -0.136148917938E+04   -0.29300E-06   -0.16856E-05  2064   0.742E-03    0.458E-03
DAV:  14    -0.136148917924E+04    0.14165E-06   -0.15102E-06   992   0.436E-03
  10 F= -.13614892E+04 E0= -.13614892E+04  d E =-.629231E+00
 BRION: g(F)=  0.281E+00 g(S)=  0.000E+00 retain N=  6 mean eig= 3.52
 eig:   7.016  7.016  2.338  2.338  1.191  1.191
 bond charge predicted
       N       E                     dE             d eps       ncg     rms          rms(c)
DAV:   1    -0.136171167004E+04   -0.22249E+00   -0.63116E+01  1392   0.112E+01    0.132E+00
DAV:   2    -0.136203474221E+04   -0.32307E+00   -0.34047E+00  2304   0.449E+00    0.680E-01
DAV:   3    -0.136205282809E+04   -0.18086E-01   -0.26385E-01  2600   0.835E-01    0.544E-01
DAV:   4    -0.136204806736E+04    0.47607E-02   -0.26285E-02  2592   0.378E-01    0.361E-01
DAV:   5    -0.136204486194E+04    0.32054E-02   -0.12062E-02  2376   0.222E-01    0.137E-01
DAV:   6    -0.136204518219E+04   -0.32025E-03   -0.69227E-03  2448   0.152E-01    0.993E-02
DAV:   7    -0.136204519418E+04   -0.11987E-04   -0.25383E-03  2464   0.959E-02    0.715E-02
DAV:   8    -0.136204519522E+04   -0.10455E-05   -0.93329E-04  2608   0.578E-02    0.422E-02
DAV:   9    -0.136204518568E+04    0.95435E-05   -0.22001E-04  2552   0.313E-02    0.304E-02
DAV:  10    -0.136204518808E+04   -0.24054E-05   -0.12315E-04  2552   0.208E-02    0.187E-02
DAV:  11    -0.136204518714E+04    0.94167E-06   -0.47141E-05  2344   0.147E-02    0.902E-03
DAV:  12    -0.136204518767E+04   -0.52206E-06   -0.18317E-05  2128   0.965E-03    0.781E-03
DAV:  13    -0.136204518722E+04    0.44631E-06   -0.79866E-06  1568   0.589E-03
  11 F= -.13620452E+04 E0= -.13620452E+04  d E =-.556008E+00
 BRION: g(F)=  0.229E+00 g(S)=  0.000E+00 retain N=  5 mean eig= 4.06
 eig:   7.308  7.308  1.197  2.256  2.256
 bond charge predicted
       N       E                     dE             d eps       ncg     rms          rms(c)
DAV:   1    -0.136217933645E+04   -0.13415E+00   -0.85284E+01  1376   0.131E+01    0.153E+00
DAV:   2    -0.136261912691E+04   -0.43979E+00   -0.46455E+00  2304   0.530E+00    0.789E-01
DAV:   3    -0.136264393273E+04   -0.24806E-01   -0.36128E-01  2608   0.985E-01    0.632E-01
DAV:   4    -0.136263788973E+04    0.60430E-02   -0.35144E-02  2608   0.440E-01    0.430E-01
DAV:   5    -0.136263311617E+04    0.47736E-02   -0.16338E-02  2376   0.255E-01    0.172E-01
DAV:   6    -0.136263339575E+04   -0.27959E-03   -0.10205E-02  2392   0.186E-01    0.121E-01
DAV:   7    -0.136263342701E+04   -0.31261E-04   -0.43397E-03  2432   0.124E-01    0.896E-02
DAV:   8    -0.136263343042E+04   -0.34037E-05   -0.15456E-03  2608   0.744E-02    0.570E-02
DAV:   9    -0.136263340965E+04    0.20765E-04   -0.37779E-04  2568   0.406E-02    0.393E-02
DAV:  10    -0.136263341260E+04   -0.29438E-05   -0.18985E-04  2592   0.251E-02    0.238E-02
DAV:  11    -0.136263341344E+04   -0.84705E-06   -0.75809E-05  2456   0.181E-02    0.141E-02
DAV:  12    -0.136263341233E+04    0.11152E-05   -0.33657E-05  2328   0.129E-02    0.112E-02
DAV:  13    -0.136263341178E+04    0.54312E-06   -0.21556E-05  2128   0.825E-03    0.586E-03
DAV:  14    -0.136263341171E+04    0.76863E-07   -0.69834E-06  1592   0.554E-03
  12 F= -.13626334E+04 E0= -.13626334E+04  d E =-.588224E+00
 BRION: g(F)=  0.186E+00 g(S)=  0.000E+00 retain N=  3 mean eig= 4.30
 eig:   5.752  5.752  1.407
 bond charge predicted
       N       E                     dE             d eps       ncg     rms          rms(c)
DAV:   1    -0.136279180987E+04   -0.15840E+00   -0.44394E+01  1368   0.945E+00    0.112E+00
DAV:   2    -0.136302044273E+04   -0.22863E+00   -0.24158E+00  2320   0.378E+00    0.575E-01
DAV:   3    -0.136303266891E+04   -0.12226E-01   -0.18252E-01  2584   0.724E-01    0.458E-01
DAV:   4    -0.136302915230E+04    0.35166E-02   -0.19595E-02  2568   0.320E-01    0.294E-01
DAV:   5    -0.136302716241E+04    0.19899E-02   -0.93165E-03  2360   0.188E-01    0.112E-01
DAV:   6    -0.136302742211E+04   -0.25971E-03   -0.43122E-03  2472   0.119E-01    0.858E-02
DAV:   7    -0.136302740547E+04    0.16644E-04   -0.16893E-03  2480   0.790E-02    0.549E-02
DAV:   8    -0.136302741726E+04   -0.11791E-04   -0.63502E-04  2616   0.479E-02    0.355E-02
DAV:   9    -0.136302741193E+04    0.53308E-05   -0.12630E-04  2520   0.247E-02    0.267E-02
DAV:  10    -0.136302741260E+04   -0.66841E-06   -0.90265E-05  2552   0.167E-02    0.150E-02
DAV:  11    -0.136302741212E+04    0.47193E-06   -0.35514E-05  2304   0.125E-02    0.697E-03
DAV:  12    -0.136302741226E+04   -0.13535E-06   -0.94418E-06  1776   0.788E-03
  13 F= -.13630274E+04 E0= -.13630274E+04  d E =-.394001E+00
 BRION: g(F)=  0.159E+00 g(S)=  0.000E+00 retain N=  3 mean eig= 4.16
 eig:   5.500  5.500  1.471
 bond charge predicted
       N       E                     dE             d eps       ncg     rms          rms(c)
DAV:   1    -0.136317100555E+04   -0.14359E+00   -0.32098E+01  1384   0.803E+00    0.928E-01
DAV:   2    -0.136333369278E+04   -0.16269E+00   -0.17139E+00  2312   0.322E+00    0.476E-01
DAV:   3    -0.136334270489E+04   -0.90121E-02   -0.13244E-01  2616   0.602E-01    0.378E-01
DAV:   4    -0.136334021692E+04    0.24880E-02   -0.12625E-02  2616   0.265E-01    0.253E-01
DAV:   5    -0.136333843407E+04    0.17829E-02   -0.68091E-03  2280   0.162E-01    0.912E-02
DAV:   6    -0.136333866769E+04   -0.23362E-03   -0.37952E-03  2448   0.109E-01    0.801E-02
DAV:   7    -0.136333864495E+04    0.22737E-04   -0.13473E-03  2440   0.686E-02    0.528E-02
DAV:   8    -0.136333863955E+04    0.54078E-05   -0.47722E-04  2560   0.417E-02    0.299E-02
DAV:   9    -0.136333863594E+04    0.36018E-05   -0.90820E-05  2480   0.212E-02    0.221E-02
DAV:  10    -0.136333863690E+04   -0.95331E-06   -0.62442E-05  2472   0.144E-02    0.122E-02
DAV:  11    -0.136333863648E+04    0.42201E-06   -0.20212E-05  2232   0.104E-02    0.546E-03
DAV:  12    -0.136333863717E+04   -0.68953E-06   -0.95542E-06  1760   0.658E-03
  14 F= -.13633386E+04 E0= -.13633386E+04  d E =-.311225E+00
 BRION: g(F)=  0.142E+00 g(S)=  0.000E+00 retain N=  3 mean eig= 4.93
 eig:   6.511  6.511  1.757
 bond charge predicted
       N       E                     dE             d eps       ncg     rms          rms(c)
DAV:   1    -0.136344629042E+04   -0.10765E+00   -0.48452E+01  1376   0.982E+00    0.111E+00
DAV:   2    -0.136369251821E+04   -0.24623E+00   -0.25862E+00  2296   0.392E+00    0.575E-01
DAV:   3    -0.136370690327E+04   -0.14385E-01   -0.20266E-01  2608   0.718E-01    0.464E-01
DAV:   4    -0.136370386198E+04    0.30413E-02   -0.17454E-02  2608   0.313E-01    0.330E-01
DAV:   5    -0.136370055992E+04    0.33021E-02   -0.93947E-03  2184   0.191E-01    0.123E-01
DAV:   6    -0.136370083845E+04   -0.27853E-03   -0.67103E-03  2360   0.138E-01    0.980E-02
DAV:   7    -0.136370082214E+04    0.16315E-04   -0.21810E-03  2408   0.829E-02    0.689E-02
DAV:   8    -0.136370080974E+04    0.12403E-04   -0.83604E-04  2600   0.539E-02    0.399E-02
DAV:   9    -0.136370079931E+04    0.10427E-04   -0.18172E-04  2400   0.287E-02    0.283E-02
DAV:  10    -0.136370080023E+04   -0.91903E-06   -0.79545E-05  2464   0.169E-02    0.141E-02
DAV:  11    -0.136370080101E+04   -0.77832E-06   -0.22678E-05  2280   0.109E-02    0.696E-03
DAV:  12    -0.136370080152E+04   -0.51901E-06   -0.11925E-05  1864   0.712E-03    0.613E-03
DAV:  13    -0.136370080109E+04    0.43663E-06   -0.18909E-06   992   0.461E-03
  15 F= -.13637008E+04 E0= -.13637008E+04  d E =-.362164E+00
 BRION: g(F)=  0.129E+00 g(S)=  0.000E+00 retain N=  3 mean eig= 4.97
 eig:   6.536  6.536  1.848
 bond charge predicted
       N       E                     dE             d eps       ncg     rms          rms(c)
DAV:   1    -0.136379241819E+04   -0.91617E-01   -0.43676E+01  1384   0.931E+00    0.108E+00
DAV:   2    -0.136401451457E+04   -0.22210E+00   -0.23292E+00  2296   0.374E+00    0.553E-01
DAV:   3    -0.136402720826E+04   -0.12694E-01   -0.18229E-01  2616   0.679E-01    0.442E-01
DAV:   4    -0.136402393683E+04    0.32714E-02   -0.16518E-02  2608   0.302E-01    0.302E-01
DAV:   5    -0.136402128045E+04    0.26564E-02   -0.89461E-03  2216   0.185E-01    0.105E-01
DAV:   6    -0.136402161677E+04   -0.33632E-03   -0.53367E-03  2456   0.124E-01    0.914E-02
DAV:   7    -0.136402158853E+04    0.28246E-04   -0.15896E-03  2480   0.743E-02    0.617E-02
DAV:   8    -0.136402157031E+04    0.18214E-04   -0.60555E-04  2600   0.467E-02    0.339E-02
DAV:   9    -0.136402156651E+04    0.38040E-05   -0.12072E-04  2440   0.238E-02    0.240E-02
DAV:  10    -0.136402156763E+04   -0.11268E-05   -0.60203E-05  2512   0.152E-02    0.114E-02
DAV:  11    -0.136402156792E+04   -0.28414E-06   -0.16037E-05  2136   0.938E-03    0.521E-03
DAV:  12    -0.136402156854E+04   -0.62007E-06   -0.85196E-06  1696   0.601E-03
  16 F= -.13640216E+04 E0= -.13640216E+04  d E =-.320767E+00
 BRION: g(F)=  0.116E+00 g(S)=  0.000E+00 retain N=  3 mean eig= 5.39
 eig:   7.165  7.165  1.837
 bond charge predicted
       N       E                     dE             d eps       ncg     rms          rms(c)
DAV:   1    -0.136411028840E+04   -0.88720E-01   -0.34498E+01  1384   0.827E+00    0.941E-01
DAV:   2    -0.136428664241E+04   -0.17635E+00   -0.18524E+00  2304   0.334E+00    0.486E-01
DAV:   3    -0.136429690915E+04   -0.10267E-01   -0.14542E-01  2608   0.605E-01    0.394E-01
DAV:   4    -0.136429469859E+04    0.22106E-02   -0.12302E-02  2608   0.264E-01    0.285E-01
DAV:   5    -0.136429213843E+04    0.25602E-02   -0.72780E-03  2200   0.167E-01    0.106E-01
DAV:   6    -0.136429235605E+04   -0.21762E-03   -0.52912E-03  2320   0.123E-01    0.900E-02
DAV:   7    -0.136429233896E+04    0.17092E-04   -0.17480E-03  2408   0.740E-02    0.647E-02
DAV:   8    -0.136429231978E+04    0.19178E-04   -0.68465E-04  2576   0.485E-02    0.358E-02
DAV:   9    -0.136429230924E+04    0.10544E-04   -0.15167E-04  2256   0.259E-02    0.248E-02
DAV:  10    -0.136429231016E+04   -0.91975E-06   -0.64173E-05  2336   0.153E-02    0.127E-02
DAV:  11    -0.136429231009E+04    0.62108E-07   -0.18188E-05  2112   0.951E-03    0.575E-03
DAV:  12    -0.136429231067E+04   -0.58020E-06   -0.10282E-05  1752   0.636E-03    0.492E-03
DAV:  13    -0.136429231043E+04    0.23936E-06   -0.13673E-06   984   0.417E-03
  17 F= -.13642923E+04 E0= -.13642923E+04  d E =-.270742E+00
 BRION: g(F)=  0.103E+00 g(S)=  0.000E+00 retain N=  2 mean eig= 3.74
 eig:   3.741  3.741
 bond charge predicted
       N       E                     dE             d eps       ncg     rms          rms(c)
DAV:   1    -0.136436746169E+04   -0.75151E-01   -0.34930E+01  1384   0.831E+00    0.962E-01
DAV:   2    -0.136454717113E+04   -0.17971E+00   -0.18848E+00  2312   0.336E+00    0.494E-01
DAV:   3    -0.136455704783E+04   -0.98767E-02   -0.14369E-01  2608   0.611E-01    0.400E-01
DAV:   4    -0.136455462663E+04    0.24212E-02   -0.12993E-02  2608   0.268E-01    0.283E-01
DAV:   5    -0.136455207326E+04    0.25534E-02   -0.75331E-03  2216   0.173E-01    0.102E-01
DAV:   6    -0.136455234605E+04   -0.27278E-03   -0.53743E-03  2368   0.125E-01    0.929E-02
DAV:   7    -0.136455231540E+04    0.30641E-04   -0.15809E-03  2416   0.725E-02    0.678E-02
DAV:   8    -0.136455228480E+04    0.30609E-04   -0.67771E-04  2536   0.475E-02    0.345E-02
DAV:   9    -0.136455227617E+04    0.86299E-05   -0.14794E-04  2224   0.254E-02    0.237E-02
DAV:  10    -0.136455227758E+04   -0.14119E-05   -0.56640E-05  2360   0.148E-02    0.130E-02
DAV:  11    -0.136455227703E+04    0.54410E-06   -0.18876E-05  2144   0.942E-03    0.534E-03
DAV:  12    -0.136455227767E+04   -0.63224E-06   -0.95567E-06  1808   0.631E-03
  18 F= -.13645523E+04 E0= -.13645523E+04  d E =-.259967E+00
 BRION: g(F)=  0.926E-01 g(S)=  0.000E+00 retain N=  3 mean eig= 5.88
 eig:   7.935  7.935  1.766
 bond charge predicted
       N       E                     dE             d eps       ncg     rms          rms(c)
DAV:   1    -0.136452546786E+04    0.26809E-01   -0.64457E+01  1384   0.113E+01    0.130E+00
DAV:   2    -0.136486010097E+04   -0.33463E+00   -0.35178E+00  2320   0.460E+00    0.683E-01
DAV:   3    -0.136487766239E+04   -0.17561E-01   -0.26624E-01  2616   0.841E-01    0.554E-01
DAV:   4    -0.136487294343E+04    0.47190E-02   -0.25119E-02  2608   0.369E-01    0.390E-01
DAV:   5    -0.136486814814E+04    0.47953E-02   -0.12975E-02  2232   0.227E-01    0.157E-01
DAV:   6    -0.136486833691E+04   -0.18877E-03   -0.10104E-02  2272   0.174E-01    0.119E-01
DAV:   7    -0.136486834789E+04   -0.10973E-04   -0.40890E-03  2376   0.115E-01    0.938E-02
DAV:   8    -0.136486830910E+04    0.38786E-04   -0.14282E-03  2552   0.712E-02    0.556E-02
DAV:   9    -0.136486828564E+04    0.23461E-04   -0.38682E-04  2464   0.389E-02    0.354E-02
DAV:  10    -0.136486828896E+04   -0.33161E-05   -0.14172E-04  2512   0.225E-02    0.210E-02
DAV:  11    -0.136486829054E+04   -0.15854E-05   -0.46119E-05  2376   0.149E-02    0.137E-02
DAV:  12    -0.136486828937E+04    0.11668E-05   -0.31277E-05  2320   0.113E-02    0.108E-02
DAV:  13    -0.136486828874E+04    0.63298E-06   -0.15442E-05  2032   0.740E-03    0.608E-03
DAV:  14    -0.136486828834E+04    0.40210E-06   -0.35278E-06  1192   0.497E-03
  19 F= -.13648683E+04 E0= -.13648683E+04  d E =-.316011E+00
 BRION: g(F)=  0.780E-01 g(S)=  0.000E+00 retain N=  2 mean eig= 4.70
 eig:   4.696  4.696
 bond charge predicted
       N       E                     dE             d eps       ncg     rms          rms(c)
DAV:   1    -0.136490947333E+04   -0.41185E-01   -0.26277E+01  1400   0.725E+00    0.827E-01
DAV:   2    -0.136504469700E+04   -0.13522E+00   -0.14229E+00  2312   0.295E+00    0.437E-01
DAV:   3    -0.136505201621E+04   -0.73192E-02   -0.10966E-01  2608   0.532E-01    0.356E-01
DAV:   4    -0.136505024934E+04    0.17669E-02   -0.99298E-03  2608   0.235E-01    0.258E-01
DAV:   5    -0.136504815561E+04    0.20937E-02   -0.53201E-03  2288   0.151E-01    0.110E-01
DAV:   6    -0.136504815457E+04    0.10402E-05   -0.48054E-03  2232   0.129E-01    0.789E-02
DAV:   7    -0.136504818494E+04   -0.30375E-04   -0.21744E-03  2376   0.839E-02    0.684E-02
DAV:   8    -0.136504816457E+04    0.20373E-04   -0.65183E-04  2552   0.485E-02    0.412E-02
DAV:   9    -0.136504814491E+04    0.19654E-04   -0.24139E-04  2488   0.289E-02    0.227E-02
DAV:  10    -0.136504814905E+04   -0.41403E-05   -0.70477E-05  2544   0.169E-02    0.164E-02
DAV:  11    -0.136504814907E+04   -0.19645E-07   -0.23255E-05  2168   0.103E-02    0.115E-02
DAV:  12    -0.136504814852E+04    0.55024E-06   -0.20909E-05  2040   0.916E-03    0.102E-02
DAV:  13    -0.136504814764E+04    0.87972E-06   -0.12383E-05  1832   0.686E-03    0.575E-03
DAV:  14    -0.136504814736E+04    0.28599E-06   -0.40353E-06  1272   0.473E-03
  20 F= -.13650481E+04 E0= -.13650481E+04  d E =-.179859E+00
 BRION: g(F)=  0.687E-01 g(S)=  0.000E+00 retain N=  3 mean eig= 5.14
 eig:   6.797  6.797  1.830
