 running on  160 total cores
 distrk:  each k-point on  160 cores,    1 groups
 distr:  one band on   20 cores,    8 groups
 using from now: INCAR     
 vasp.5.4.4.18Apr17-6-g9f103f2a35 (build May 01 2020 14:22:42) gamma-only       
  
 POSCAR found type information on POSCAR  O  La Zr Li Al
 POSCAR found :  5 types and     188 ions
 scaLAPACK will be used
 LDA part: xc-table for Pade appr. of Perdew
 POSCAR, INCAR and KPOINTS ok, starting setup
 FFT: planning ...
 WAVECAR not read
 WARNING: random wavefunctions but no delay for mixing, default for NELMDL
 entering main loop
       N       E                     dE             d eps       ncg     rms          rms(c)
DAV:   1     0.252215401025E+05    0.25222E+05   -0.42237E+05  1608   0.253E+03
DAV:   2     0.941377546742E+04   -0.15808E+05   -0.14571E+05  1424   0.707E+02
DAV:   3     0.266742726343E+04   -0.67463E+04   -0.61595E+04  1504   0.356E+02
DAV:   4    -0.382893294785E+03   -0.30503E+04   -0.28431E+04  2064   0.222E+02
DAV:   5    -0.142391134959E+04   -0.10410E+04   -0.10104E+04  2528   0.142E+02    0.117E+02
DAV:   6    -0.130047867684E+04    0.12343E+03   -0.13849E+03  2424   0.654E+01    0.502E+01
DAV:   7    -0.132403128586E+04   -0.23553E+02   -0.37578E+02  2576   0.336E+01    0.243E+01
DAV:   8    -0.133162801429E+04   -0.75967E+01   -0.22429E+02  2544   0.251E+01    0.240E+01
DAV:   9    -0.132645602709E+04    0.51720E+01   -0.46784E+01  2512   0.143E+01    0.790E+00
DAV:  10    -0.132728817491E+04   -0.83215E+00   -0.16465E+01  2624   0.788E+00    0.723E+00
DAV:  11    -0.132758917591E+04   -0.30100E+00   -0.52322E+00  2624   0.413E+00    0.429E+00
DAV:  12    -0.132742216058E+04    0.16702E+00   -0.23508E+00  2568   0.338E+00    0.314E+00
DAV:  13    -0.132747900720E+04   -0.56847E-01   -0.83010E-01  2608   0.174E+00    0.200E+00
DAV:  14    -0.132746799244E+04    0.11015E-01   -0.23729E-01  2616   0.993E-01    0.124E+00
DAV:  15    -0.132747415781E+04   -0.61654E-02   -0.78883E-02  2576   0.557E-01    0.101E+00
DAV:  16    -0.132747443582E+04   -0.27802E-03   -0.28280E-02  2624   0.305E-01    0.584E-01
DAV:  17    -0.132747333525E+04    0.11006E-02   -0.19240E-02  2400   0.273E-01    0.308E-01
DAV:  18    -0.132747367450E+04   -0.33925E-03   -0.45060E-03  2432   0.140E-01    0.143E-01
DAV:  19    -0.132747370936E+04   -0.34855E-04   -0.15739E-03  2568   0.806E-02    0.103E-01
DAV:  20    -0.132747374761E+04   -0.38255E-04   -0.51304E-04  2600   0.395E-02    0.352E-02
DAV:  21    -0.132747376482E+04   -0.17212E-04   -0.14538E-04  2616   0.223E-02    0.341E-02
DAV:  22    -0.132747378103E+04   -0.16206E-04   -0.61572E-05  2424   0.147E-02    0.121E-02
DAV:  23    -0.132747377701E+04    0.40173E-05   -0.30229E-05  2080   0.104E-02    0.886E-03
DAV:  24    -0.132747378077E+04   -0.37618E-05   -0.78323E-06  1104   0.734E-03    0.201E-03
DAV:  25    -0.132747378077E+04    0.15280E-08   -0.34258E-06  1040   0.456E-03
   1 F= -.13274738E+04 E0= -.13274738E+04  d E =-.132747E+04
 BRION: g(F)=  0.625E+02 g(S)=  0.000E+00
 bond charge predicted
       N       E                     dE             d eps       ncg     rms          rms(c)
DAV:   1    -0.128920346472E+04    0.38270E+02   -0.73995E+03  1728   0.127E+02    0.303E+01
DAV:   2    -0.134999104233E+04   -0.60788E+02   -0.69458E+02  2592   0.597E+01    0.147E+01
DAV:   3    -0.134806340994E+04    0.19276E+01   -0.38478E+01  2600   0.156E+01    0.974E+00
DAV:   4    -0.134629618102E+04    0.17672E+01   -0.14168E+01  2496   0.732E+00    0.466E+00
DAV:   5    -0.134611559593E+04    0.18059E+00   -0.29469E+00  2544   0.394E+00    0.305E+00
DAV:   6    -0.134602271530E+04    0.92881E-01   -0.24729E+00  2368   0.287E+00    0.168E+00
DAV:   7    -0.134603501453E+04   -0.12299E-01   -0.61453E-01  2552   0.168E+00    0.138E+00
DAV:   8    -0.134601873339E+04    0.16281E-01   -0.29196E-01  2624   0.954E-01    0.543E-01
DAV:   9    -0.134602152619E+04   -0.27928E-02   -0.57636E-02  2608   0.480E-01    0.339E-01
DAV:  10    -0.134602121085E+04    0.31533E-03   -0.11042E-02  2616   0.266E-01    0.229E-01
DAV:  11    -0.134602152803E+04   -0.31718E-03   -0.12310E-02  2592   0.190E-01    0.126E-01
DAV:  12    -0.134602157676E+04   -0.48728E-04   -0.19752E-03  2608   0.101E-01    0.579E-02
DAV:  13    -0.134602162465E+04   -0.47892E-04   -0.71855E-04  2624   0.521E-02    0.331E-02
DAV:  14    -0.134602163022E+04   -0.55674E-05   -0.14610E-04  2624   0.267E-02    0.232E-02
DAV:  15    -0.134602162983E+04    0.38672E-06   -0.11402E-04  2368   0.194E-02    0.915E-03
DAV:  16    -0.134602163245E+04   -0.26187E-05   -0.24444E-05  2344   0.107E-02    0.675E-03
DAV:  17    -0.134602163228E+04    0.17285E-06   -0.49197E-06  1344   0.640E-03
   2 F= -.13460216E+04 E0= -.13460216E+04  d E =-.185479E+02
 BRION: g(F)=  0.507E+02 g(S)=  0.000E+00 retain N=  1 mean eig= 0.54
 eig:   0.536
 bond charge predicted
       N       E                     dE             d eps       ncg     rms          rms(c)
DAV:   1    -0.133114302394E+04    0.14879E+02   -0.27677E+03  1424   0.710E+01    0.182E+01
DAV:   2    -0.135786988032E+04   -0.26727E+02   -0.33287E+02  2504   0.332E+01    0.169E+01
DAV:   3    -0.135640190411E+04    0.14680E+01   -0.24209E+01  2576   0.116E+01    0.131E+01
DAV:   4    -0.135486183291E+04    0.15401E+01   -0.18689E+01  2160   0.531E+00    0.654E+00
DAV:   5    -0.135516616010E+04   -0.30433E+00   -0.45842E+00  2472   0.394E+00    0.653E+00
DAV:   6    -0.135438632662E+04    0.77983E+00   -0.49535E+00  2416   0.388E+00    0.171E+00
DAV:   7    -0.135446418339E+04   -0.77857E-01   -0.14708E+00  2272   0.228E+00    0.129E+00
DAV:   8    -0.135445759024E+04    0.65932E-02   -0.31364E-01  2552   0.922E-01    0.756E-01
DAV:   9    -0.135445294314E+04    0.46471E-02   -0.10920E-01  2544   0.569E-01    0.384E-01
DAV:  10    -0.135445418486E+04   -0.12417E-02   -0.23108E-02  2448   0.296E-01    0.203E-01
DAV:  11    -0.135445372772E+04    0.45714E-03   -0.51329E-03  2616   0.164E-01    0.125E-01
DAV:  12    -0.135445377408E+04   -0.46362E-04   -0.37687E-03  2480   0.993E-02    0.650E-02
DAV:  13    -0.135445377942E+04   -0.53481E-05   -0.79590E-04  2616   0.562E-02    0.393E-02
DAV:  14    -0.135445378037E+04   -0.94755E-06   -0.21347E-04  2624   0.296E-02    0.235E-02
DAV:  15    -0.135445378070E+04   -0.32810E-06   -0.90124E-05  2592   0.183E-02    0.127E-02
DAV:  16    -0.135445378258E+04   -0.18803E-05   -0.36413E-05  2472   0.114E-02    0.734E-03
DAV:  17    -0.135445378244E+04    0.13717E-06   -0.55281E-06  1368   0.625E-03
   3 F= -.13544538E+04 E0= -.13544538E+04  d E =-.843215E+01
 BRION: g(F)=  0.600E+01 g(S)=  0.000E+00 retain N=  2 mean eig= 1.45
 eig:   0.376  2.527
 bond charge predicted
       N       E                     dE             d eps       ncg     rms          rms(c)
DAV:   1    -0.135568182099E+04   -0.12280E+01   -0.37717E+02  1368   0.280E+01    0.516E+00
DAV:   2    -0.135759822020E+04   -0.19164E+01   -0.21361E+01  2312   0.106E+01    0.244E+00
DAV:   3    -0.135764812240E+04   -0.49902E-01   -0.16546E+00  2608   0.250E+00    0.203E+00
DAV:   4    -0.135759007548E+04    0.58047E-01   -0.39284E-01  2560   0.133E+00    0.105E+00
DAV:   5    -0.135757936947E+04    0.10706E-01   -0.15026E-01  2360   0.806E-01    0.656E-01
DAV:   6    -0.135757834687E+04    0.10226E-02   -0.83284E-02  2552   0.574E-01    0.443E-01
DAV:   7    -0.135757763531E+04    0.71157E-03   -0.39626E-02  2400   0.363E-01    0.286E-01
DAV:   8    -0.135757753474E+04    0.10057E-03   -0.10962E-02  2504   0.196E-01    0.154E-01
DAV:   9    -0.135757736752E+04    0.16722E-03   -0.28385E-03  2592   0.107E-01    0.922E-02
DAV:  10    -0.135757749630E+04   -0.12878E-03   -0.20107E-03  2416   0.794E-02    0.948E-02
DAV:  11    -0.135757738403E+04    0.11227E-03   -0.97027E-04  2520   0.607E-02    0.339E-02
DAV:  12    -0.135757739822E+04   -0.14188E-04   -0.35552E-04  2512   0.375E-02    0.211E-02
DAV:  13    -0.135757740005E+04   -0.18313E-05   -0.69631E-05  2624   0.169E-02    0.127E-02
DAV:  14    -0.135757740055E+04   -0.49602E-06   -0.23402E-05  2240   0.891E-03    0.611E-03
DAV:  15    -0.135757740077E+04   -0.21850E-06   -0.27733E-06  1088   0.527E-03
   4 F= -.13575774E+04 E0= -.13575774E+04  d E =-.312362E+01
 BRION: g(F)=  0.229E+01 g(S)=  0.000E+00 retain N=  3 mean eig= 1.21
 eig:   2.854  0.175  0.614
 bond charge predicted
       N       E                     dE             d eps       ncg     rms          rms(c)
DAV:   1    -0.135826484475E+04   -0.68744E+00   -0.17691E+02  1368   0.186E+01    0.277E+00
DAV:   2    -0.135913239069E+04   -0.86755E+00   -0.93789E+00  2272   0.690E+00    0.141E+00
DAV:   3    -0.135915956481E+04   -0.27174E-01   -0.67495E-01  2560   0.153E+00    0.121E+00
DAV:   4    -0.135913658199E+04    0.22983E-01   -0.12498E-01  2536   0.755E-01    0.702E-01
DAV:   5    -0.135912755188E+04    0.90301E-02   -0.70614E-02  2312   0.536E-01    0.374E-01
DAV:   6    -0.135912846782E+04   -0.91593E-03   -0.36332E-02  2520   0.380E-01    0.343E-01
DAV:   7    -0.135912755411E+04    0.91371E-03   -0.19239E-02  2488   0.250E-01    0.201E-01
DAV:   8    -0.135912744063E+04    0.11348E-03   -0.47498E-03  2528   0.135E-01    0.973E-02
DAV:   9    -0.135912741311E+04    0.27525E-04   -0.10790E-03  2584   0.649E-02    0.674E-02
DAV:  10    -0.135912744888E+04   -0.35772E-04   -0.71616E-04  2280   0.446E-02    0.573E-02
DAV:  11    -0.135912739774E+04    0.51136E-04   -0.31508E-04  2528   0.357E-02    0.236E-02
DAV:  12    -0.135912740687E+04   -0.91324E-05   -0.23510E-04  2488   0.273E-02    0.230E-02
DAV:  13    -0.135912740067E+04    0.62028E-05   -0.59622E-05  2248   0.159E-02    0.109E-02
DAV:  14    -0.135912740095E+04   -0.27807E-06   -0.21930E-05  2040   0.865E-03    0.383E-03
DAV:  15    -0.135912740099E+04   -0.37180E-07   -0.15732E-06  1032   0.466E-03
   5 F= -.13591274E+04 E0= -.13591274E+04  d E =-.155000E+01
 BRION: g(F)=  0.135E+01 g(S)=  0.000E+00 retain N=  4 mean eig= 1.03
 eig:   1.828  0.845  0.727  0.727
 bond charge predicted
       N       E                     dE             d eps       ncg     rms          rms(c)
DAV:   1    -0.135952279501E+04   -0.39539E+00   -0.21458E+02  1376   0.205E+01    0.279E+00
DAV:   2    -0.136056308975E+04   -0.10403E+01   -0.11011E+01  2288   0.754E+00    0.142E+00
DAV:   3    -0.136060429298E+04   -0.41203E-01   -0.79331E-01  2600   0.157E+00    0.116E+00
DAV:   4    -0.136058237369E+04    0.21919E-01   -0.11200E-01  2536   0.738E-01    0.693E-01
DAV:   5    -0.136057354924E+04    0.88244E-02   -0.56646E-02  2416   0.465E-01    0.301E-01
DAV:   6    -0.136057464506E+04   -0.10958E-02   -0.25617E-02  2552   0.309E-01    0.245E-01
DAV:   7    -0.136057433234E+04    0.31272E-03   -0.10281E-02  2536   0.199E-01    0.154E-01
DAV:   8    -0.136057435954E+04   -0.27198E-04   -0.45798E-03  2560   0.121E-01    0.890E-02
DAV:   9    -0.136057429849E+04    0.61054E-04   -0.69429E-04  2592   0.598E-02    0.636E-02
DAV:  10    -0.136057430921E+04   -0.10725E-04   -0.79050E-04  2320   0.463E-02    0.407E-02
DAV:  11    -0.136057429622E+04    0.12990E-04   -0.19949E-04  2520   0.329E-02    0.172E-02
DAV:  12    -0.136057430254E+04   -0.63193E-05   -0.11532E-04  2408   0.188E-02    0.160E-02
DAV:  13    -0.136057429963E+04    0.29127E-05   -0.32711E-05  2184   0.117E-02    0.679E-03
DAV:  14    -0.136057429990E+04   -0.27602E-06   -0.96317E-06  1776   0.666E-03
   6 F= -.13605743E+04 E0= -.13605743E+04  d E =-.144690E+01
 BRION: g(F)=  0.734E+00 g(S)=  0.000E+00 retain N=  5 mean eig= 1.26
 eig:   2.213  1.674  1.674  0.704  0.015
 bond charge predicted
       N       E                     dE             d eps       ncg     rms          rms(c)
DAV:   1    -0.136102148533E+04   -0.44719E+00   -0.86774E+01  1368   0.131E+01    0.177E+00
DAV:   2    -0.136144431200E+04   -0.42283E+00   -0.44606E+00  2320   0.496E+00    0.878E-01
DAV:   3    -0.136146302434E+04   -0.18712E-01   -0.32349E-01  2600   0.968E-01    0.704E-01
DAV:   4    -0.136145406177E+04    0.89626E-02   -0.48057E-02  2536   0.488E-01    0.380E-01
DAV:   5    -0.136145205963E+04    0.20021E-02   -0.20589E-02  2432   0.308E-01    0.184E-01
DAV:   6    -0.136145256067E+04   -0.50104E-03   -0.97720E-03  2560   0.187E-01    0.128E-01
DAV:   7    -0.136145245147E+04    0.10921E-03   -0.24566E-03  2440   0.106E-01    0.876E-02
DAV:   8    -0.136145247882E+04   -0.27351E-04   -0.15547E-03  2360   0.659E-02    0.516E-02
DAV:   9    -0.136145245646E+04    0.22357E-04   -0.25231E-04  2544   0.357E-02    0.357E-02
DAV:  10    -0.136145245280E+04    0.36625E-05   -0.28162E-04  2416   0.306E-02    0.232E-02
DAV:  11    -0.136145245225E+04    0.55085E-06   -0.84725E-05  2424   0.199E-02    0.109E-02
DAV:  12    -0.136145245394E+04   -0.16990E-05   -0.36851E-05  2328   0.111E-02    0.871E-03
DAV:  13    -0.136145245346E+04    0.48563E-06   -0.10894E-05  1760   0.777E-03    0.438E-03
DAV:  14    -0.136145245332E+04    0.13618E-06   -0.22229E-06  1032   0.530E-03
   7 F= -.13614525E+04 E0= -.13614525E+04  d E =-.878153E+00
 BRION: g(F)=  0.526E+00 g(S)=  0.000E+00 retain N=  6 mean eig= 1.88
 eig:   2.532  3.474  3.474  0.034  0.879  0.879
 bond charge predicted
       N       E                     dE             d eps       ncg     rms          rms(c)
DAV:   1    -0.136180188656E+04   -0.34943E+00   -0.10046E+02  1384   0.144E+01    0.173E+00
DAV:   2    -0.136231732821E+04   -0.51544E+00   -0.54987E+00  2296   0.558E+00    0.891E-01
DAV:   3    -0.136234945059E+04   -0.32122E-01   -0.45306E-01  2592   0.112E+00    0.734E-01
DAV:   4    -0.136234336305E+04    0.60875E-02   -0.46092E-02  2600   0.512E-01    0.514E-01
DAV:   5    -0.136233804424E+04    0.53188E-02   -0.24303E-02  2360   0.315E-01    0.214E-01
DAV:   6    -0.136233856353E+04   -0.51928E-03   -0.14440E-02  2440   0.234E-01    0.175E-01
DAV:   7    -0.136233852927E+04    0.34259E-04   -0.71167E-03  2456   0.159E-01    0.123E-01
DAV:   8    -0.136233849833E+04    0.30936E-04   -0.28468E-03  2576   0.101E-01    0.699E-02
DAV:   9    -0.136233847180E+04    0.26538E-04   -0.52895E-04  2552   0.504E-02    0.492E-02
DAV:  10    -0.136233847268E+04   -0.87965E-06   -0.30007E-04  2576   0.312E-02    0.265E-02
DAV:  11    -0.136233847494E+04   -0.22652E-05   -0.96548E-05  2488   0.217E-02    0.155E-02
DAV:  12    -0.136233847483E+04    0.10878E-06   -0.40800E-05  2416   0.146E-02    0.137E-02
DAV:  13    -0.136233847350E+04    0.13325E-05   -0.29622E-05  2104   0.965E-03    0.683E-03
DAV:  14    -0.136233847344E+04    0.56491E-07   -0.78290E-06  1648   0.598E-03
   8 F= -.13623385E+04 E0= -.13623385E+04  d E =-.886020E+00
 BRION: g(F)=  0.384E+00 g(S)=  0.000E+00 retain N=  7 mean eig= 2.28
 eig:   4.963  4.963  2.636  1.259  1.259  0.002  0.905
 bond charge predicted
       N       E                     dE             d eps       ncg     rms          rms(c)
DAV:   1    -0.136267612307E+04   -0.33765E+00   -0.66624E+01  1392   0.117E+01    0.139E+00
DAV:   2    -0.136302691752E+04   -0.35079E+00   -0.37395E+00  2296   0.468E+00    0.701E-01
DAV:   3    -0.136304874538E+04   -0.21828E-01   -0.30639E-01  2584   0.916E-01    0.573E-01
DAV:   4    -0.136304460902E+04    0.41364E-02   -0.30107E-02  2608   0.416E-01    0.402E-01
DAV:   5    -0.136304099597E+04    0.36130E-02   -0.14860E-02  2376   0.245E-01    0.167E-01
DAV:   6    -0.136304124917E+04   -0.25320E-03   -0.92635E-03  2424   0.184E-01    0.125E-01
DAV:   7    -0.136304128606E+04   -0.36894E-04   -0.45538E-03  2440   0.126E-01    0.946E-02
DAV:   8    -0.136304127240E+04    0.13668E-04   -0.16423E-03  2608   0.783E-02    0.564E-02
DAV:   9    -0.136304125144E+04    0.20952E-04   -0.37240E-04  2528   0.400E-02    0.382E-02
DAV:  10    -0.136304125512E+04   -0.36740E-05   -0.17316E-04  2576   0.242E-02    0.232E-02
DAV:  11    -0.136304125725E+04   -0.21303E-05   -0.71597E-05  2472   0.178E-02    0.147E-02
DAV:  12    -0.136304125559E+04    0.16583E-05   -0.31514E-05  2320   0.129E-02    0.117E-02
DAV:  13    -0.136304125501E+04    0.57947E-06   -0.25378E-05  2160   0.880E-03    0.617E-03
DAV:  14    -0.136304125467E+04    0.34161E-06   -0.34478E-06  1168   0.515E-03
   9 F= -.13630413E+04 E0= -.13630413E+04  d E =-.702781E+00
 BRION: g(F)=  0.319E+00 g(S)=  0.000E+00 retain N=  8 mean eig= 2.75
 eig:   6.351  6.351  2.700  2.333  2.333  0.076  0.947  0.947
 bond charge predicted
       N       E                     dE             d eps       ncg     rms          rms(c)
DAV:   1    -0.136331115220E+04   -0.26990E+00   -0.79245E+01  1392   0.128E+01    0.154E+00
DAV:   2    -0.136373912912E+04   -0.42798E+00   -0.45625E+00  2296   0.519E+00    0.778E-01
DAV:   3    -0.136376560138E+04   -0.26472E-01   -0.37260E-01  2584   0.101E+00    0.635E-01
DAV:   4    -0.136376050346E+04    0.50979E-02   -0.37882E-02  2616   0.464E-01    0.438E-01
DAV:   5    -0.136375636780E+04    0.41357E-02   -0.16006E-02  2432   0.260E-01    0.188E-01
DAV:   6    -0.136375653802E+04   -0.17022E-03   -0.10615E-02  2392   0.198E-01    0.119E-01
DAV:   7    -0.136375666149E+04   -0.12347E-03   -0.52421E-03  2424   0.135E-01    0.100E-01
DAV:   8    -0.136375664724E+04    0.14256E-04   -0.16536E-03  2608   0.788E-02    0.640E-02
DAV:   9    -0.136375661865E+04    0.28588E-04   -0.49211E-04  2592   0.439E-02    0.389E-02
DAV:  10    -0.136375662719E+04   -0.85375E-05   -0.19233E-04  2568   0.266E-02    0.254E-02
DAV:  11    -0.136375662942E+04   -0.22315E-05   -0.74962E-05  2480   0.181E-02    0.167E-02
DAV:  12    -0.136375662672E+04    0.26969E-05   -0.47600E-05  2320   0.151E-02    0.124E-02
DAV:  13    -0.136375662623E+04    0.49226E-06   -0.28780E-05  2296   0.100E-02    0.683E-03
DAV:  14    -0.136375662622E+04    0.88476E-08   -0.88960E-06  1760   0.578E-03
  10 F= -.13637566E+04 E0= -.13637566E+04  d E =-.715372E+00
 BRION: g(F)=  0.259E+00 g(S)=  0.000E+00 retain N=  7 mean eig= 3.33
 eig:   7.188  7.188  2.618  2.618  1.362  1.362  0.973
 bond charge predicted
       N       E                     dE             d eps       ncg     rms          rms(c)
DAV:   1    -0.136400854063E+04   -0.25191E+00   -0.53559E+01  1392   0.106E+01    0.132E+00
DAV:   2    -0.136429788667E+04   -0.28935E+00   -0.30899E+00  2304   0.428E+00    0.649E-01
DAV:   3    -0.136431587980E+04   -0.17993E-01   -0.25236E-01  2576   0.842E-01    0.520E-01
DAV:   4    -0.136431213381E+04    0.37460E-02   -0.26020E-02  2600   0.389E-01    0.348E-01
DAV:   5    -0.136430987174E+04    0.22621E-02   -0.12161E-02  2432   0.219E-01    0.136E-01
DAV:   6    -0.136431022040E+04   -0.34867E-03   -0.59495E-03  2488   0.144E-01    0.966E-02
DAV:   7    -0.136431024738E+04   -0.26971E-04   -0.24676E-03  2488   0.959E-02    0.672E-02
DAV:   8    -0.136431025469E+04   -0.73091E-05   -0.91741E-04  2624   0.594E-02    0.426E-02
DAV:   9    -0.136431024670E+04    0.79847E-05   -0.18305E-04  2552   0.300E-02    0.304E-02
DAV:  10    -0.136431024855E+04   -0.18515E-05   -0.11202E-04  2576   0.195E-02    0.160E-02
DAV:  11    -0.136431024901E+04   -0.45734E-06   -0.35681E-05  2424   0.129E-02    0.758E-03
DAV:  12    -0.136431024937E+04   -0.36099E-06   -0.10804E-05  1888   0.815E-03    0.577E-03
DAV:  13    -0.136431024923E+04    0.14335E-06   -0.58098E-06  1392   0.533E-03
  11 F= -.13643102E+04 E0= -.13643102E+04  d E =-.553623E+00
 BRION: g(F)=  0.228E+00 g(S)=  0.000E+00 retain N=  7 mean eig= 3.72
 eig:   7.960  7.960  3.291  3.291  1.236  1.236  1.073
 bond charge predicted
       N       E                     dE             d eps       ncg     rms          rms(c)
DAV:   1    -0.136451887310E+04   -0.20862E+00   -0.24934E+01  1392   0.725E+00    0.877E-01
DAV:   2    -0.136465269900E+04   -0.13383E+00   -0.14261E+00  2312   0.293E+00    0.440E-01
DAV:   3    -0.136466101878E+04   -0.83198E-02   -0.11630E-01  2576   0.565E-01    0.356E-01
DAV:   4    -0.136465941894E+04    0.15998E-02   -0.11666E-02  2592   0.260E-01    0.246E-01
DAV:   5    -0.136465817354E+04    0.12454E-02   -0.57042E-03  2392   0.147E-01    0.998E-02
DAV:   6    -0.136465828436E+04   -0.11082E-03   -0.30920E-03  2432   0.105E-01    0.732E-02
DAV:   7    -0.136465829200E+04   -0.76422E-05   -0.15525E-03  2424   0.728E-02    0.515E-02
DAV:   8    -0.136465829374E+04   -0.17369E-05   -0.55651E-04  2600   0.464E-02    0.347E-02
DAV:   9    -0.136465828738E+04    0.63579E-05   -0.11778E-04  2528   0.230E-02    0.241E-02
DAV:  10    -0.136465828736E+04    0.16938E-07   -0.58281E-05  2560   0.137E-02    0.131E-02
DAV:  11    -0.136465828836E+04   -0.99490E-06   -0.19717E-05  2208   0.979E-03    0.798E-03
DAV:  12    -0.136465828785E+04    0.50466E-06   -0.90071E-06  1744   0.734E-03
  12 F= -.13646583E+04 E0= -.13646583E+04  d E =-.348039E+00
 BRION: g(F)=  0.200E+00 g(S)=  0.000E+00 retain N=  3 mean eig= 3.68
 eig:   4.898  4.898  1.245
 bond charge predicted
       N       E                     dE             d eps       ncg     rms          rms(c)
DAV:   1    -0.136487001509E+04   -0.21173E+00   -0.44338E+01  1376   0.958E+00    0.112E+00
DAV:   2    -0.136510204626E+04   -0.23203E+00   -0.24569E+00  2296   0.380E+00    0.555E-01
DAV:   3    -0.136511660404E+04   -0.14558E-01   -0.19878E-01  2576   0.739E-01    0.437E-01
DAV:   4    -0.136511400645E+04    0.25976E-02   -0.19047E-02  2592   0.331E-01    0.303E-01
DAV:   5    -0.136511198804E+04    0.20184E-02   -0.82169E-03  2384   0.184E-01    0.123E-01
DAV:   6    -0.136511212039E+04   -0.13235E-03   -0.48529E-03  2456   0.131E-01    0.781E-02
DAV:   7    -0.136511218383E+04   -0.63438E-04   -0.20966E-03  2432   0.862E-02    0.596E-02
DAV:   8    -0.136511218069E+04    0.31426E-05   -0.64754E-04  2616   0.517E-02    0.369E-02
DAV:   9    -0.136511217670E+04    0.39864E-05   -0.17583E-04  2560   0.277E-02    0.247E-02
DAV:  10    -0.136511217881E+04   -0.21108E-05   -0.75888E-05  2568   0.169E-02    0.145E-02
DAV:  11    -0.136511217901E+04   -0.19892E-06   -0.28155E-05  2408   0.115E-02    0.732E-03
DAV:  12    -0.136511217912E+04   -0.10943E-06   -0.11531E-05  1912   0.800E-03    0.597E-03
DAV:  13    -0.136511217889E+04    0.23277E-06   -0.46197E-06  1312   0.500E-03
  13 F= -.13651122E+04 E0= -.13651122E+04  d E =-.453891E+00
 BRION: g(F)=  0.180E+00 g(S)=  0.000E+00 retain N=  3 mean eig= 4.00
 eig:   5.302  5.302  1.384
 bond charge predicted
       N       E                     dE             d eps       ncg     rms          rms(c)
DAV:   1    -0.136527292812E+04   -0.16075E+00   -0.54904E+01  1376   0.107E+01    0.125E+00
DAV:   2    -0.136555863974E+04   -0.28571E+00   -0.30284E+00  2304   0.425E+00    0.623E-01
DAV:   3    -0.136557653475E+04   -0.17895E-01   -0.24436E-01  2576   0.817E-01    0.492E-01
DAV:   4    -0.136557351454E+04    0.30202E-02   -0.22984E-02  2592   0.363E-01    0.348E-01
DAV:   5    -0.136557095844E+04    0.25561E-02   -0.10935E-02  2384   0.204E-01    0.142E-01
DAV:   6    -0.136557111741E+04   -0.15896E-03   -0.58431E-03  2424   0.142E-01    0.962E-02
DAV:   7    -0.136557116895E+04   -0.51544E-04   -0.28810E-03  2472   0.983E-02    0.682E-02
DAV:   8    -0.136557116969E+04   -0.73660E-06   -0.92933E-04  2608   0.625E-02    0.494E-02
DAV:   9    -0.136557115530E+04    0.14389E-04   -0.24814E-04  2536   0.325E-02    0.318E-02
DAV:  10    -0.136557115648E+04   -0.11817E-05   -0.99864E-05  2568   0.188E-02    0.166E-02
DAV:  11    -0.136557115816E+04   -0.16763E-05   -0.26172E-05  2480   0.114E-02    0.952E-03
DAV:  12    -0.136557115765E+04    0.50830E-06   -0.13565E-05  1928   0.842E-03    0.651E-03
DAV:  13    -0.136557115763E+04    0.19529E-07   -0.79077E-06  1584   0.568E-03
  14 F= -.13655712E+04 E0= -.13655712E+04  d E =-.458979E+00
 BRION: g(F)=  0.157E+00 g(S)=  0.000E+00 retain N=  3 mean eig= 4.18
 eig:   1.448  5.547  5.547
 bond charge predicted
       N       E                     dE             d eps       ncg     rms          rms(c)
DAV:   1    -0.136558103224E+04   -0.98746E-02   -0.97935E+01  1376   0.142E+01    0.164E+00
DAV:   2    -0.136608478945E+04   -0.50376E+00   -0.53174E+00  2296   0.560E+00    0.829E-01
DAV:   3    -0.136611450603E+04   -0.29717E-01   -0.41820E-01  2576   0.107E+00    0.647E-01
DAV:   4    -0.136610870377E+04    0.58023E-02   -0.40523E-02  2600   0.474E-01    0.449E-01
DAV:   5    -0.136610403193E+04    0.46718E-02   -0.17047E-02  2392   0.266E-01    0.190E-01
DAV:   6    -0.136610410360E+04   -0.71676E-04   -0.10619E-02  2408   0.194E-01    0.113E-01
DAV:   7    -0.136610426114E+04   -0.15754E-03   -0.46385E-03  2464   0.127E-01    0.896E-02
DAV:   8    -0.136610424858E+04    0.12565E-04   -0.13843E-03  2608   0.754E-02    0.589E-02
DAV:   9    -0.136610423214E+04    0.16437E-04   -0.45977E-04  2552   0.423E-02    0.360E-02
DAV:  10    -0.136610423852E+04   -0.63797E-05   -0.16801E-04  2616   0.258E-02    0.230E-02
DAV:  11    -0.136610423739E+04    0.11353E-05   -0.61076E-05  2584   0.165E-02    0.110E-02
DAV:  12    -0.136610423785E+04   -0.46671E-06   -0.29220E-05  2280   0.114E-02    0.907E-03
DAV:  13    -0.136610423749E+04    0.35897E-06   -0.12925E-05  1840   0.706E-03    0.522E-03
DAV:  14    -0.136610423731E+04    0.18686E-06   -0.44679E-06  1312   0.545E-03
  15 F= -.13661042E+04 E0= -.13661042E+04  d E =-.533080E+00
 BRION: g(F)=  0.124E+00 g(S)=  0.000E+00 retain N=  2 mean eig= 5.36
 eig:   5.355  5.355
 bond charge predicted
       N       E                     dE             d eps       ncg     rms          rms(c)
DAV:   1    -0.136614906467E+04   -0.44827E-01   -0.56051E+01  1376   0.108E+01    0.123E+00
DAV:   2    -0.136643202231E+04   -0.28296E+00   -0.29897E+00  2296   0.424E+00    0.620E-01
DAV:   3    -0.136644886768E+04   -0.16845E-01   -0.23511E-01  2568   0.812E-01    0.486E-01
DAV:   4    -0.136644568247E+04    0.31852E-02   -0.21193E-02  2576   0.348E-01    0.350E-01
DAV:   5    -0.136644261067E+04    0.30718E-02   -0.12041E-02  2280   0.217E-01    0.131E-01
DAV:   6    -0.136644293446E+04   -0.32379E-03   -0.69772E-03  2480   0.152E-01    0.111E-01
DAV:   7    -0.136644292238E+04    0.12077E-04   -0.26527E-03  2520   0.968E-02    0.716E-02
DAV:   8    -0.136644289974E+04    0.22642E-04   -0.91173E-04  2584   0.607E-02    0.416E-02
DAV:   9    -0.136644289644E+04    0.33009E-05   -0.17352E-04  2520   0.293E-02    0.285E-02
DAV:  10    -0.136644289759E+04   -0.11529E-05   -0.89130E-05  2592   0.182E-02    0.124E-02
DAV:  11    -0.136644289905E+04   -0.14551E-05   -0.22001E-05  2360   0.111E-02    0.555E-03
DAV:  12    -0.136644289965E+04   -0.60502E-06   -0.83827E-06  1776   0.665E-03
  16 F= -.13664429E+04 E0= -.13664429E+04  d E =-.338662E+00
 BRION: g(F)=  0.998E-01 g(S)=  0.000E+00 retain N=  2 mean eig= 5.26
 eig:   5.259  5.259
 bond charge predicted
       N       E                     dE             d eps       ncg     rms          rms(c)
DAV:   1    -0.136649947119E+04   -0.56572E-01   -0.31268E+01  1360   0.805E+00    0.923E-01
DAV:   2    -0.136665808060E+04   -0.15861E+00   -0.16770E+00  2296   0.319E+00    0.469E-01
DAV:   3    -0.136666736442E+04   -0.92838E-02   -0.13183E-01  2584   0.610E-01    0.373E-01
DAV:   4    -0.136666547645E+04    0.18880E-02   -0.11729E-02  2600   0.260E-01    0.270E-01
DAV:   5    -0.136666351622E+04    0.19602E-02   -0.73128E-03  2272   0.170E-01    0.103E-01
DAV:   6    -0.136666372711E+04   -0.21088E-03   -0.45427E-03  2472   0.123E-01    0.944E-02
DAV:   7    -0.136666369308E+04    0.34024E-04   -0.17458E-03  2504   0.781E-02    0.602E-02
DAV:   8    -0.136666367506E+04    0.18028E-04   -0.60383E-04  2584   0.487E-02    0.323E-02
DAV:   9    -0.136666367204E+04    0.30185E-05   -0.11357E-04  2464   0.232E-02    0.223E-02
DAV:  10    -0.136666367317E+04   -0.11293E-05   -0.49827E-05  2512   0.138E-02    0.107E-02
DAV:  11    -0.136666367368E+04   -0.51361E-06   -0.15209E-05  2152   0.936E-03    0.491E-03
DAV:  12    -0.136666367412E+04   -0.43651E-06   -0.64459E-06  1544   0.587E-03
  17 F= -.13666637E+04 E0= -.13666637E+04  d E =-.220774E+00
 BRION: g(F)=  0.830E-01 g(S)=  0.000E+00 retain N=  2 mean eig= 4.00
 eig:   4.004  4.004
 bond charge predicted
       N       E                     dE             d eps       ncg     rms          rms(c)
DAV:   1    -0.136666789199E+04   -0.42183E-02   -0.42044E+01  1360   0.925E+00    0.104E+00
DAV:   2    -0.136687754810E+04   -0.20966E+00   -0.22061E+00  2296   0.364E+00    0.527E-01
DAV:   3    -0.136688955181E+04   -0.12004E-01   -0.16969E-01  2584   0.686E-01    0.418E-01
DAV:   4    -0.136688712878E+04    0.24230E-02   -0.14440E-02  2592   0.288E-01    0.306E-01
DAV:   5    -0.136688430063E+04    0.28282E-02   -0.88479E-03  2200   0.195E-01    0.113E-01
DAV:   6    -0.136688461104E+04   -0.31041E-03   -0.67514E-03  2400   0.147E-01    0.105E-01
DAV:   7    -0.136688459368E+04    0.17353E-04   -0.20026E-03  2424   0.835E-02    0.758E-02
DAV:   8    -0.136688455869E+04    0.34992E-04   -0.76530E-04  2592   0.520E-02    0.378E-02
DAV:   9    -0.136688454391E+04    0.14787E-04   -0.17610E-04  2288   0.280E-02    0.238E-02
DAV:  10    -0.136688454575E+04   -0.18412E-05   -0.48187E-05  2376   0.148E-02    0.136E-02
DAV:  11    -0.136688454562E+04    0.12929E-06   -0.25493E-05  2296   0.935E-03    0.548E-03
DAV:  12    -0.136688454576E+04   -0.14323E-06   -0.31207E-06  1160   0.580E-03
  18 F= -.13668845E+04 E0= -.13668845E+04  d E =-.220872E+00
 BRION: g(F)=  0.664E-01 g(S)=  0.000E+00 retain N=  2 mean eig= 3.86
 eig:   3.865  3.865
 bond charge predicted
       N       E                     dE             d eps       ncg     rms          rms(c)
DAV:   1    -0.136692451259E+04   -0.39967E-01   -0.15805E+01  1360   0.571E+00    0.650E-01
DAV:   2    -0.136700381683E+04   -0.79304E-01   -0.83811E-01  2288   0.226E+00    0.329E-01
DAV:   3    -0.136700859649E+04   -0.47797E-02   -0.66151E-02  2576   0.432E-01    0.268E-01
DAV:   4    -0.136700774115E+04    0.85535E-03   -0.57919E-03  2576   0.181E-01    0.197E-01
DAV:   5    -0.136700669391E+04    0.10472E-02   -0.40295E-03  2160   0.127E-01    0.708E-02
DAV:   6    -0.136700685522E+04   -0.16131E-03   -0.25408E-03  2488   0.909E-02    0.772E-02
DAV:   7    -0.136700682341E+04    0.31812E-04   -0.85786E-04  2536   0.543E-02    0.482E-02
DAV:   8    -0.136700680395E+04    0.19462E-04   -0.29304E-04  2552   0.336E-02    0.230E-02
DAV:   9    -0.136700680302E+04    0.93119E-06   -0.50592E-05  2408   0.159E-02    0.150E-02
DAV:  10    -0.136700680357E+04   -0.55612E-06   -0.15293E-05  2200   0.870E-03    0.537E-03
DAV:  11    -0.136700680386E+04   -0.28934E-06   -0.17288E-06  1000   0.503E-03
  19 F= -.13670068E+04 E0= -.13670068E+04  d E =-.122258E+00
 BRION: g(F)=  0.578E-01 g(S)=  0.000E+00 retain N=  3 mean eig= 4.05
 eig:   5.273  5.273  1.600
 bond charge predicted
       N       E                     dE             d eps       ncg     rms          rms(c)
DAV:   1    -0.136702343525E+04   -0.16632E-01   -0.22406E+01  1368   0.671E+00    0.748E-01
DAV:   2    -0.136713402811E+04   -0.11059E+00   -0.11610E+00  2296   0.262E+00    0.382E-01
DAV:   3    -0.136714039926E+04   -0.63712E-02   -0.89789E-02  2576   0.492E-01    0.301E-01
DAV:   4    -0.136713911648E+04    0.12828E-02   -0.77472E-03  2576   0.208E-01    0.219E-01
DAV:   5    -0.136713766885E+04    0.14476E-02   -0.45348E-03  2208   0.141E-01    0.830E-02
DAV:   6    -0.136713781220E+04   -0.14335E-03   -0.34856E-03  2360   0.108E-01    0.727E-02
DAV:   7    -0.136713781266E+04   -0.45818E-06   -0.11114E-03  2392   0.612E-02    0.535E-02
DAV:   8    -0.136713779884E+04    0.13819E-04   -0.40621E-04  2568   0.378E-02    0.276E-02
DAV:   9    -0.136713779105E+04    0.77891E-05   -0.93813E-05  2264   0.205E-02    0.176E-02
DAV:  10    -0.136713779210E+04   -0.10494E-05   -0.30161E-05  2384   0.111E-02    0.103E-02
DAV:  11    -0.136713779173E+04    0.37330E-06   -0.10659E-05  1752   0.715E-03    0.437E-03
DAV:  12    -0.136713779183E+04   -0.98225E-07   -0.24585E-06  1056   0.549E-03
  20 F= -.13671378E+04 E0= -.13671378E+04  d E =-.130988E+00
 BRION: g(F)=  0.499E-01 g(S)=  0.000E+00 retain N=  3 mean eig= 5.17
 eig:   6.919  6.919  1.671
