 running on  160 total cores
 distrk:  each k-point on  160 cores,    1 groups
 distr:  one band on   20 cores,    8 groups
 using from now: INCAR     
 vasp.5.4.4.18Apr17-6-g9f103f2a35 (build May 01 2020 14:22:42) gamma-only       
  
 POSCAR found type information on POSCAR  O  La Zr Li Al
 POSCAR found :  5 types and     188 ions
 scaLAPACK will be used
 LDA part: xc-table for Pade appr. of Perdew
 POSCAR, INCAR and KPOINTS ok, starting setup
 FFT: planning ...
 WAVECAR not read
 WARNING: random wavefunctions but no delay for mixing, default for NELMDL
 entering main loop
       N       E                     dE             d eps       ncg     rms          rms(c)
DAV:   1     0.253285708912E+05    0.25329E+05   -0.42041E+05  1600   0.253E+03
DAV:   2     0.947405619817E+04   -0.15855E+05   -0.14604E+05  1416   0.709E+02
DAV:   3     0.271641710906E+04   -0.67576E+04   -0.61486E+04  1480   0.358E+02
DAV:   4    -0.353394296652E+03   -0.30698E+04   -0.28638E+04  2040   0.223E+02
DAV:   5    -0.139699972556E+04   -0.10436E+04   -0.99896E+03  2544   0.141E+02    0.116E+02
DAV:   6    -0.129849490787E+04    0.98505E+02   -0.15236E+03  2448   0.669E+01    0.504E+01
DAV:   7    -0.132090566281E+04   -0.22411E+02   -0.41293E+02  2560   0.348E+01    0.263E+01
DAV:   8    -0.132538812301E+04   -0.44825E+01   -0.23995E+02  2544   0.270E+01    0.233E+01
DAV:   9    -0.132214070713E+04    0.32474E+01   -0.39165E+01  2552   0.137E+01    0.834E+00
DAV:  10    -0.132254089938E+04   -0.40019E+00   -0.15592E+01  2608   0.721E+00    0.664E+00
DAV:  11    -0.132290892077E+04   -0.36802E+00   -0.50833E+00  2616   0.410E+00    0.439E+00
DAV:  12    -0.132283752984E+04    0.71391E-01   -0.19203E+00  2552   0.312E+00    0.303E+00
DAV:  13    -0.132283142770E+04    0.61021E-02   -0.10692E+00  2552   0.186E+00    0.195E+00
DAV:  14    -0.132283269319E+04   -0.12655E-02   -0.18360E-01  2616   0.946E-01    0.133E+00
DAV:  15    -0.132282664465E+04    0.60485E-02   -0.82881E-02  2528   0.510E-01    0.675E-01
DAV:  16    -0.132282571989E+04    0.92476E-03   -0.35362E-02  2600   0.339E-01    0.392E-01
DAV:  17    -0.132282607123E+04   -0.35135E-03   -0.12190E-02  2592   0.216E-01    0.250E-01
DAV:  18    -0.132282627633E+04   -0.20509E-03   -0.38091E-03  2592   0.107E-01    0.106E-01
DAV:  19    -0.132282628363E+04   -0.73050E-05   -0.20740E-03  2560   0.859E-02    0.103E-01
DAV:  20    -0.132282632247E+04   -0.38835E-04   -0.81587E-04  2472   0.516E-02    0.327E-02
DAV:  21    -0.132282633967E+04   -0.17201E-04   -0.21176E-04  2608   0.290E-02    0.321E-02
DAV:  22    -0.132282634005E+04   -0.38366E-06   -0.12914E-04  2504   0.185E-02    0.113E-02
DAV:  23    -0.132282634823E+04   -0.81767E-05   -0.37749E-05  2232   0.124E-02    0.800E-03
DAV:  24    -0.132282634639E+04    0.18363E-05   -0.12411E-05  1288   0.660E-03    0.494E-03
DAV:  25    -0.132282634850E+04   -0.21141E-05   -0.50515E-06  1024   0.571E-03    0.244E-03
DAV:  26    -0.132282634895E+04   -0.44782E-06   -0.29084E-06  1008   0.469E-03
   1 F= -.13228263E+04 E0= -.13228127E+04  d E =-.132283E+04
 BRION: g(F)=  0.630E+02 g(S)=  0.000E+00
 bond charge predicted
       N       E                     dE             d eps       ncg     rms          rms(c)
DAV:   1    -0.128503086336E+04    0.37795E+02   -0.83298E+03  1696   0.139E+02    0.297E+01
DAV:   2    -0.134846584284E+04   -0.63435E+02   -0.73396E+02  2568   0.616E+01    0.149E+01
DAV:   3    -0.134645683627E+04    0.20090E+01   -0.41853E+01  2616   0.167E+01    0.995E+00
DAV:   4    -0.134403367752E+04    0.24232E+01   -0.14483E+01  2376   0.815E+00    0.474E+00
DAV:   5    -0.134381667621E+04    0.21700E+00   -0.48551E+00  2560   0.476E+00    0.340E+00
DAV:   6    -0.134372492161E+04    0.91755E-01   -0.33194E+00  2600   0.321E+00    0.188E+00
DAV:   7    -0.134367922052E+04    0.45701E-01   -0.49982E-01  2528   0.184E+00    0.108E+00
DAV:   8    -0.134368764407E+04   -0.84236E-02   -0.47275E-01  2616   0.115E+00    0.819E-01
DAV:   9    -0.134368486319E+04    0.27809E-02   -0.61667E-02  2592   0.575E-01    0.578E-01
DAV:  10    -0.134368128913E+04    0.35741E-02   -0.47665E-02  2536   0.376E-01    0.223E-01
DAV:  11    -0.134368255976E+04   -0.12706E-02   -0.20170E-02  2576   0.260E-01    0.204E-01
DAV:  12    -0.134368244511E+04    0.11465E-03   -0.31507E-03  2584   0.121E-01    0.139E-01
DAV:  13    -0.134368220091E+04    0.24420E-03   -0.27488E-03  2408   0.917E-02    0.245E-02
DAV:  14    -0.134368225468E+04   -0.53768E-04   -0.51847E-04  2336   0.497E-02    0.176E-02
DAV:  15    -0.134368226954E+04   -0.14855E-04   -0.11127E-04  2624   0.195E-02    0.209E-02
DAV:  16    -0.134368226326E+04    0.62803E-05   -0.41557E-05  2600   0.139E-02    0.116E-02
DAV:  17    -0.134368226449E+04   -0.12336E-05   -0.34614E-05  2416   0.108E-02    0.419E-03
DAV:  18    -0.134368226434E+04    0.15070E-06   -0.18253E-06  1072   0.500E-03
   2 F= -.13436823E+04 E0= -.13436823E+04  d E =-.208559E+02
 BRION: g(F)=  0.396E+02 g(S)=  0.000E+00 retain N=  1 mean eig= 0.58
 eig:   0.578
 bond charge predicted
       N       E                     dE             d eps       ncg     rms          rms(c)
DAV:   1    -0.133254035528E+04    0.11142E+02   -0.26963E+03  1432   0.734E+01    0.161E+01
DAV:   2    -0.135211033794E+04   -0.19570E+02   -0.23437E+02  2536   0.325E+01    0.143E+01
DAV:   3    -0.135234742297E+04   -0.23709E+00   -0.16553E+01  2592   0.987E+00    0.114E+01
DAV:   4    -0.135148708980E+04    0.86033E+00   -0.73016E+00  2304   0.489E+00    0.613E+00
DAV:   5    -0.135146036842E+04    0.26721E-01   -0.29491E+00  2296   0.368E+00    0.482E+00
DAV:   6    -0.135111358668E+04    0.34678E+00   -0.33698E+00  2416   0.334E+00    0.163E+00
DAV:   7    -0.135114939904E+04   -0.35812E-01   -0.86961E-01  2480   0.184E+00    0.874E-01
DAV:   8    -0.135114951810E+04   -0.11906E-03   -0.13192E-01  2616   0.748E-01    0.432E-01
DAV:   9    -0.135115053969E+04   -0.10216E-02   -0.39421E-02  2600   0.393E-01    0.331E-01
DAV:  10    -0.135115020848E+04    0.33121E-03   -0.99629E-03  2264   0.222E-01    0.185E-01
DAV:  11    -0.135115018163E+04    0.26849E-04   -0.76903E-03  2408   0.153E-01    0.905E-02
DAV:  12    -0.135115022772E+04   -0.46095E-04   -0.15592E-03  2528   0.837E-02    0.518E-02
DAV:  13    -0.135115024225E+04   -0.14524E-04   -0.77000E-04  2520   0.510E-02    0.238E-02
DAV:  14    -0.135115025025E+04   -0.80070E-05   -0.18646E-04  2552   0.303E-02    0.158E-02
DAV:  15    -0.135115025445E+04   -0.41982E-05   -0.85080E-05  2568   0.162E-02    0.842E-03
DAV:  16    -0.135115025563E+04   -0.11737E-05   -0.17871E-05  2344   0.903E-03    0.596E-03
DAV:  17    -0.135115025535E+04    0.27387E-06   -0.29266E-06  1128   0.548E-03
   3 F= -.13511503E+04 E0= -.13511503E+04  d E =-.746799E+01
 BRION: g(F)=  0.876E+01 g(S)=  0.000E+00 retain N=  2 mean eig= 1.13
 eig:   0.426  1.833
 bond charge predicted
       N       E                     dE             d eps       ncg     rms          rms(c)
DAV:   1    -0.135204162172E+04   -0.89137E+00   -0.40663E+02  1360   0.270E+01    0.575E+00
DAV:   2    -0.135419482112E+04   -0.21532E+01   -0.23953E+01  2344   0.106E+01    0.283E+00
DAV:   3    -0.135417776567E+04    0.17055E-01   -0.15708E+00  2584   0.284E+00    0.217E+00
DAV:   4    -0.135410721227E+04    0.70553E-01   -0.55314E-01  2376   0.144E+00    0.102E+00
DAV:   5    -0.135410629747E+04    0.91480E-03   -0.16708E-01  2472   0.835E-01    0.798E-01
DAV:   6    -0.135410129469E+04    0.50028E-02   -0.11550E-01  2472   0.599E-01    0.349E-01
DAV:   7    -0.135410128260E+04    0.12087E-04   -0.27214E-02  2440   0.326E-01    0.284E-01
DAV:   8    -0.135410111933E+04    0.16327E-03   -0.10204E-02  2480   0.173E-01    0.183E-01
DAV:   9    -0.135410076185E+04    0.35747E-03   -0.43501E-03  2504   0.116E-01    0.791E-02
DAV:  10    -0.135410093223E+04   -0.17038E-03   -0.23916E-03  2528   0.830E-02    0.880E-02
DAV:  11    -0.135410081402E+04    0.11821E-03   -0.57684E-04  2536   0.544E-02    0.383E-02
DAV:  12    -0.135410082650E+04   -0.12479E-04   -0.43339E-04  2520   0.345E-02    0.206E-02
DAV:  13    -0.135410083140E+04   -0.49034E-05   -0.58877E-05  2576   0.167E-02    0.166E-02
DAV:  14    -0.135410082840E+04    0.30037E-05   -0.17890E-05  2288   0.846E-03    0.850E-03
DAV:  15    -0.135410082860E+04   -0.19831E-06   -0.12630E-05  1888   0.679E-03    0.189E-03
DAV:  16    -0.135410082864E+04   -0.42972E-07   -0.97292E-07   992   0.365E-03
   4 F= -.13541008E+04 E0= -.13541008E+04  d E =-.295057E+01
 BRION: g(F)=  0.298E+01 g(S)=  0.000E+00 retain N=  3 mean eig= 1.62
 eig:   4.205  0.381  0.264
 bond charge predicted
       N       E                     dE             d eps       ncg     rms          rms(c)
DAV:   1    -0.135508430275E+04   -0.98347E+00   -0.18200E+02  1384   0.192E+01    0.324E+00
DAV:   2    -0.135597043758E+04   -0.88613E+00   -0.96375E+00  2296   0.720E+00    0.159E+00
DAV:   3    -0.135598839440E+04   -0.17957E-01   -0.72224E-01  2608   0.154E+00    0.131E+00
DAV:   4    -0.135595617925E+04    0.32215E-01   -0.19010E-01  2528   0.898E-01    0.634E-01
DAV:   5    -0.135595217508E+04    0.40042E-02   -0.60222E-02  2472   0.528E-01    0.432E-01
DAV:   6    -0.135595144797E+04    0.72710E-03   -0.44546E-02  2608   0.392E-01    0.215E-01
DAV:   7    -0.135595146609E+04   -0.18120E-04   -0.12460E-02  2248   0.212E-01    0.185E-01
DAV:   8    -0.135595142117E+04    0.44923E-04   -0.43739E-03  2368   0.111E-01    0.107E-01
DAV:   9    -0.135595130522E+04    0.11595E-03   -0.16884E-03  2624   0.753E-02    0.566E-02
DAV:  10    -0.135595134477E+04   -0.39551E-04   -0.87376E-04  2536   0.551E-02    0.590E-02
DAV:  11    -0.135595131110E+04    0.33675E-04   -0.29488E-04  2544   0.346E-02    0.251E-02
DAV:  12    -0.135595131499E+04   -0.38967E-05   -0.14261E-04  2520   0.205E-02    0.133E-02
DAV:  13    -0.135595131562E+04   -0.62544E-06   -0.19302E-05  2136   0.104E-02    0.787E-03
DAV:  14    -0.135595131570E+04   -0.85478E-07   -0.77781E-06  1632   0.561E-03
   5 F= -.13559513E+04 E0= -.13559513E+04  d E =-.185049E+01
 BRION: g(F)=  0.129E+01 g(S)=  0.000E+00 retain N=  4 mean eig= 1.66
 eig:   2.678  2.678  0.632  0.632
 bond charge predicted
       N       E                     dE             d eps       ncg     rms          rms(c)
DAV:   1    -0.135655655795E+04   -0.60524E+00   -0.15950E+02  1368   0.181E+01    0.243E+00
DAV:   2    -0.135734735137E+04   -0.79079E+00   -0.83464E+00  2288   0.666E+00    0.125E+00
DAV:   3    -0.135738090876E+04   -0.33557E-01   -0.61367E-01  2584   0.138E+00    0.101E+00
DAV:   4    -0.135736343396E+04    0.17475E-01   -0.95679E-02  2584   0.681E-01    0.583E-01
DAV:   5    -0.135735773060E+04    0.57034E-02   -0.42331E-02  2488   0.414E-01    0.277E-01
DAV:   6    -0.135735837605E+04   -0.64545E-03   -0.18529E-02  2600   0.270E-01    0.195E-01
DAV:   7    -0.135735821634E+04    0.15971E-03   -0.74068E-03  2496   0.168E-01    0.122E-01
DAV:   8    -0.135735829139E+04   -0.75054E-04   -0.28177E-03  2544   0.968E-02    0.717E-02
DAV:   9    -0.135735824528E+04    0.46113E-04   -0.52278E-04  2592   0.507E-02    0.484E-02
DAV:  10    -0.135735827225E+04   -0.26970E-04   -0.58375E-04  2312   0.400E-02    0.384E-02
DAV:  11    -0.135735825289E+04    0.19359E-04   -0.18549E-04  2528   0.301E-02    0.128E-02
DAV:  12    -0.135735825968E+04   -0.67879E-05   -0.90676E-05  2376   0.174E-02    0.142E-02
DAV:  13    -0.135735825733E+04    0.23458E-05   -0.24405E-05  2152   0.103E-02    0.603E-03
DAV:  14    -0.135735825746E+04   -0.13021E-06   -0.78429E-06  1632   0.621E-03
   6 F= -.13573583E+04 E0= -.13573583E+04  d E =-.140694E+01
 BRION: g(F)=  0.944E+00 g(S)=  0.000E+00 retain N=  5 mean eig= 1.80
 eig:   3.358  3.358  0.824  0.824  0.630
 bond charge predicted
       N       E                     dE             d eps       ncg     rms          rms(c)
DAV:   1    -0.135788066234E+04   -0.52241E+00   -0.99015E+01  1368   0.142E+01    0.186E+00
DAV:   2    -0.135837270806E+04   -0.49205E+00   -0.52169E+00  2296   0.537E+00    0.973E-01
DAV:   3    -0.135839611784E+04   -0.23410E-01   -0.40046E-01  2616   0.109E+00    0.771E-01
DAV:   4    -0.135838602062E+04    0.10097E-01   -0.55606E-02  2560   0.536E-01    0.445E-01
DAV:   5    -0.135838313547E+04    0.28851E-02   -0.24005E-02  2448   0.313E-01    0.197E-01
DAV:   6    -0.135838362245E+04   -0.48698E-03   -0.10085E-02  2600   0.194E-01    0.134E-01
DAV:   7    -0.135838358235E+04    0.40107E-04   -0.32397E-03  2504   0.116E-01    0.902E-02
DAV:   8    -0.135838361563E+04   -0.33284E-04   -0.16240E-03  2560   0.717E-02    0.569E-02
DAV:   9    -0.135838358636E+04    0.29266E-04   -0.27989E-04  2576   0.387E-02    0.383E-02
DAV:  10    -0.135838359199E+04   -0.56275E-05   -0.32062E-04  2392   0.307E-02    0.255E-02
DAV:  11    -0.135838358713E+04    0.48618E-05   -0.85683E-05  2464   0.210E-02    0.100E-02
DAV:  12    -0.135838359022E+04   -0.30908E-05   -0.42029E-05  2296   0.116E-02    0.101E-02
DAV:  13    -0.135838358881E+04    0.14059E-05   -0.90635E-06  1552   0.734E-03    0.407E-03
DAV:  14    -0.135838358898E+04   -0.16303E-06   -0.43737E-06  1208   0.612E-03
   7 F= -.13583836E+04 E0= -.13583836E+04  d E =-.102533E+01
 BRION: g(F)=  0.667E+00 g(S)=  0.000E+00 retain N=  6 mean eig= 2.06
 eig:   4.291  4.291  1.213  1.213  0.672  0.672
 bond charge predicted
       N       E                     dE             d eps       ncg     rms          rms(c)
DAV:   1    -0.135883313764E+04   -0.44955E+00   -0.39257E+01  1376   0.894E+00    0.121E+00
DAV:   2    -0.135903886554E+04   -0.20573E+00   -0.22009E+00  2304   0.354E+00    0.606E-01
DAV:   3    -0.135904869932E+04   -0.98338E-02   -0.16997E-01  2600   0.707E-01    0.496E-01
DAV:   4    -0.135904473582E+04    0.39635E-02   -0.21927E-02  2584   0.343E-01    0.306E-01
DAV:   5    -0.135904295946E+04    0.17764E-02   -0.11830E-02  2312   0.207E-01    0.131E-01
DAV:   6    -0.135904323107E+04   -0.27161E-03   -0.49884E-03  2560   0.137E-01    0.112E-01
DAV:   7    -0.135904317076E+04    0.60313E-04   -0.23239E-03  2544   0.892E-02    0.699E-02
DAV:   8    -0.135904316290E+04    0.78627E-05   -0.83266E-04  2608   0.557E-02    0.402E-02
DAV:   9    -0.135904315544E+04    0.74577E-05   -0.13745E-04  2520   0.259E-02    0.287E-02
DAV:  10    -0.135904315976E+04   -0.43235E-05   -0.13792E-04  2264   0.199E-02    0.181E-02
DAV:  11    -0.135904315674E+04    0.30257E-05   -0.36693E-05  2296   0.145E-02    0.801E-03
DAV:  12    -0.135904315853E+04   -0.17932E-05   -0.29434E-05  2176   0.947E-03    0.818E-03
DAV:  13    -0.135904315727E+04    0.12552E-05   -0.29285E-06  1096   0.600E-03    0.463E-03
DAV:  14    -0.135904315856E+04   -0.12868E-05   -0.19752E-05  1632   0.786E-03    0.607E-03
DAV:  15    -0.135904315789E+04    0.66996E-06   -0.12217E-06   976   0.502E-03
   8 F= -.13590432E+04 E0= -.13590432E+04  d E =-.659569E+00
 BRION: g(F)=  0.514E+00 g(S)=  0.000E+00 retain N=  7 mean eig= 2.40
 eig:   5.121  5.121  2.201  2.201  0.744  0.744  0.645
 bond charge predicted
       N       E                     dE             d eps       ncg     rms          rms(c)
DAV:   1    -0.135957582963E+04   -0.53267E+00   -0.77106E+01  1400   0.126E+01    0.156E+00
DAV:   2    -0.135999019270E+04   -0.41436E+00   -0.44001E+00  2296   0.512E+00    0.785E-01
DAV:   3    -0.136001374193E+04   -0.23549E-01   -0.34634E-01  2592   0.994E-01    0.641E-01
DAV:   4    -0.136000787116E+04    0.58708E-02   -0.37269E-02  2608   0.464E-01    0.437E-01
DAV:   5    -0.136000318307E+04    0.46881E-02   -0.19218E-02  2328   0.285E-01    0.170E-01
DAV:   6    -0.136000383724E+04   -0.65417E-03   -0.12402E-02  2472   0.211E-01    0.154E-01
DAV:   7    -0.136000374117E+04    0.96076E-04   -0.47747E-03  2448   0.132E-01    0.112E-01
DAV:   8    -0.136000369361E+04    0.47564E-04   -0.22550E-03  2600   0.867E-02    0.566E-02
DAV:   9    -0.136000367392E+04    0.19686E-04   -0.38801E-04  2408   0.427E-02    0.410E-02
DAV:  10    -0.136000367486E+04   -0.93628E-06   -0.18047E-04  2480   0.253E-02    0.240E-02
DAV:  11    -0.136000367481E+04    0.49025E-07   -0.66126E-05  2488   0.177E-02    0.125E-02
DAV:  12    -0.136000367586E+04   -0.10507E-05   -0.31473E-05  2352   0.118E-02    0.116E-02
DAV:  13    -0.136000367467E+04    0.11864E-05   -0.16561E-05  1784   0.769E-03    0.572E-03
DAV:  14    -0.136000367460E+04    0.75917E-07   -0.49156E-06  1344   0.570E-03
   9 F= -.13600037E+04 E0= -.13600037E+04  d E =-.960517E+00
 BRION: g(F)=  0.427E+00 g(S)=  0.000E+00 retain N=  8 mean eig= 2.82
 eig:   4.475  4.475  4.837  4.837  1.156  1.156  0.699  0.897
 bond charge predicted
       N       E                     dE             d eps       ncg     rms          rms(c)
DAV:   1    -0.136055181286E+04   -0.54814E+00   -0.83673E+01  1384   0.131E+01    0.162E+00
DAV:   2    -0.136101539132E+04   -0.46358E+00   -0.49449E+00  2296   0.548E+00    0.821E-01
DAV:   3    -0.136104183685E+04   -0.26446E-01   -0.39562E-01  2592   0.107E+00    0.672E-01
DAV:   4    -0.136103504678E+04    0.67901E-02   -0.41154E-02  2584   0.492E-01    0.462E-01
DAV:   5    -0.136102954154E+04    0.55052E-02   -0.21964E-02  2360   0.296E-01    0.182E-01
DAV:   6    -0.136103010994E+04   -0.56840E-03   -0.13296E-02  2472   0.212E-01    0.153E-01
DAV:   7    -0.136103005624E+04    0.53702E-04   -0.51382E-03  2480   0.138E-01    0.110E-01
DAV:   8    -0.136103002406E+04    0.32175E-04   -0.24014E-03  2592   0.910E-02    0.612E-02
DAV:   9    -0.136103000286E+04    0.21204E-04   -0.44563E-04  2472   0.453E-02    0.442E-02
DAV:  10    -0.136103000415E+04   -0.12933E-05   -0.20033E-04  2544   0.266E-02    0.253E-02
DAV:  11    -0.136103000480E+04   -0.64938E-06   -0.75780E-05  2464   0.185E-02    0.137E-02
DAV:  12    -0.136103000510E+04   -0.29903E-06   -0.32917E-05  2360   0.128E-02    0.117E-02
DAV:  13    -0.136103000444E+04    0.65882E-06   -0.22804E-05  2072   0.853E-03    0.625E-03
DAV:  14    -0.136103000413E+04    0.31562E-06   -0.31440E-06  1120   0.559E-03
  10 F= -.13610300E+04 E0= -.13610300E+04  d E =-.102633E+01
 BRION: g(F)=  0.376E+00 g(S)=  0.000E+00 retain N=  9 mean eig= 3.37
 eig:   6.697  6.697  4.536  4.536  2.688  2.688  0.742  0.892  0.892
 bond charge predicted
       N       E                     dE             d eps       ncg     rms          rms(c)
DAV:   1    -0.136154266405E+04   -0.51266E+00   -0.75351E+01  1376   0.124E+01    0.152E+00
DAV:   2    -0.136195710152E+04   -0.41444E+00   -0.44284E+00  2304   0.518E+00    0.775E-01
DAV:   3    -0.136198178024E+04   -0.24679E-01   -0.36192E-01  2600   0.100E+00    0.639E-01
DAV:   4    -0.136197617909E+04    0.56011E-02   -0.35189E-02  2608   0.456E-01    0.451E-01
DAV:   5    -0.136197064861E+04    0.55305E-02   -0.18895E-02  2312   0.278E-01    0.182E-01
DAV:   6    -0.136197106304E+04   -0.41443E-03   -0.13329E-02  2416   0.211E-01    0.152E-01
DAV:   7    -0.136197097560E+04    0.87440E-04   -0.53710E-03  2424   0.139E-01    0.112E-01
DAV:   8    -0.136197094840E+04    0.27203E-04   -0.24316E-03  2600   0.917E-02    0.632E-02
DAV:   9    -0.136197091904E+04    0.29357E-04   -0.50198E-04  2472   0.462E-02    0.426E-02
DAV:  10    -0.136197092268E+04   -0.36396E-05   -0.18449E-04  2496   0.254E-02    0.254E-02
DAV:  11    -0.136197092446E+04   -0.17827E-05   -0.71561E-05  2464   0.178E-02    0.163E-02
DAV:  12    -0.136197092292E+04    0.15471E-05   -0.37711E-05  2360   0.137E-02    0.129E-02
DAV:  13    -0.136197092237E+04    0.54855E-06   -0.29483E-05  2216   0.946E-03    0.696E-03
DAV:  14    -0.136197092211E+04    0.25997E-06   -0.51715E-06  1392   0.559E-03
  11 F= -.13619709E+04 E0= -.13619709E+04  d E =-.940918E+00
 BRION: g(F)=  0.332E+00 g(S)=  0.000E+00 retain N=  6 mean eig= 3.85
 eig:   6.949  6.949  3.208  3.208  1.392  1.392
 bond charge predicted
       N       E                     dE             d eps       ncg     rms          rms(c)
DAV:   1    -0.136240787902E+04   -0.43696E+00   -0.66129E+01  1376   0.116E+01    0.137E+00
DAV:   2    -0.136275717543E+04   -0.34930E+00   -0.37091E+00  2304   0.468E+00    0.709E-01
DAV:   3    -0.136277703303E+04   -0.19858E-01   -0.30109E-01  2592   0.915E-01    0.567E-01
DAV:   4    -0.136277148540E+04    0.55476E-02   -0.29526E-02  2584   0.414E-01    0.394E-01
DAV:   5    -0.136276665231E+04    0.48331E-02   -0.16267E-02  2320   0.263E-01    0.155E-01
DAV:   6    -0.136276698794E+04   -0.33563E-03   -0.10950E-02  2432   0.194E-01    0.129E-01
DAV:   7    -0.136276697498E+04    0.12968E-04   -0.38872E-03  2424   0.119E-01    0.961E-02
DAV:   8    -0.136276694619E+04    0.28786E-04   -0.16434E-03  2600   0.750E-02    0.499E-02
DAV:   9    -0.136276692607E+04    0.20123E-04   -0.35541E-04  2400   0.398E-02    0.350E-02
DAV:  10    -0.136276692856E+04   -0.24960E-05   -0.14496E-04  2408   0.232E-02    0.218E-02
DAV:  11    -0.136276692723E+04    0.13356E-05   -0.57881E-05  2408   0.162E-02    0.102E-02
DAV:  12    -0.136276692888E+04   -0.16547E-05   -0.26592E-05  2376   0.109E-02    0.106E-02
DAV:  13    -0.136276692774E+04    0.11395E-05   -0.12136E-05  1688   0.700E-03    0.532E-03
DAV:  14    -0.136276692774E+04    0.81200E-08   -0.59537E-06  1504   0.581E-03
  12 F= -.13627669E+04 E0= -.13627669E+04  d E =-.796006E+00
 BRION: g(F)=  0.300E+00 g(S)=  0.000E+00 retain N=  3 mean eig= 4.73
 eig:   5.920  5.920  2.341
 bond charge predicted
       N       E                     dE             d eps       ncg     rms          rms(c)
DAV:   1    -0.136315851642E+04   -0.39159E+00   -0.44311E+01  1376   0.945E+00    0.113E+00
DAV:   2    -0.136339364675E+04   -0.23513E+00   -0.25067E+00  2312   0.383E+00    0.590E-01
DAV:   3    -0.136340802614E+04   -0.14379E-01   -0.21034E-01  2592   0.751E-01    0.481E-01
DAV:   4    -0.136340476118E+04    0.32650E-02   -0.20855E-02  2600   0.345E-01    0.331E-01
DAV:   5    -0.136340188655E+04    0.28746E-02   -0.10336E-02  2368   0.203E-01    0.139E-01
DAV:   6    -0.136340198275E+04   -0.96201E-04   -0.65438E-03  2400   0.153E-01    0.105E-01
DAV:   7    -0.136340197826E+04    0.44859E-05   -0.30713E-03  2448   0.106E-01    0.803E-02
DAV:   8    -0.136340196870E+04    0.95566E-05   -0.12475E-03  2576   0.672E-02    0.506E-02
DAV:   9    -0.136340195158E+04    0.17121E-04   -0.28997E-04  2544   0.347E-02    0.337E-02
DAV:  10    -0.136340195248E+04   -0.89424E-06   -0.11588E-04  2560   0.198E-02    0.202E-02
DAV:  11    -0.136340195396E+04   -0.14819E-05   -0.38459E-05  2392   0.135E-02    0.135E-02
DAV:  12    -0.136340195232E+04    0.16348E-05   -0.24911E-05  2248   0.110E-02    0.986E-03
DAV:  13    -0.136340195208E+04    0.24286E-06   -0.16853E-05  1960   0.763E-03    0.526E-03
DAV:  14    -0.136340195179E+04    0.29501E-06   -0.20760E-06  1000   0.507E-03
  13 F= -.13634020E+04 E0= -.13634020E+04  d E =-.635024E+00
 BRION: g(F)=  0.280E+00 g(S)=  0.000E+00 retain N=  3 mean eig= 4.18
 eig:   5.422  5.422  1.702
 bond charge predicted
       N       E                     dE             d eps       ncg     rms          rms(c)
DAV:   1    -0.136373395962E+04   -0.33201E+00   -0.47185E+01  1368   0.975E+00    0.114E+00
DAV:   2    -0.136397764058E+04   -0.24368E+00   -0.25768E+00  2288   0.385E+00    0.592E-01
DAV:   3    -0.136399181078E+04   -0.14170E-01   -0.21126E-01  2592   0.770E-01    0.464E-01
DAV:   4    -0.136398798390E+04    0.38269E-02   -0.20749E-02  2576   0.343E-01    0.315E-01
DAV:   5    -0.136398508554E+04    0.28984E-02   -0.10002E-02  2360   0.206E-01    0.126E-01
DAV:   6    -0.136398520595E+04   -0.12041E-03   -0.62257E-03  2432   0.148E-01    0.903E-02
DAV:   7    -0.136398524549E+04   -0.39546E-04   -0.23442E-03  2432   0.932E-02    0.696E-02
DAV:   8    -0.136398523560E+04    0.98971E-05   -0.86697E-04  2608   0.562E-02    0.405E-02
DAV:   9    -0.136398522584E+04    0.97592E-05   -0.22608E-04  2568   0.309E-02    0.270E-02
DAV:  10    -0.136398522764E+04   -0.17984E-05   -0.99020E-05  2552   0.193E-02    0.176E-02
DAV:  11    -0.136398522668E+04    0.95053E-06   -0.40754E-05  2344   0.136E-02    0.802E-03
DAV:  12    -0.136398522730E+04   -0.61769E-06   -0.15795E-05  1912   0.916E-03    0.773E-03
DAV:  13    -0.136398522678E+04    0.52465E-06   -0.73210E-06  1472   0.607E-03
  14 F= -.13639852E+04 E0= -.13639852E+04  d E =-.583275E+00
 BRION: g(F)=  0.244E+00 g(S)=  0.000E+00 retain N=  3 mean eig= 4.37
 eig:   5.827  5.827  1.468
 bond charge predicted
       N       E                     dE             d eps       ncg     rms          rms(c)
DAV:   1    -0.136426543903E+04   -0.28021E+00   -0.37323E+01  1360   0.867E+00    0.101E+00
DAV:   2    -0.136445454438E+04   -0.18911E+00   -0.19994E+00  2296   0.335E+00    0.516E-01
DAV:   3    -0.136446582050E+04   -0.11276E-01   -0.16470E-01  2584   0.674E-01    0.412E-01
DAV:   4    -0.136446318342E+04    0.26371E-02   -0.16014E-02  2576   0.299E-01    0.287E-01
DAV:   5    -0.136446077035E+04    0.24131E-02   -0.82742E-03  2376   0.183E-01    0.117E-01
DAV:   6    -0.136446085752E+04   -0.87171E-04   -0.52545E-03  2408   0.137E-01    0.887E-02
DAV:   7    -0.136446087818E+04   -0.20658E-04   -0.21565E-03  2464   0.881E-02    0.657E-02
DAV:   8    -0.136446086520E+04    0.12976E-04   -0.77769E-04  2584   0.537E-02    0.378E-02
DAV:   9    -0.136446085842E+04    0.67762E-05   -0.18902E-04  2512   0.283E-02    0.260E-02
DAV:  10    -0.136446085978E+04   -0.13581E-05   -0.79174E-05  2552   0.168E-02    0.164E-02
DAV:  11    -0.136446085945E+04    0.33480E-06   -0.33449E-05  2352   0.123E-02    0.848E-03
DAV:  12    -0.136446085957E+04   -0.12410E-06   -0.13736E-05  1832   0.864E-03    0.768E-03
DAV:  13    -0.136446085922E+04    0.35620E-06   -0.89238E-06  1648   0.607E-03
  15 F= -.13644609E+04 E0= -.13644609E+04  d E =-.475632E+00
 BRION: g(F)=  0.217E+00 g(S)=  0.000E+00 retain N=  3 mean eig= 4.07
 eig:   5.420  5.420  1.368
 bond charge predicted
       N       E                     dE             d eps       ncg     rms          rms(c)
DAV:   1    -0.136470322536E+04   -0.24237E+00   -0.59668E+01  1360   0.110E+01    0.126E+00
DAV:   2    -0.136500589631E+04   -0.30267E+00   -0.31940E+00  2288   0.426E+00    0.648E-01
DAV:   3    -0.136502456237E+04   -0.18666E-01   -0.26354E-01  2600   0.849E-01    0.524E-01
DAV:   4    -0.136502094703E+04    0.36153E-02   -0.24419E-02  2608   0.369E-01    0.373E-01
DAV:   5    -0.136501700904E+04    0.39380E-02   -0.11982E-02  2368   0.220E-01    0.158E-01
DAV:   6    -0.136501706512E+04   -0.56083E-04   -0.86024E-03  2336   0.171E-01    0.112E-01
DAV:   7    -0.136501708471E+04   -0.19591E-04   -0.37670E-03  2440   0.116E-01    0.876E-02
DAV:   8    -0.136501705635E+04    0.28360E-04   -0.13367E-03  2568   0.714E-02    0.546E-02
DAV:   9    -0.136501703782E+04    0.18537E-04   -0.37175E-04  2544   0.377E-02    0.335E-02
DAV:  10    -0.136501704169E+04   -0.38760E-05   -0.11359E-04  2568   0.206E-02    0.211E-02
DAV:  11    -0.136501704220E+04   -0.50379E-06   -0.37732E-05  2424   0.133E-02    0.134E-02
DAV:  12    -0.136501704119E+04    0.10063E-05   -0.30220E-05  2288   0.112E-02    0.102E-02
DAV:  13    -0.136501704072E+04    0.47598E-06   -0.14807E-05  1824   0.762E-03    0.593E-03
DAV:  14    -0.136501704054E+04    0.17771E-06   -0.53327E-06  1440   0.557E-03
  16 F= -.13650170E+04 E0= -.13650170E+04  d E =-.556181E+00
 BRION: g(F)=  0.191E+00 g(S)=  0.000E+00 retain N=  3 mean eig= 4.84
 eig:   6.484  6.484  1.565
 bond charge predicted
       N       E                     dE             d eps       ncg     rms          rms(c)
DAV:   1    -0.136519385335E+04   -0.17681E+00   -0.70687E+01  1368   0.119E+01    0.137E+00
DAV:   2    -0.136554968975E+04   -0.35584E+00   -0.37517E+00  2312   0.459E+00    0.704E-01
DAV:   3    -0.136557047962E+04   -0.20790E-01   -0.30298E-01  2600   0.899E-01    0.566E-01
DAV:   4    -0.136556575101E+04    0.47286E-02   -0.28901E-02  2600   0.401E-01    0.399E-01
DAV:   5    -0.136556092007E+04    0.48309E-02   -0.14492E-02  2328   0.245E-01    0.167E-01
DAV:   6    -0.136556100233E+04   -0.82257E-04   -0.10423E-02  2352   0.192E-01    0.122E-01
DAV:   7    -0.136556104524E+04   -0.42914E-04   -0.44112E-03  2440   0.124E-01    0.952E-02
DAV:   8    -0.136556100409E+04    0.41154E-04   -0.14878E-03  2592   0.752E-02    0.526E-02
DAV:   9    -0.136556098921E+04    0.14878E-04   -0.44420E-04  2512   0.412E-02    0.341E-02
DAV:  10    -0.136556099593E+04   -0.67219E-05   -0.13630E-04  2528   0.230E-02    0.255E-02
DAV:  11    -0.136556099293E+04    0.30079E-05   -0.76036E-05  2456   0.175E-02    0.137E-02
DAV:  12    -0.136556099308E+04   -0.15223E-06   -0.36761E-05  2312   0.130E-02    0.124E-02
DAV:  13    -0.136556099204E+04    0.10400E-05   -0.20017E-05  1960   0.822E-03    0.690E-03
DAV:  14    -0.136556099176E+04    0.28044E-06   -0.74788E-06  1696   0.596E-03
  17 F= -.13655610E+04 E0= -.13655610E+04  d E =-.543951E+00
 BRION: g(F)=  0.166E+00 g(S)=  0.000E+00 retain N=  3 mean eig= 5.59
 eig:   7.411  7.411  1.963
 bond charge predicted
       N       E                     dE             d eps       ncg     rms          rms(c)
DAV:   1    -0.136573361755E+04   -0.17263E+00   -0.36354E+01  1368   0.852E+00    0.995E-01
DAV:   2    -0.136591732974E+04   -0.18371E+00   -0.19340E+00  2288   0.329E+00    0.507E-01
DAV:   3    -0.136592777181E+04   -0.10442E-01   -0.15370E-01  2584   0.660E-01    0.408E-01
DAV:   4    -0.136592531964E+04    0.24522E-02   -0.15517E-02  2608   0.287E-01    0.283E-01
DAV:   5    -0.136592304342E+04    0.22762E-02   -0.75269E-03  2360   0.174E-01    0.117E-01
DAV:   6    -0.136592313466E+04   -0.91247E-04   -0.48358E-03  2384   0.128E-01    0.868E-02
DAV:   7    -0.136592312515E+04    0.95187E-05   -0.19202E-03  2424   0.840E-02    0.637E-02
DAV:   8    -0.136592311856E+04    0.65878E-05   -0.79800E-04  2568   0.528E-02    0.400E-02
DAV:   9    -0.136592310955E+04    0.90056E-05   -0.18414E-04  2512   0.275E-02    0.266E-02
DAV:  10    -0.136592311005E+04   -0.49574E-06   -0.73651E-05  2544   0.160E-02    0.162E-02
DAV:  11    -0.136592311008E+04   -0.32785E-07   -0.24477E-05  2304   0.108E-02    0.940E-03
DAV:  12    -0.136592310960E+04    0.47784E-06   -0.14640E-05  1864   0.833E-03    0.703E-03
DAV:  13    -0.136592310952E+04    0.85260E-07   -0.92973E-06  1728   0.618E-03
  18 F= -.13659231E+04 E0= -.13659231E+04  d E =-.362118E+00
 BRION: g(F)=  0.150E+00 g(S)=  0.000E+00 retain N=  3 mean eig= 5.79
 eig:   7.683  7.683  2.009
 bond charge predicted
       N       E                     dE             d eps       ncg     rms          rms(c)
DAV:   1    -0.136606863571E+04   -0.14553E+00   -0.40636E+01  1360   0.900E+00    0.106E+00
DAV:   2    -0.136627484164E+04   -0.20621E+00   -0.21709E+00  2296   0.349E+00    0.540E-01
DAV:   3    -0.136628609115E+04   -0.11250E-01   -0.16885E-01  2576   0.690E-01    0.433E-01
DAV:   4    -0.136628317234E+04    0.29188E-02   -0.17678E-02  2600   0.302E-01    0.298E-01
DAV:   5    -0.136628056293E+04    0.26094E-02   -0.85057E-03  2328   0.188E-01    0.120E-01
DAV:   6    -0.136628070485E+04   -0.14192E-03   -0.55265E-03  2408   0.135E-01    0.933E-02
DAV:   7    -0.136628068832E+04    0.16529E-04   -0.20243E-03  2392   0.862E-02    0.679E-02
DAV:   8    -0.136628067673E+04    0.11593E-04   -0.88834E-04  2568   0.549E-02    0.394E-02
DAV:   9    -0.136628066944E+04    0.72832E-05   -0.19920E-04  2480   0.289E-02    0.269E-02
DAV:  10    -0.136628067016E+04   -0.71271E-06   -0.82421E-05  2504   0.171E-02    0.171E-02
DAV:  11    -0.136628066954E+04    0.61990E-06   -0.31908E-05  2344   0.120E-02    0.876E-03
DAV:  12    -0.136628066962E+04   -0.87370E-07   -0.16147E-05  1984   0.867E-03    0.744E-03
DAV:  13    -0.136628066927E+04    0.35505E-06   -0.81461E-06  1600   0.609E-03
  19 F= -.13662807E+04 E0= -.13662807E+04  d E =-.357560E+00
 BRION: g(F)=  0.133E+00 g(S)=  0.000E+00 retain N=  2 mean eig= 3.54
 eig:   3.537  3.537
 bond charge predicted
       N       E                     dE             d eps       ncg     rms          rms(c)
DAV:   1    -0.136637430172E+04   -0.93632E-01   -0.55770E+01  1368   0.105E+01    0.125E+00
DAV:   2    -0.136665714580E+04   -0.28284E+00   -0.29869E+00  2296   0.407E+00    0.635E-01
DAV:   3    -0.136667302818E+04   -0.15882E-01   -0.23986E-01  2584   0.814E-01    0.524E-01
DAV:   4    -0.136666920956E+04    0.38186E-02   -0.23996E-02  2592   0.357E-01    0.371E-01
DAV:   5    -0.136666492609E+04    0.42835E-02   -0.12236E-02  2312   0.226E-01    0.158E-01
DAV:   6    -0.136666496018E+04   -0.34099E-04   -0.96296E-03  2288   0.182E-01    0.120E-01
DAV:   7    -0.136666498268E+04   -0.22498E-04   -0.39586E-03  2368   0.117E-01    0.957E-02
DAV:   8    -0.136666493462E+04    0.48060E-04   -0.14212E-03  2568   0.714E-02    0.537E-02
DAV:   9    -0.136666491470E+04    0.19925E-04   -0.44280E-04  2528   0.406E-02    0.321E-02
DAV:  10    -0.136666492300E+04   -0.82997E-05   -0.14559E-04  2568   0.231E-02    0.244E-02
DAV:  11    -0.136666492112E+04    0.18768E-05   -0.63843E-05  2448   0.169E-02    0.155E-02
DAV:  12    -0.136666492024E+04    0.88559E-06   -0.39288E-05  2272   0.130E-02    0.135E-02
DAV:  13    -0.136666491880E+04    0.14330E-05   -0.22970E-05  2024   0.873E-03    0.677E-03
DAV:  14    -0.136666491845E+04    0.34808E-06   -0.53306E-06  1408   0.555E-03
  20 F= -.13666649E+04 E0= -.13666649E+04  d E =-.384249E+00
 BRION: g(F)=  0.115E+00 g(S)=  0.000E+00 retain N=  3 mean eig= 5.36
 eig:   7.220  7.220  1.633
