 running on  160 total cores
 distrk:  each k-point on  160 cores,    1 groups
 distr:  one band on   20 cores,    8 groups
 using from now: INCAR     
 vasp.5.4.4.18Apr17-6-g9f103f2a35 (build May 01 2020 14:22:42) gamma-only       
  
 POSCAR found type information on POSCAR  O  La Zr Li Al
 POSCAR found :  5 types and     188 ions
 scaLAPACK will be used
 LDA part: xc-table for Pade appr. of Perdew
 POSCAR, INCAR and KPOINTS ok, starting setup
 FFT: planning ...
 WAVECAR not read
 WARNING: random wavefunctions but no delay for mixing, default for NELMDL
 entering main loop
       N       E                     dE             d eps       ncg     rms          rms(c)
DAV:   1     0.252365035907E+05    0.25237E+05   -0.42109E+05  1608   0.253E+03
DAV:   2     0.932688211581E+04   -0.15910E+05   -0.14701E+05  1424   0.702E+02
DAV:   3     0.258399038041E+04   -0.67429E+04   -0.61497E+04  1520   0.357E+02
DAV:   4    -0.402673022266E+03   -0.29867E+04   -0.27900E+04  2032   0.223E+02
DAV:   5    -0.141419111022E+04   -0.10115E+04   -0.97438E+03  2528   0.139E+02    0.117E+02
DAV:   6    -0.130181368671E+04    0.11238E+03   -0.14626E+03  2416   0.659E+01    0.502E+01
DAV:   7    -0.132407895159E+04   -0.22265E+02   -0.37931E+02  2568   0.341E+01    0.247E+01
DAV:   8    -0.133199232494E+04   -0.79134E+01   -0.24486E+02  2544   0.262E+01    0.251E+01
DAV:   9    -0.132607433992E+04    0.59180E+01   -0.51150E+01  2512   0.146E+01    0.788E+00
DAV:  10    -0.132698089984E+04   -0.90656E+00   -0.16501E+01  2616   0.807E+00    0.751E+00
DAV:  11    -0.132733315137E+04   -0.35225E+00   -0.62936E+00  2624   0.431E+00    0.437E+00
DAV:  12    -0.132714632529E+04    0.18683E+00   -0.25528E+00  2560   0.365E+00    0.292E+00
DAV:  13    -0.132721478966E+04   -0.68464E-01   -0.10766E+00  2560   0.184E+00    0.208E+00
DAV:  14    -0.132719631867E+04    0.18471E-01   -0.35272E-01  2560   0.122E+00    0.107E+00
DAV:  15    -0.132720550188E+04   -0.91832E-02   -0.10645E-01  2528   0.652E-01    0.952E-01
DAV:  16    -0.132720582388E+04   -0.32200E-03   -0.29674E-02  2624   0.337E-01    0.616E-01
DAV:  17    -0.132720364451E+04    0.21794E-02   -0.30923E-02  2376   0.330E-01    0.321E-01
DAV:  18    -0.132720416163E+04   -0.51712E-03   -0.65794E-03  2304   0.180E-01    0.147E-01
DAV:  19    -0.132720419514E+04   -0.33513E-04   -0.20648E-03  2624   0.943E-02    0.846E-02
DAV:  20    -0.132720424539E+04   -0.50247E-04   -0.55927E-04  2584   0.427E-02    0.354E-02
DAV:  21    -0.132720426863E+04   -0.23245E-04   -0.18585E-04  2624   0.247E-02    0.295E-02
DAV:  22    -0.132720428120E+04   -0.12564E-04   -0.60068E-05  2448   0.134E-02    0.142E-02
DAV:  23    -0.132720428149E+04   -0.28804E-06   -0.33019E-05  1912   0.104E-02    0.563E-03
DAV:  24    -0.132720428433E+04   -0.28386E-05   -0.13082E-05  1544   0.770E-03    0.221E-03
DAV:  25    -0.132720428555E+04   -0.12254E-05   -0.42256E-06  1016   0.529E-03    0.196E-03
DAV:  26    -0.132720428604E+04   -0.48942E-06   -0.23124E-06  1016   0.495E-03
   1 F= -.13272043E+04 E0= -.13272043E+04  d E =-.132720E+04
 BRION: g(F)=  0.577E+02 g(S)=  0.000E+00
 bond charge predicted
       N       E                     dE             d eps       ncg     rms          rms(c)
DAV:   1    -0.129294694116E+04    0.34257E+02   -0.74264E+03  1688   0.130E+02    0.267E+01
DAV:   2    -0.134862368324E+04   -0.55677E+02   -0.64581E+02  2568   0.572E+01    0.141E+01
DAV:   3    -0.134740765150E+04    0.12160E+01   -0.38082E+01  2624   0.159E+01    0.948E+00
DAV:   4    -0.134544272865E+04    0.19649E+01   -0.11716E+01  2472   0.717E+00    0.468E+00
DAV:   5    -0.134512507620E+04    0.31765E+00   -0.33117E+00  2568   0.423E+00    0.308E+00
DAV:   6    -0.134501351319E+04    0.11156E+00   -0.27515E+00  2592   0.309E+00    0.159E+00
DAV:   7    -0.134501551694E+04   -0.20038E-02   -0.59440E-01  2528   0.175E+00    0.119E+00
DAV:   8    -0.134501086919E+04    0.46478E-02   -0.30699E-01  2616   0.942E-01    0.603E-01
DAV:   9    -0.134501132500E+04   -0.45582E-03   -0.44102E-02  2608   0.507E-01    0.439E-01
DAV:  10    -0.134500875324E+04    0.25718E-02   -0.27810E-02  2592   0.349E-01    0.175E-01
DAV:  11    -0.134500991854E+04   -0.11653E-02   -0.13379E-02  2592   0.231E-01    0.162E-01
DAV:  12    -0.134500985225E+04    0.66287E-04   -0.21946E-03  2624   0.100E-01    0.913E-02
DAV:  13    -0.134500980401E+04    0.48238E-04   -0.19704E-03  2400   0.794E-02    0.299E-02
DAV:  14    -0.134500982367E+04   -0.19656E-04   -0.40747E-04  2472   0.484E-02    0.198E-02
DAV:  15    -0.134500983136E+04   -0.76865E-05   -0.90669E-05  2600   0.190E-02    0.979E-03
DAV:  16    -0.134500983245E+04   -0.10923E-05   -0.17090E-05  1856   0.914E-03    0.711E-03
DAV:  17    -0.134500983329E+04   -0.84436E-06   -0.15007E-05  1976   0.703E-03    0.426E-03
DAV:  18    -0.134500983334E+04   -0.51863E-07   -0.13378E-06  1016   0.459E-03
   2 F= -.13450098E+04 E0= -.13450098E+04  d E =-.178055E+02
 BRION: g(F)=  0.785E+02 g(S)=  0.000E+00 retain N=  1 mean eig= 0.44
 eig:   0.445
 bond charge predicted
       N       E                     dE             d eps       ncg     rms          rms(c)
DAV:   1    -0.133090661119E+04    0.14103E+02   -0.20622E+03  1328   0.589E+01    0.187E+01
DAV:   2    -0.135561886728E+04   -0.24712E+02   -0.31973E+02  2544   0.300E+01    0.167E+01
DAV:   3    -0.135297834480E+04    0.26405E+01   -0.32004E+01  2576   0.110E+01    0.120E+01
DAV:   4    -0.135093749556E+04    0.20408E+01   -0.24184E+01  2176   0.566E+00    0.481E+00
DAV:   5    -0.135140904457E+04   -0.47155E+00   -0.57533E+00  2456   0.358E+00    0.601E+00
DAV:   6    -0.135078101919E+04    0.62803E+00   -0.63671E+00  2520   0.305E+00    0.135E+00
DAV:   7    -0.135084314539E+04   -0.62126E-01   -0.89623E-01  2392   0.202E+00    0.143E+00
DAV:   8    -0.135081395337E+04    0.29192E-01   -0.29465E-01  2576   0.966E-01    0.632E-01
DAV:   9    -0.135081406416E+04   -0.11078E-03   -0.98500E-02  2504   0.559E-01    0.304E-01
DAV:  10    -0.135081449899E+04   -0.43483E-03   -0.19395E-02  2488   0.277E-01    0.146E-01
DAV:  11    -0.135081472346E+04   -0.22446E-03   -0.54264E-03  2624   0.149E-01    0.128E-01
DAV:  12    -0.135081457829E+04    0.14516E-03   -0.25243E-03  2616   0.930E-02    0.442E-02
DAV:  13    -0.135081464300E+04   -0.64707E-04   -0.81333E-04  2616   0.598E-02    0.420E-02
DAV:  14    -0.135081463791E+04    0.50937E-05   -0.20711E-04  2624   0.287E-02    0.264E-02
DAV:  15    -0.135081463710E+04    0.80453E-06   -0.11151E-04  2608   0.199E-02    0.104E-02
DAV:  16    -0.135081463826E+04   -0.11587E-05   -0.29031E-05  2560   0.109E-02    0.365E-03
DAV:  17    -0.135081463876E+04   -0.50120E-06   -0.39838E-06  1392   0.587E-03
   3 F= -.13508146E+04 E0= -.13508146E+04  d E =-.580481E+01
 BRION: g(F)=  0.244E+02 g(S)=  0.000E+00 retain N=  2 mean eig= 0.77
 eig:   0.232  1.304
 bond charge predicted
       N       E                     dE             d eps       ncg     rms          rms(c)
DAV:   1    -0.134944956843E+04    0.13651E+01   -0.64931E+02  1376   0.278E+01    0.843E+00
DAV:   2    -0.135457464260E+04   -0.51251E+01   -0.62103E+01  2464   0.147E+01    0.525E+00
DAV:   3    -0.135426431729E+04    0.31033E+00   -0.42061E+00  2400   0.480E+00    0.422E+00
DAV:   4    -0.135400656071E+04    0.25776E+00   -0.34024E+00  2128   0.259E+00    0.181E+00
DAV:   5    -0.135403528904E+04   -0.28728E-01   -0.70409E-01  2400   0.161E+00    0.220E+00
DAV:   6    -0.135395264968E+04    0.82639E-01   -0.49363E-01  2384   0.126E+00    0.798E-01
DAV:   7    -0.135395948222E+04   -0.68325E-02   -0.28784E-01  2392   0.814E-01    0.689E-01
DAV:   8    -0.135395918854E+04    0.29368E-03   -0.50225E-02  2504   0.397E-01    0.600E-01
DAV:   9    -0.135395360725E+04    0.55813E-02   -0.18133E-02  2360   0.233E-01    0.289E-01
DAV:  10    -0.135395364321E+04   -0.35967E-04   -0.22170E-02  2344   0.204E-01    0.133E-01
DAV:  11    -0.135395338881E+04    0.25440E-03   -0.31105E-03  2496   0.110E-01    0.553E-02
DAV:  12    -0.135395344002E+04   -0.51203E-04   -0.82058E-04  2440   0.529E-02    0.245E-02
DAV:  13    -0.135395345183E+04   -0.11812E-04   -0.14902E-04  2576   0.225E-02    0.201E-02
DAV:  14    -0.135395344913E+04    0.27014E-05   -0.49764E-05  2536   0.149E-02    0.104E-02
DAV:  15    -0.135395345017E+04   -0.10405E-05   -0.27908E-05  2336   0.953E-03    0.735E-03
DAV:  16    -0.135395344943E+04    0.73876E-06   -0.53218E-06  1480   0.564E-03
   4 F= -.13539534E+04 E0= -.13539534E+04  d E =-.313881E+01
 BRION: g(F)=  0.590E+01 g(S)=  0.000E+00 retain N=  3 mean eig= 2.23
 eig:   5.939  0.379  0.379
 bond charge predicted
       N       E                     dE             d eps       ncg     rms          rms(c)
DAV:   1    -0.135553001788E+04   -0.15766E+01   -0.26029E+02  1360   0.226E+01    0.415E+00
DAV:   2    -0.135686528490E+04   -0.13353E+01   -0.14453E+01  2280   0.856E+00    0.202E+00
DAV:   3    -0.135689688513E+04   -0.31600E-01   -0.10974E+00  2624   0.190E+00    0.171E+00
DAV:   4    -0.135685547784E+04    0.41407E-01   -0.27257E-01  2576   0.106E+00    0.858E-01
DAV:   5    -0.135685013380E+04    0.53440E-02   -0.85020E-02  2440   0.609E-01    0.500E-01
DAV:   6    -0.135685007031E+04    0.63487E-04   -0.50705E-02  2600   0.418E-01    0.294E-01
DAV:   7    -0.135684955939E+04    0.51093E-03   -0.17249E-02  2320   0.241E-01    0.211E-01
DAV:   8    -0.135684960427E+04   -0.44878E-04   -0.63053E-03  2432   0.138E-01    0.126E-01
DAV:   9    -0.135684943868E+04    0.16559E-03   -0.16899E-03  2576   0.803E-02    0.687E-02
DAV:  10    -0.135684953885E+04   -0.10017E-03   -0.17076E-03  2464   0.673E-02    0.802E-02
DAV:  11    -0.135684945537E+04    0.83473E-04   -0.60726E-04  2528   0.482E-02    0.288E-02
DAV:  12    -0.135684946510E+04   -0.97296E-05   -0.21470E-04  2528   0.275E-02    0.168E-02
DAV:  13    -0.135684946625E+04   -0.11480E-05   -0.44033E-05  2504   0.131E-02    0.858E-03
DAV:  14    -0.135684946642E+04   -0.16730E-06   -0.69110E-06  1448   0.661E-03
   5 F= -.13568495E+04 E0= -.13568495E+04  d E =-.289602E+01
 BRION: g(F)=  0.259E+01 g(S)=  0.000E+00 retain N=  4 mean eig= 1.86
 eig:   6.245  0.703  0.369  0.104
 bond charge predicted
       N       E                     dE             d eps       ncg     rms          rms(c)
DAV:   1    -0.135757604053E+04   -0.72657E+00   -0.20168E+02  1368   0.194E+01    0.286E+00
DAV:   2    -0.135855796140E+04   -0.98192E+00   -0.10368E+01  2288   0.740E+00    0.149E+00
DAV:   3    -0.135858024584E+04   -0.22284E-01   -0.66304E-01  2600   0.145E+00    0.125E+00
DAV:   4    -0.135855123789E+04    0.29008E-01   -0.13573E-01  2560   0.764E-01    0.697E-01
DAV:   5    -0.135854315147E+04    0.80864E-02   -0.68555E-02  2400   0.508E-01    0.373E-01
DAV:   6    -0.135854375683E+04   -0.60536E-03   -0.28570E-02  2568   0.322E-01    0.272E-01
DAV:   7    -0.135854310145E+04    0.65538E-03   -0.11471E-02  2504   0.199E-01    0.152E-01
DAV:   8    -0.135854314484E+04   -0.43391E-04   -0.38825E-03  2536   0.113E-01    0.802E-02
DAV:   9    -0.135854310218E+04    0.42659E-04   -0.81515E-04  2600   0.581E-02    0.529E-02
DAV:  10    -0.135854314224E+04   -0.40059E-04   -0.56329E-04  2408   0.400E-02    0.453E-02
DAV:  11    -0.135854310856E+04    0.33681E-04   -0.18531E-04  2496   0.301E-02    0.167E-02
DAV:  12    -0.135854311722E+04   -0.86551E-05   -0.14316E-04  2432   0.200E-02    0.161E-02
DAV:  13    -0.135854311411E+04    0.31113E-05   -0.26692E-05  2200   0.112E-02    0.744E-03
DAV:  14    -0.135854311436E+04   -0.25837E-06   -0.11746E-05  1760   0.645E-03    0.317E-03
DAV:  15    -0.135854311449E+04   -0.12544E-06   -0.11933E-06  1032   0.393E-03
   6 F= -.13585431E+04 E0= -.13585431E+04  d E =-.169365E+01
 BRION: g(F)=  0.152E+01 g(S)=  0.000E+00 retain N=  5 mean eig= 1.78
 eig:   5.710  0.766  0.971  0.971  0.470
 bond charge predicted
       N       E                     dE             d eps       ncg     rms          rms(c)
DAV:   1    -0.135849222828E+04    0.50886E-01   -0.33769E+02  1344   0.255E+01    0.362E+00
DAV:   2    -0.136020356760E+04   -0.17113E+01   -0.17997E+01  2280   0.973E+00    0.188E+00
DAV:   3    -0.136024474503E+04   -0.41177E-01   -0.11678E+00  2584   0.203E+00    0.156E+00
DAV:   4    -0.136020220034E+04    0.42545E-01   -0.22517E-01  2536   0.978E-01    0.872E-01
DAV:   5    -0.136018633200E+04    0.15868E-01   -0.97682E-02  2432   0.629E-01    0.431E-01
DAV:   6    -0.136018737397E+04   -0.10420E-02   -0.46349E-02  2520   0.423E-01    0.345E-01
DAV:   7    -0.136018638472E+04    0.98924E-03   -0.17936E-02  2520   0.262E-01    0.215E-01
DAV:   8    -0.136018648287E+04   -0.98145E-04   -0.92379E-03  2528   0.161E-01    0.111E-01
DAV:   9    -0.136018636913E+04    0.11373E-03   -0.13713E-03  2576   0.794E-02    0.764E-02
DAV:  10    -0.136018637263E+04   -0.34937E-05   -0.11125E-03  2336   0.587E-02    0.471E-02
DAV:  11    -0.136018635611E+04    0.16517E-04   -0.31685E-04  2528   0.410E-02    0.186E-02
DAV:  12    -0.136018636750E+04   -0.11391E-04   -0.18052E-04  2528   0.240E-02    0.193E-02
DAV:  13    -0.136018636408E+04    0.34182E-05   -0.55402E-05  2440   0.147E-02    0.903E-03
DAV:  14    -0.136018636428E+04   -0.19430E-06   -0.14418E-05  1800   0.763E-03    0.464E-03
DAV:  15    -0.136018636446E+04   -0.18170E-06   -0.28322E-06  1120   0.501E-03
   7 F= -.13601864E+04 E0= -.13601864E+04  d E =-.164325E+01
 BRION: g(F)=  0.117E+01 g(S)=  0.000E+00 retain N=  6 mean eig= 1.99
 eig:   6.867  1.612  1.612  0.514  0.514  0.792
 bond charge predicted
       N       E                     dE             d eps       ncg     rms          rms(c)
DAV:   1    -0.136047371716E+04   -0.28735E+00   -0.10784E+02  1368   0.146E+01    0.194E+00
DAV:   2    -0.136100580054E+04   -0.53208E+00   -0.56391E+00  2288   0.558E+00    0.101E+00
DAV:   3    -0.136102780263E+04   -0.22002E-01   -0.41674E-01  2624   0.111E+00    0.806E-01
DAV:   4    -0.136101610788E+04    0.11695E-01   -0.57376E-02  2576   0.537E-01    0.476E-01
DAV:   5    -0.136101141149E+04    0.46964E-02   -0.26237E-02  2344   0.325E-01    0.204E-01
DAV:   6    -0.136101204709E+04   -0.63561E-03   -0.12598E-02  2536   0.211E-01    0.159E-01
DAV:   7    -0.136101194588E+04    0.10121E-03   -0.42422E-03  2496   0.128E-01    0.108E-01
DAV:   8    -0.136101193934E+04    0.65463E-05   -0.21087E-03  2552   0.811E-02    0.593E-02
DAV:   9    -0.136101191589E+04    0.23450E-04   -0.33869E-04  2496   0.421E-02    0.444E-02
DAV:  10    -0.136101191515E+04    0.73716E-06   -0.34571E-04  2328   0.325E-02    0.270E-02
DAV:  11    -0.136101191149E+04    0.36597E-05   -0.99022E-05  2464   0.227E-02    0.119E-02
DAV:  12    -0.136101191473E+04   -0.32409E-05   -0.50222E-05  2328   0.125E-02    0.117E-02
DAV:  13    -0.136101191302E+04    0.17168E-05   -0.12719E-05  1744   0.780E-03    0.499E-03
DAV:  14    -0.136101191314E+04   -0.12555E-06   -0.45139E-06  1288   0.565E-03
   8 F= -.13610119E+04 E0= -.13610119E+04  d E =-.825549E+00
 BRION: g(F)=  0.462E+00 g(S)=  0.000E+00 retain N=  6 mean eig= 1.48
 eig:   3.361  3.361  0.614  0.240  0.647  0.647
 bond charge predicted
       N       E                     dE             d eps       ncg     rms          rms(c)
DAV:   1    -0.136121602029E+04   -0.20411E+00   -0.86571E+01  1368   0.132E+01    0.174E+00
DAV:   2    -0.136164959212E+04   -0.43357E+00   -0.45954E+00  2288   0.509E+00    0.837E-01
DAV:   3    -0.136167261019E+04   -0.23018E-01   -0.35348E-01  2624   0.101E+00    0.685E-01
DAV:   4    -0.136166568613E+04    0.69241E-02   -0.41642E-02  2616   0.474E-01    0.437E-01
DAV:   5    -0.136166140168E+04    0.42844E-02   -0.20196E-02  2312   0.302E-01    0.174E-01
DAV:   6    -0.136166219661E+04   -0.79493E-03   -0.12223E-02  2480   0.211E-01    0.165E-01
DAV:   7    -0.136166206151E+04    0.13510E-03   -0.41179E-03  2496   0.125E-01    0.116E-01
DAV:   8    -0.136166200216E+04    0.59347E-04   -0.21122E-03  2552   0.814E-02    0.538E-02
DAV:   9    -0.136166198519E+04    0.16968E-04   -0.33703E-04  2392   0.409E-02    0.405E-02
DAV:  10    -0.136166198273E+04    0.24644E-05   -0.17176E-04  2424   0.253E-02    0.223E-02
DAV:  11    -0.136166198268E+04    0.54075E-07   -0.58860E-05  2496   0.164E-02    0.106E-02
DAV:  12    -0.136166198480E+04   -0.21193E-05   -0.27363E-05  2352   0.101E-02    0.104E-02
DAV:  13    -0.136166198378E+04    0.10185E-05   -0.96268E-06  1728   0.659E-03    0.518E-03
DAV:  14    -0.136166198372E+04    0.56054E-07   -0.29096E-06  1104   0.511E-03
   9 F= -.13616620E+04 E0= -.13616620E+04  d E =-.650071E+00
 BRION: g(F)=  0.395E+00 g(S)=  0.000E+00 retain N=  7 mean eig= 1.74
 eig:   4.197  4.197  0.612  1.072  1.072  0.271  0.777
 bond charge predicted
       N       E                     dE             d eps       ncg     rms          rms(c)
DAV:   1    -0.136175479806E+04   -0.92814E-01   -0.11061E+02  1384   0.151E+01    0.180E+00
DAV:   2    -0.136232624421E+04   -0.57145E+00   -0.60721E+00  2304   0.591E+00    0.902E-01
DAV:   3    -0.136236047144E+04   -0.34227E-01   -0.48694E-01  2624   0.116E+00    0.736E-01
DAV:   4    -0.136235351614E+04    0.69553E-02   -0.48232E-02  2624   0.534E-01    0.509E-01
DAV:   5    -0.136234768240E+04    0.58337E-02   -0.21865E-02  2400   0.301E-01    0.215E-01
DAV:   6    -0.136234790801E+04   -0.22561E-03   -0.14225E-02  2376   0.227E-01    0.148E-01
DAV:   7    -0.136234805100E+04   -0.14299E-03   -0.69249E-03  2440   0.157E-01    0.118E-01
DAV:   8    -0.136234803100E+04    0.20000E-04   -0.24066E-03  2592   0.940E-02    0.721E-02
DAV:   9    -0.136234799376E+04    0.37242E-04   -0.65003E-04  2544   0.513E-02    0.470E-02
DAV:  10    -0.136234800368E+04   -0.99275E-05   -0.27142E-04  2600   0.309E-02    0.315E-02
DAV:  11    -0.136234800446E+04   -0.77517E-06   -0.12624E-04  2472   0.225E-02    0.206E-02
DAV:  12    -0.136234800062E+04    0.38422E-05   -0.55243E-05  2344   0.168E-02    0.157E-02
DAV:  13    -0.136234799943E+04    0.11831E-05   -0.43897E-05  2256   0.114E-02    0.756E-03
DAV:  14    -0.136234799947E+04   -0.36991E-07   -0.10893E-05  1768   0.641E-03    0.356E-03
DAV:  15    -0.136234799951E+04   -0.37675E-07   -0.13547E-06   968   0.405E-03
  10 F= -.13623480E+04 E0= -.13623480E+04  d E =-.686016E+00
 BRION: g(F)=  0.252E+00 g(S)=  0.000E+00 retain N=  8 mean eig= 2.49
 eig:   5.632  5.632  3.026  3.026  0.664  0.278  0.845  0.845
 bond charge predicted
       N       E                     dE             d eps       ncg     rms          rms(c)
DAV:   1    -0.136247372248E+04   -0.12572E+00   -0.65174E+01  1384   0.116E+01    0.139E+00
DAV:   2    -0.136281840514E+04   -0.34468E+00   -0.36739E+00  2320   0.465E+00    0.730E-01
DAV:   3    -0.136283707190E+04   -0.18667E-01   -0.28799E-01  2616   0.885E-01    0.583E-01
DAV:   4    -0.136283168255E+04    0.53893E-02   -0.31141E-02  2608   0.420E-01    0.384E-01
DAV:   5    -0.136282837974E+04    0.33028E-02   -0.13001E-02  2408   0.228E-01    0.160E-01
DAV:   6    -0.136282849825E+04   -0.11851E-03   -0.74828E-03  2416   0.162E-01    0.972E-02
DAV:   7    -0.136282859077E+04   -0.92521E-04   -0.33222E-03  2416   0.109E-01    0.788E-02
DAV:   8    -0.136282859293E+04   -0.21613E-05   -0.11307E-03  2616   0.643E-02    0.500E-02
DAV:   9    -0.136282857917E+04    0.13768E-04   -0.32095E-04  2576   0.366E-02    0.336E-02
DAV:  10    -0.136282858454E+04   -0.53744E-05   -0.15405E-04  2576   0.233E-02    0.226E-02
DAV:  11    -0.136282858275E+04    0.17875E-05   -0.65029E-05  2440   0.164E-02    0.111E-02
DAV:  12    -0.136282858249E+04    0.26620E-06   -0.26553E-05  2256   0.114E-02    0.841E-03
DAV:  13    -0.136282858225E+04    0.24083E-06   -0.12959E-05  1808   0.710E-03    0.454E-03
DAV:  14    -0.136282858223E+04    0.18466E-07   -0.38008E-06  1232   0.525E-03
  11 F= -.13628286E+04 E0= -.13628286E+04  d E =-.480583E+00
 BRION: g(F)=  0.181E+00 g(S)=  0.000E+00 retain N=  9 mean eig= 2.59
 eig:   5.100  5.100  4.327  4.327  1.418  0.346  0.866  0.866  0.962
 bond charge predicted
       N       E                     dE             d eps       ncg     rms          rms(c)
DAV:   1    -0.136293989092E+04   -0.11131E+00   -0.41006E+01  1376   0.915E+00    0.111E+00
DAV:   2    -0.136315613300E+04   -0.21624E+00   -0.23025E+00  2296   0.371E+00    0.571E-01
DAV:   3    -0.136316748122E+04   -0.11348E-01   -0.17844E-01  2592   0.710E-01    0.455E-01
DAV:   4    -0.136316379447E+04    0.36867E-02   -0.19183E-02  2584   0.326E-01    0.298E-01
DAV:   5    -0.136316161383E+04    0.21806E-02   -0.86636E-03  2392   0.187E-01    0.115E-01
DAV:   6    -0.136316176327E+04   -0.14943E-03   -0.48520E-03  2480   0.129E-01    0.780E-02
DAV:   7    -0.136316180560E+04   -0.42336E-04   -0.18881E-03  2440   0.839E-02    0.619E-02
DAV:   8    -0.136316180430E+04    0.13064E-05   -0.69346E-04  2624   0.492E-02    0.362E-02
DAV:   9    -0.136316179775E+04    0.65506E-05   -0.16770E-04  2552   0.274E-02    0.253E-02
DAV:  10    -0.136316179978E+04   -0.20350E-05   -0.90743E-05  2568   0.179E-02    0.169E-02
DAV:  11    -0.136316179874E+04    0.10437E-05   -0.39192E-05  2352   0.128E-02    0.746E-03
DAV:  12    -0.136316179891E+04   -0.17148E-06   -0.12515E-05  1888   0.850E-03    0.614E-03
DAV:  13    -0.136316179865E+04    0.25770E-06   -0.55505E-06  1392   0.532E-03
  12 F= -.13631618E+04 E0= -.13631618E+04  d E =-.333216E+00
 BRION: g(F)=  0.148E+00 g(S)=  0.000E+00 retain N= 10 mean eig= 3.13
 eig:   6.647  6.647  5.696  5.696  1.156  1.716  1.716  0.326  0.847  0.847
 bond charge predicted
       N       E                     dE             d eps       ncg     rms          rms(c)
DAV:   1    -0.136322846666E+04   -0.66668E-01   -0.46596E+01  1376   0.975E+00    0.119E+00
DAV:   2    -0.136347917956E+04   -0.25071E+00   -0.26658E+00  2304   0.403E+00    0.615E-01
DAV:   3    -0.136349222038E+04   -0.13041E-01   -0.20540E-01  2600   0.765E-01    0.494E-01
DAV:   4    -0.136348821392E+04    0.40065E-02   -0.22157E-02  2584   0.347E-01    0.332E-01
DAV:   5    -0.136348545526E+04    0.27587E-02   -0.10024E-02  2392   0.198E-01    0.137E-01
DAV:   6    -0.136348554252E+04   -0.87257E-04   -0.61498E-03  2360   0.146E-01    0.893E-02
DAV:   7    -0.136348559279E+04   -0.50267E-04   -0.29340E-03  2384   0.991E-02    0.740E-02
DAV:   8    -0.136348558858E+04    0.42108E-05   -0.97539E-04  2624   0.587E-02    0.482E-02
DAV:   9    -0.136348557355E+04    0.15029E-04   -0.28653E-04  2568   0.336E-02    0.307E-02
DAV:  10    -0.136348557652E+04   -0.29716E-05   -0.11205E-04  2560   0.202E-02    0.206E-02
DAV:  11    -0.136348557570E+04    0.81399E-06   -0.44547E-05  2376   0.134E-02    0.108E-02
DAV:  12    -0.136348557529E+04    0.40940E-06   -0.26024E-05  2224   0.108E-02    0.805E-03
DAV:  13    -0.136348557496E+04    0.33152E-06   -0.10615E-05  1792   0.676E-03    0.470E-03
DAV:  14    -0.136348557502E+04   -0.59736E-07   -0.55789E-06  1448   0.506E-03
  13 F= -.13634856E+04 E0= -.13634856E+04  d E =-.323776E+00
 BRION: g(F)=  0.105E+00 g(S)=  0.000E+00 retain N= 10 mean eig= 3.04
 eig:   7.612  7.612  6.092  2.754  2.754  0.783  0.783  1.204  0.686  0.101
 bond charge predicted
       N       E                     dE             d eps       ncg     rms          rms(c)
DAV:   1    -0.136355765630E+04   -0.72081E-01   -0.25269E+01  1376   0.722E+00    0.849E-01
DAV:   2    -0.136369051764E+04   -0.13286E+00   -0.14085E+00  2288   0.294E+00    0.437E-01
DAV:   3    -0.136369782372E+04   -0.73061E-02   -0.10977E-01  2592   0.564E-01    0.352E-01
DAV:   4    -0.136369596337E+04    0.18603E-02   -0.10917E-02  2592   0.247E-01    0.247E-01
DAV:   5    -0.136369435154E+04    0.16118E-02   -0.55787E-03  2352   0.148E-01    0.102E-01
DAV:   6    -0.136369441126E+04   -0.59722E-04   -0.36947E-03  2392   0.116E-01    0.722E-02
DAV:   7    -0.136369443763E+04   -0.26365E-04   -0.17260E-03  2384   0.747E-02    0.584E-02
DAV:   8    -0.136369442658E+04    0.11048E-04   -0.55129E-04  2616   0.461E-02    0.359E-02
DAV:   9    -0.136369441765E+04    0.89305E-05   -0.16467E-04  2568   0.252E-02    0.221E-02
DAV:  10    -0.136369441990E+04   -0.22524E-05   -0.58487E-05  2520   0.150E-02    0.149E-02
DAV:  11    -0.136369441984E+04    0.54250E-07   -0.23195E-05  2264   0.103E-02    0.877E-03
DAV:  12    -0.136369441961E+04    0.23554E-06   -0.14725E-05  1912   0.832E-03    0.747E-03
DAV:  13    -0.136369441915E+04    0.46333E-06   -0.68734E-06  1608   0.592E-03
  14 F= -.13636944E+04 E0= -.13636944E+04  d E =-.208844E+00
 BRION: g(F)=  0.874E-01 g(S)=  0.000E+00 retain N=  6 mean eig= 3.56
 eig:   6.603  6.603  2.554  2.554  1.509  1.509
 bond charge predicted
       N       E                     dE             d eps       ncg     rms          rms(c)
DAV:   1    -0.136377313040E+04   -0.78711E-01   -0.13940E+01  1376   0.533E+00    0.614E-01
DAV:   2    -0.136384514573E+04   -0.72015E-01   -0.76028E-01  2280   0.214E+00    0.314E-01
DAV:   3    -0.136384957489E+04   -0.44292E-02   -0.61451E-02  2576   0.416E-01    0.258E-01
DAV:   4    -0.136384880516E+04    0.76973E-03   -0.56310E-03  2592   0.177E-01    0.189E-01
DAV:   5    -0.136384792484E+04    0.88033E-03   -0.30951E-03  2272   0.108E-01    0.800E-02
DAV:   6    -0.136384796754E+04   -0.42702E-04   -0.21615E-03  2344   0.861E-02    0.624E-02
DAV:   7    -0.136384796563E+04    0.19071E-05   -0.11030E-03  2408   0.592E-02    0.475E-02
DAV:   8    -0.136384795466E+04    0.10974E-04   -0.36934E-04  2512   0.382E-02    0.294E-02
DAV:   9    -0.136384794840E+04    0.62579E-05   -0.96203E-05  2456   0.193E-02    0.176E-02
DAV:  10    -0.136384794947E+04   -0.10751E-05   -0.31455E-05  2440   0.109E-02    0.100E-02
DAV:  11    -0.136384794956E+04   -0.88781E-07   -0.55956E-06  1360   0.706E-03
  15 F= -.13638479E+04 E0= -.13638479E+04  d E =-.153530E+00
 BRION: g(F)=  0.778E-01 g(S)=  0.000E+00 retain N=  7 mean eig= 3.86
 eig:   7.667  7.667  3.390  3.390  1.765  1.765  1.392
 bond charge predicted
       N       E                     dE             d eps       ncg     rms          rms(c)
DAV:   1    -0.136390290812E+04   -0.54959E-01   -0.27837E+01  1376   0.746E+00    0.836E-01
DAV:   2    -0.136404247319E+04   -0.13957E+00   -0.14593E+00  2288   0.296E+00    0.429E-01
DAV:   3    -0.136405060607E+04   -0.81329E-02   -0.11296E-01  2576   0.559E-01    0.346E-01
DAV:   4    -0.136404916780E+04    0.14383E-02   -0.10073E-02  2592   0.232E-01    0.256E-01
DAV:   5    -0.136404728372E+04    0.18841E-02   -0.50197E-03  2288   0.152E-01    0.111E-01
DAV:   6    -0.136404730417E+04   -0.20447E-04   -0.46564E-03  2296   0.129E-01    0.738E-02
DAV:   7    -0.136404735515E+04   -0.50979E-04   -0.19683E-03  2416   0.793E-02    0.657E-02
DAV:   8    -0.136404733006E+04    0.25086E-04   -0.52077E-04  2576   0.463E-02    0.371E-02
DAV:   9    -0.136404731368E+04    0.16381E-04   -0.21640E-04  2424   0.280E-02    0.194E-02
DAV:  10    -0.136404732033E+04   -0.66428E-05   -0.78134E-05  2416   0.168E-02    0.161E-02
DAV:  11    -0.136404731778E+04    0.25427E-05   -0.26354E-05  2208   0.112E-02    0.843E-03
DAV:  12    -0.136404731799E+04   -0.20648E-06   -0.15155E-05  1944   0.822E-03    0.760E-03
DAV:  13    -0.136404731738E+04    0.60983E-06   -0.59540E-06  1504   0.571E-03
  16 F= -.13640473E+04 E0= -.13640473E+04  d E =-.199368E+00
 BRION: g(F)=  0.712E-01 g(S)=  0.000E+00 retain N=  7 mean eig= 4.18
 eig:   7.720  7.720  3.733  3.733  3.080  1.649  1.649
 bond charge predicted
       N       E                     dE             d eps       ncg     rms          rms(c)
DAV:   1    -0.136411945535E+04   -0.72137E-01   -0.24788E+01  1376   0.707E+00    0.805E-01
DAV:   2    -0.136424768045E+04   -0.12823E+00   -0.13510E+00  2296   0.284E+00    0.411E-01
DAV:   3    -0.136425568585E+04   -0.80054E-02   -0.10932E-01  2584   0.543E-01    0.331E-01
DAV:   4    -0.136425437901E+04    0.13068E-02   -0.98962E-03  2600   0.235E-01    0.241E-01
DAV:   5    -0.136425295394E+04    0.14251E-02   -0.47133E-03  2376   0.139E-01    0.109E-01
DAV:   6    -0.136425292485E+04    0.29094E-04   -0.34915E-03  2312   0.112E-01    0.704E-02
DAV:   7    -0.136425296831E+04   -0.43463E-04   -0.18727E-03  2424   0.774E-02    0.621E-02
DAV:   8    -0.136425295117E+04    0.17144E-04   -0.52788E-04  2576   0.464E-02    0.432E-02
DAV:   9    -0.136425293126E+04    0.19908E-04   -0.21219E-04  2480   0.270E-02    0.218E-02
DAV:  10    -0.136425293558E+04   -0.43156E-05   -0.75559E-05  2432   0.164E-02    0.142E-02
DAV:  11    -0.136425293610E+04   -0.51975E-06   -0.16527E-05  2000   0.917E-03    0.103E-02
DAV:  12    -0.136425293508E+04    0.10128E-05   -0.20872E-05  1824   0.894E-03    0.799E-03
DAV:  13    -0.136425293490E+04    0.18113E-06   -0.93389E-06  1792   0.658E-03
  17 F= -.13642529E+04 E0= -.13642529E+04  d E =-.205618E+00
 BRION: g(F)=  0.647E-01 g(S)=  0.000E+00 retain N=  3 mean eig= 5.84
 eig:   7.752  7.752  2.021
 bond charge predicted
       N       E                     dE             d eps       ncg     rms          rms(c)
DAV:   1    -0.136432835093E+04   -0.75416E-01   -0.12335E+01  1376   0.496E+00    0.565E-01
DAV:   2    -0.136439085463E+04   -0.62504E-01   -0.65506E-01  2296   0.197E+00    0.283E-01
DAV:   3    -0.136439477099E+04   -0.39164E-02   -0.52813E-02  2576   0.375E-01    0.229E-01
DAV:   4    -0.136439415540E+04    0.61559E-03   -0.47767E-03  2624   0.161E-01    0.168E-01
DAV:   5    -0.136439337673E+04    0.77866E-03   -0.22823E-03  2352   0.101E-01    0.754E-02
DAV:   6    -0.136439337092E+04    0.58123E-05   -0.19687E-03  2312   0.839E-02    0.521E-02
DAV:   7    -0.136439338980E+04   -0.18874E-04   -0.96196E-04  2408   0.565E-02    0.456E-02
DAV:   8    -0.136439337887E+04    0.10924E-04   -0.26901E-04  2520   0.329E-02    0.287E-02
DAV:   9    -0.136439336963E+04    0.92432E-05   -0.10181E-04  2384   0.190E-02    0.150E-02
DAV:  10    -0.136439337247E+04   -0.28405E-05   -0.48038E-05  2368   0.125E-02    0.104E-02
DAV:  11    -0.136439337198E+04    0.48909E-06   -0.93185E-06  1544   0.794E-03
  18 F= -.13643934E+04 E0= -.13643934E+04  d E =-.140437E+00
 BRION: g(F)=  0.620E-01 g(S)=  0.000E+00 retain N=  3 mean eig= 4.71
 eig:   5.909  5.909  2.304
 bond charge predicted
       N       E                     dE             d eps       ncg     rms          rms(c)
DAV:   1    -0.136446465025E+04   -0.71278E-01   -0.17165E+01  1360   0.585E+00    0.660E-01
DAV:   2    -0.136455108337E+04   -0.86433E-01   -0.90657E-01  2304   0.231E+00    0.333E-01
DAV:   3    -0.136455624467E+04   -0.51613E-02   -0.70912E-02  2584   0.443E-01    0.267E-01
DAV:   4    -0.136455535144E+04    0.89322E-03   -0.64842E-03  2624   0.188E-01    0.193E-01
DAV:   5    -0.136455430915E+04    0.10423E-02   -0.30906E-03  2312   0.119E-01    0.829E-02
DAV:   6    -0.136455433502E+04   -0.25869E-04   -0.25823E-03  2384   0.942E-02    0.599E-02
DAV:   7    -0.136455434955E+04   -0.14528E-04   -0.10518E-03  2424   0.604E-02    0.493E-02
DAV:   8    -0.136455433690E+04    0.12650E-04   -0.34173E-04  2504   0.361E-02    0.282E-02
DAV:   9    -0.136455432950E+04    0.74003E-05   -0.11419E-04  2400   0.206E-02    0.159E-02
DAV:  10    -0.136455433226E+04   -0.27641E-05   -0.47288E-05  2400   0.129E-02    0.115E-02
DAV:  11    -0.136455433116E+04    0.10990E-05   -0.10890E-05  1648   0.866E-03    0.653E-03
DAV:  12    -0.136455433159E+04   -0.42660E-06   -0.13007E-05  1648   0.754E-03    0.637E-03
DAV:  13    -0.136455433098E+04    0.61397E-06   -0.18470E-06  1000   0.492E-03
  19 F= -.13645543E+04 E0= -.13645543E+04  d E =-.160959E+00
 BRION: g(F)=  0.584E-01 g(S)=  0.000E+00 retain N=  2 mean eig= 3.98
 eig:   3.982  3.982
 bond charge predicted
       N       E                     dE             d eps       ncg     rms          rms(c)
DAV:   1    -0.136457964232E+04   -0.25311E-01   -0.39831E+01  1352   0.888E+00    0.100E+00
DAV:   2    -0.136478106058E+04   -0.20142E+00   -0.21133E+00  2296   0.350E+00    0.504E-01
DAV:   3    -0.136479348958E+04   -0.12429E-01   -0.16850E-01  2584   0.685E-01    0.412E-01
DAV:   4    -0.136479161436E+04    0.18752E-02   -0.15162E-02  2616   0.287E-01    0.304E-01
DAV:   5    -0.136478909864E+04    0.25157E-02   -0.73297E-03  2376   0.177E-01    0.139E-01
DAV:   6    -0.136478902525E+04    0.73387E-04   -0.63901E-03  2288   0.150E-01    0.946E-02
DAV:   7    -0.136478909039E+04   -0.65136E-04   -0.32049E-03  2424   0.104E-01    0.849E-02
DAV:   8    -0.136478905272E+04    0.37669E-04   -0.91495E-04  2552   0.606E-02    0.564E-02
DAV:   9    -0.136478901835E+04    0.34366E-04   -0.36263E-04  2448   0.350E-02    0.277E-02
DAV:  10    -0.136478902750E+04   -0.91541E-05   -0.15142E-04  2472   0.223E-02    0.181E-02
DAV:  11    -0.136478902809E+04   -0.58494E-06   -0.30407E-05  2280   0.126E-02    0.136E-02
DAV:  12    -0.136478902648E+04    0.16132E-05   -0.33099E-05  2144   0.113E-02    0.114E-02
DAV:  13    -0.136478902553E+04    0.94385E-06   -0.15586E-05  1896   0.777E-03    0.705E-03
DAV:  14    -0.136478902513E+04    0.40339E-06   -0.54426E-06  1440   0.513E-03
  20 F= -.13647890E+04 E0= -.13647890E+04  d E =-.234694E+00
 BRION: g(F)=  0.526E-01 g(S)=  0.000E+00 retain N=  2 mean eig= 4.78
 eig:   4.776  4.776
