 running on  160 total cores
 distrk:  each k-point on  160 cores,    1 groups
 distr:  one band on   20 cores,    8 groups
 using from now: INCAR     
 vasp.5.4.4.18Apr17-6-g9f103f2a35 (build May 01 2020 14:22:42) gamma-only       
  
 POSCAR found type information on POSCAR  O  La Zr Li Al
 POSCAR found :  5 types and     188 ions
 scaLAPACK will be used
 LDA part: xc-table for Pade appr. of Perdew
 POSCAR, INCAR and KPOINTS ok, starting setup
 FFT: planning ...
 WAVECAR not read
 WARNING: random wavefunctions but no delay for mixing, default for NELMDL
 entering main loop
       N       E                     dE             d eps       ncg     rms          rms(c)
DAV:   1     0.252186092068E+05    0.25219E+05   -0.42082E+05  1624   0.253E+03
DAV:   2     0.944573101541E+04   -0.15773E+05   -0.14542E+05  1416   0.711E+02
DAV:   3     0.270225297979E+04   -0.67435E+04   -0.61463E+04  1504   0.356E+02
DAV:   4    -0.360612687003E+03   -0.30629E+04   -0.28656E+04  2032   0.222E+02
DAV:   5    -0.140072762790E+04   -0.10401E+04   -0.99455E+03  2528   0.140E+02    0.116E+02
DAV:   6    -0.130117530565E+04    0.99552E+02   -0.15130E+03  2440   0.671E+01    0.503E+01
DAV:   7    -0.132504953379E+04   -0.23874E+02   -0.41976E+02  2544   0.345E+01    0.266E+01
DAV:   8    -0.132941431965E+04   -0.43648E+01   -0.24937E+02  2520   0.273E+01    0.238E+01
DAV:   9    -0.132581295802E+04    0.36014E+01   -0.42380E+01  2544   0.142E+01    0.798E+00
DAV:  10    -0.132643314002E+04   -0.62018E+00   -0.14741E+01  2624   0.749E+00    0.685E+00
DAV:  11    -0.132675324747E+04   -0.32011E+00   -0.56224E+00  2624   0.412E+00    0.410E+00
DAV:  12    -0.132663099808E+04    0.12225E+00   -0.21096E+00  2552   0.331E+00    0.259E+00
DAV:  13    -0.132666928534E+04   -0.38287E-01   -0.83862E-01  2576   0.166E+00    0.160E+00
DAV:  14    -0.132666592223E+04    0.33631E-02   -0.23258E-01  2624   0.966E-01    0.979E-01
DAV:  15    -0.132667225968E+04   -0.63375E-02   -0.73413E-02  2552   0.517E-01    0.728E-01
DAV:  16    -0.132667295556E+04   -0.69589E-03   -0.30043E-02  2592   0.310E-01    0.447E-01
DAV:  17    -0.132667248630E+04    0.46926E-03   -0.17795E-02  2512   0.252E-01    0.207E-01
DAV:  18    -0.132667274483E+04   -0.25853E-03   -0.41234E-03  2488   0.136E-01    0.107E-01
DAV:  19    -0.132667279115E+04   -0.46321E-04   -0.21619E-03  2576   0.862E-02    0.755E-02
DAV:  20    -0.132667283638E+04   -0.45227E-04   -0.52424E-04  2600   0.423E-02    0.252E-02
DAV:  21    -0.132667285923E+04   -0.22856E-04   -0.18985E-04  2592   0.236E-02    0.312E-02
DAV:  22    -0.132667287534E+04   -0.16110E-04   -0.61046E-05  2304   0.139E-02    0.121E-02
DAV:  23    -0.132667287292E+04    0.24211E-05   -0.37716E-05  2072   0.106E-02    0.589E-03
DAV:  24    -0.132667287653E+04   -0.36085E-05   -0.96905E-06  1112   0.709E-03    0.260E-03
DAV:  25    -0.132667287760E+04   -0.10697E-05   -0.41549E-06  1016   0.543E-03    0.219E-03
DAV:  26    -0.132667287913E+04   -0.15268E-05   -0.21146E-06  1008   0.467E-03    0.712E-04
DAV:  27    -0.132667287943E+04   -0.30338E-06   -0.12026E-06   992   0.404E-03
   1 F= -.13266729E+04 E0= -.13266729E+04  d E =-.132667E+04
 BRION: g(F)=  0.650E+02 g(S)=  0.000E+00
 bond charge predicted
       N       E                     dE             d eps       ncg     rms          rms(c)
DAV:   1    -0.126041655919E+04    0.66256E+02   -0.95003E+03  1688   0.145E+02    0.379E+01
DAV:   2    -0.134384753870E+04   -0.83431E+02   -0.96790E+02  2560   0.683E+01    0.172E+01
DAV:   3    -0.134210680191E+04    0.17407E+01   -0.60109E+01  2624   0.193E+01    0.113E+01
DAV:   4    -0.133976882609E+04    0.23380E+01   -0.19520E+01  2496   0.886E+00    0.548E+00
DAV:   5    -0.133957240520E+04    0.19642E+00   -0.46552E+00  2528   0.479E+00    0.363E+00
DAV:   6    -0.133948492754E+04    0.87478E-01   -0.32841E+00  2536   0.316E+00    0.200E+00
DAV:   7    -0.133947853137E+04    0.63962E-02   -0.58273E-01  2528   0.179E+00    0.128E+00
DAV:   8    -0.133947453158E+04    0.39998E-02   -0.43830E-01  2592   0.111E+00    0.671E-01
DAV:   9    -0.133947536346E+04   -0.83188E-03   -0.62248E-02  2528   0.576E-01    0.473E-01
DAV:  10    -0.133947424529E+04    0.11182E-02   -0.33411E-02  2624   0.335E-01    0.187E-01
DAV:  11    -0.133947508899E+04   -0.84369E-03   -0.90740E-03  2600   0.188E-01    0.129E-01
DAV:  12    -0.133947525679E+04   -0.16781E-03   -0.18712E-03  2624   0.887E-02    0.847E-02
DAV:  13    -0.133947520856E+04    0.48235E-04   -0.12496E-03  2584   0.694E-02    0.244E-02
DAV:  14    -0.133947524039E+04   -0.31833E-04   -0.33527E-04  2560   0.386E-02    0.140E-02
DAV:  15    -0.133947524852E+04   -0.81258E-05   -0.81857E-05  2624   0.175E-02    0.812E-03
DAV:  16    -0.133947525062E+04   -0.21070E-05   -0.22107E-05  1768   0.961E-03    0.591E-03
DAV:  17    -0.133947525241E+04   -0.17816E-05   -0.15056E-05  2024   0.707E-03    0.467E-03
DAV:  18    -0.133947525243E+04   -0.23589E-07   -0.22748E-06  1072   0.453E-03
   2 F= -.13394753E+04 E0= -.13394753E+04  d E =-.128024E+02
 BRION: g(F)=  0.143E+03 g(S)=  0.000E+00 retain N=  1 mean eig= 0.37
 eig:   0.371
 bond charge predicted
       N       E                     dE             d eps       ncg     rms          rms(c)
DAV:   1    -0.132138273109E+04    0.18093E+02   -0.27675E+03  1328   0.687E+01    0.247E+01
DAV:   2    -0.135525663368E+04   -0.33874E+02   -0.43619E+02  2544   0.358E+01    0.215E+01
DAV:   3    -0.135226881738E+04    0.29878E+01   -0.46813E+01  2576   0.143E+01    0.165E+01
DAV:   4    -0.134968216831E+04    0.25866E+01   -0.49519E+01  2168   0.708E+00    0.910E+00
DAV:   5    -0.135068350162E+04   -0.10013E+01   -0.10333E+01  2480   0.442E+00    0.101E+01
DAV:   6    -0.134890883605E+04    0.17747E+01   -0.18215E+01  2448   0.385E+00    0.208E+00
DAV:   7    -0.134903598340E+04   -0.12715E+00   -0.20909E+00  2488   0.317E+00    0.205E+00
DAV:   8    -0.134897339830E+04    0.62585E-01   -0.59192E-01  2536   0.127E+00    0.838E-01
DAV:   9    -0.134897035023E+04    0.30481E-02   -0.15280E-01  2520   0.683E-01    0.379E-01
DAV:  10    -0.134897161730E+04   -0.12671E-02   -0.31107E-02  2368   0.332E-01    0.291E-01
DAV:  11    -0.134897138443E+04    0.23287E-03   -0.77874E-03  2608   0.180E-01    0.267E-01
DAV:  12    -0.134897013124E+04    0.12532E-02   -0.77491E-03  2504   0.143E-01    0.870E-02
DAV:  13    -0.134897027055E+04   -0.13931E-03   -0.32686E-03  2496   0.962E-02    0.622E-02
DAV:  14    -0.134897029110E+04   -0.20555E-04   -0.57278E-04  2592   0.474E-02    0.439E-02
DAV:  15    -0.134897027275E+04    0.18350E-04   -0.12953E-04  2600   0.235E-02    0.226E-02
DAV:  16    -0.134897027389E+04   -0.11333E-05   -0.13212E-04  2536   0.193E-02    0.917E-03
DAV:  17    -0.134897027466E+04   -0.77563E-06   -0.16956E-05  2192   0.102E-02    0.744E-03
DAV:  18    -0.134897027390E+04    0.76136E-06   -0.38511E-06  1288   0.501E-03
   3 F= -.13489703E+04 E0= -.13489703E+04  d E =-.949502E+01
 BRION: g(F)=  0.211E+02 g(S)=  0.000E+00 retain N=  2 mean eig= 1.57
 eig:   0.222  2.926
 bond charge predicted
       N       E                     dE             d eps       ncg     rms          rms(c)
DAV:   1    -0.134773965788E+04    0.12306E+01   -0.84671E+02  1392   0.342E+01    0.909E+00
DAV:   2    -0.135363007782E+04   -0.58904E+01   -0.72980E+01  2472   0.161E+01    0.552E+00
DAV:   3    -0.135332978163E+04    0.30030E+00   -0.47108E+00  2512   0.518E+00    0.432E+00
DAV:   4    -0.135305768549E+04    0.27210E+00   -0.28261E+00  2232   0.237E+00    0.181E+00
DAV:   5    -0.135306398261E+04   -0.62971E-02   -0.59224E-01  2472   0.139E+00    0.181E+00
DAV:   6    -0.135301426392E+04    0.49719E-01   -0.43100E-01  2464   0.126E+00    0.727E-01
DAV:   7    -0.135302001979E+04   -0.57559E-02   -0.24533E-01  2432   0.761E-01    0.692E-01
DAV:   8    -0.135301881786E+04    0.12019E-02   -0.44046E-02  2592   0.379E-01    0.552E-01
DAV:   9    -0.135301419519E+04    0.46227E-02   -0.21326E-02  2480   0.242E-01    0.219E-01
DAV:  10    -0.135301481546E+04   -0.62026E-03   -0.16914E-02  2440   0.183E-01    0.152E-01
DAV:  11    -0.135301448754E+04    0.32791E-03   -0.18590E-03  2528   0.921E-02    0.854E-02
DAV:  12    -0.135301446833E+04    0.19212E-04   -0.15524E-03  2464   0.550E-02    0.278E-02
DAV:  13    -0.135301448164E+04   -0.13304E-04   -0.15596E-04  2504   0.265E-02    0.196E-02
DAV:  14    -0.135301447913E+04    0.25073E-05   -0.45675E-05  2496   0.132E-02    0.123E-02
DAV:  15    -0.135301447957E+04   -0.43995E-06   -0.26647E-05  2328   0.950E-03    0.593E-03
DAV:  16    -0.135301447941E+04    0.15571E-06   -0.30532E-06  1128   0.478E-03
   4 F= -.13530145E+04 E0= -.13530145E+04  d E =-.404421E+01
 BRION: g(F)=  0.493E+01 g(S)=  0.000E+00 retain N=  2 mean eig= 0.34
 eig:   0.343  0.343
 bond charge predicted
       N       E                     dE             d eps       ncg     rms          rms(c)
DAV:   1    -0.135399854348E+04   -0.98406E+00   -0.28765E+02  1352   0.228E+01    0.410E+00
DAV:   2    -0.135537741122E+04   -0.13789E+01   -0.14687E+01  2288   0.819E+00    0.203E+00
DAV:   3    -0.135538457449E+04   -0.71633E-02   -0.92730E-01  2608   0.177E+00    0.164E+00
DAV:   4    -0.135533358655E+04    0.50988E-01   -0.34934E-01  2440   0.111E+00    0.733E-01
DAV:   5    -0.135533375997E+04   -0.17343E-03   -0.97709E-02  2496   0.630E-01    0.604E-01
DAV:   6    -0.135533120355E+04    0.25564E-02   -0.80602E-02  2496   0.464E-01    0.242E-01
DAV:   7    -0.135533106613E+04    0.13742E-03   -0.13061E-02  2408   0.239E-01    0.209E-01
DAV:   8    -0.135533084244E+04    0.22369E-03   -0.57904E-03  2392   0.125E-01    0.946E-02
DAV:   9    -0.135533085464E+04   -0.12198E-04   -0.26320E-03  2544   0.853E-02    0.631E-02
DAV:  10    -0.135533083288E+04    0.21754E-04   -0.55237E-04  2456   0.489E-02    0.430E-02
DAV:  11    -0.135533082974E+04    0.31411E-05   -0.34665E-04  2512   0.312E-02    0.190E-02
DAV:  12    -0.135533083100E+04   -0.12639E-05   -0.77196E-05  2520   0.165E-02    0.105E-02
DAV:  13    -0.135533083226E+04   -0.12505E-05   -0.17166E-05  2208   0.892E-03    0.730E-03
DAV:  14    -0.135533083223E+04    0.24331E-07   -0.81058E-06  1688   0.582E-03
   5 F= -.13553308E+04 E0= -.13553308E+04  d E =-.231635E+01
 BRION: g(F)=  0.244E+01 g(S)=  0.000E+00 retain N=  3 mean eig= 0.37
 eig:   0.342  0.342  0.434
 bond charge predicted
       N       E                     dE             d eps       ncg     rms          rms(c)
DAV:   1    -0.135573674455E+04   -0.40591E+00   -0.22707E+02  1360   0.210E+01    0.319E+00
DAV:   2    -0.135685431905E+04   -0.11176E+01   -0.11972E+01  2272   0.774E+00    0.168E+00
DAV:   3    -0.135689124253E+04   -0.36923E-01   -0.85454E-01  2576   0.169E+00    0.144E+00
DAV:   4    -0.135686121915E+04    0.30023E-01   -0.15270E-01  2552   0.816E-01    0.845E-01
DAV:   5    -0.135684984930E+04    0.11370E-01   -0.97994E-02  2312   0.603E-01    0.438E-01
DAV:   6    -0.135685106812E+04   -0.12188E-02   -0.42770E-02  2536   0.400E-01    0.394E-01
DAV:   7    -0.135684969194E+04    0.13762E-02   -0.23234E-02  2504   0.266E-01    0.203E-01
DAV:   8    -0.135684956771E+04    0.12423E-03   -0.48194E-03  2584   0.138E-01    0.105E-01
DAV:   9    -0.135684953857E+04    0.29141E-04   -0.11293E-03  2616   0.659E-02    0.653E-02
DAV:  10    -0.135684957075E+04   -0.32180E-04   -0.60656E-04  2248   0.422E-02    0.497E-02
DAV:  11    -0.135684953501E+04    0.35738E-04   -0.24802E-04  2584   0.310E-02    0.192E-02
DAV:  12    -0.135684954219E+04   -0.71740E-05   -0.14555E-04  2424   0.214E-02    0.180E-02
DAV:  13    -0.135684953942E+04    0.27677E-05   -0.35863E-05  2328   0.122E-02    0.103E-02
DAV:  14    -0.135684953924E+04    0.17451E-06   -0.19127E-05  1992   0.744E-03    0.349E-03
DAV:  15    -0.135684953934E+04   -0.98706E-07   -0.14251E-06  1048   0.438E-03
   6 F= -.13568495E+04 E0= -.13568495E+04  d E =-.151871E+01
 BRION: g(F)=  0.172E+01 g(S)=  0.000E+00 retain N=  4 mean eig= 0.48
 eig:   0.270  0.270  0.690  0.690
 bond charge predicted
       N       E                     dE             d eps       ncg     rms          rms(c)
DAV:   1    -0.135696905782E+04   -0.11952E+00   -0.24368E+02  1352   0.217E+01    0.307E+00
DAV:   2    -0.135816591496E+04   -0.11969E+01   -0.12556E+01  2280   0.797E+00    0.158E+00
DAV:   3    -0.135820327978E+04   -0.37365E-01   -0.87468E-01  2584   0.166E+00    0.129E+00
DAV:   4    -0.135817336881E+04    0.29911E-01   -0.15985E-01  2544   0.817E-01    0.722E-01
DAV:   5    -0.135816385078E+04    0.95180E-02   -0.66161E-02  2472   0.497E-01    0.362E-01
DAV:   6    -0.135816452906E+04   -0.67828E-03   -0.28999E-02  2576   0.328E-01    0.243E-01
DAV:   7    -0.135816411795E+04    0.41111E-03   -0.10480E-02  2424   0.198E-01    0.149E-01
DAV:   8    -0.135816427448E+04   -0.15653E-03   -0.53983E-03  2464   0.120E-01    0.938E-02
DAV:   9    -0.135816416997E+04    0.10450E-03   -0.84633E-04  2512   0.629E-02    0.616E-02
DAV:  10    -0.135816418680E+04   -0.16830E-04   -0.98428E-04  2288   0.493E-02    0.432E-02
DAV:  11    -0.135816416655E+04    0.20255E-04   -0.27709E-04  2520   0.360E-02    0.150E-02
DAV:  12    -0.135816417353E+04   -0.69839E-05   -0.10063E-04  2456   0.192E-02    0.122E-02
DAV:  13    -0.135816417306E+04    0.47419E-06   -0.24649E-05  2144   0.103E-02    0.719E-03
DAV:  14    -0.135816417297E+04    0.85056E-07   -0.98982E-06  1752   0.647E-03
   7 F= -.13581642E+04 E0= -.13581642E+04  d E =-.131463E+01
 BRION: g(F)=  0.734E+00 g(S)=  0.000E+00 retain N=  5 mean eig= 0.90
 eig:   1.637  1.637  0.244  0.244  0.748
 bond charge predicted
       N       E                     dE             d eps       ncg     rms          rms(c)
DAV:   1    -0.135835770596E+04   -0.19353E+00   -0.83154E+01  1368   0.128E+01    0.190E+00
DAV:   2    -0.135876224136E+04   -0.40454E+00   -0.42421E+00  2280   0.477E+00    0.938E-01
DAV:   3    -0.135877881687E+04   -0.16576E-01   -0.31395E-01  2616   0.952E-01    0.728E-01
DAV:   4    -0.135876883420E+04    0.99827E-02   -0.53423E-02  2496   0.490E-01    0.354E-01
DAV:   5    -0.135876825191E+04    0.58228E-03   -0.19400E-02  2480   0.279E-01    0.193E-01
DAV:   6    -0.135876851409E+04   -0.26217E-03   -0.88016E-03  2608   0.167E-01    0.102E-01
DAV:   7    -0.135876846941E+04    0.44680E-04   -0.13781E-03  2544   0.857E-02    0.713E-02
DAV:   8    -0.135876847993E+04   -0.10522E-04   -0.75582E-04  2448   0.476E-02    0.317E-02
DAV:   9    -0.135876847697E+04    0.29640E-05   -0.13772E-04  2584   0.275E-02    0.197E-02
DAV:  10    -0.135876848224E+04   -0.52726E-05   -0.10174E-04  2536   0.171E-02    0.158E-02
DAV:  11    -0.135876847994E+04    0.22981E-05   -0.26177E-05  2384   0.110E-02    0.761E-03
DAV:  12    -0.135876848044E+04   -0.49685E-06   -0.14418E-05  1864   0.722E-03    0.521E-03
DAV:  13    -0.135876848015E+04    0.28804E-06   -0.14252E-06  1024   0.487E-03
   8 F= -.13587685E+04 E0= -.13587685E+04  d E =-.604307E+00
 BRION: g(F)=  0.409E+00 g(S)=  0.000E+00 retain N=  6 mean eig= 0.81
 eig:   1.650  1.650  0.246  0.246  0.543  0.543
 bond charge predicted
       N       E                     dE             d eps       ncg     rms          rms(c)
DAV:   1    -0.135891020627E+04   -0.14173E+00   -0.66524E+01  1368   0.115E+01    0.159E+00
DAV:   2    -0.135923445900E+04   -0.32425E+00   -0.34071E+00  2296   0.429E+00    0.759E-01
DAV:   3    -0.135925101358E+04   -0.16555E-01   -0.25900E-01  2616   0.843E-01    0.592E-01
DAV:   4    -0.135924469806E+04    0.63155E-02   -0.31883E-02  2536   0.404E-01    0.331E-01
DAV:   5    -0.135924343645E+04    0.12616E-02   -0.15925E-02  2392   0.249E-01    0.144E-01
DAV:   6    -0.135924381871E+04   -0.38226E-03   -0.59589E-03  2560   0.144E-01    0.102E-01
DAV:   7    -0.135924380476E+04    0.13954E-04   -0.14883E-03  2600   0.806E-02    0.676E-02
DAV:   8    -0.135924378220E+04    0.22559E-04   -0.50714E-04  2616   0.441E-02    0.360E-02
DAV:   9    -0.135924378649E+04   -0.42885E-05   -0.13675E-04  2592   0.267E-02    0.197E-02
DAV:  10    -0.135924379067E+04   -0.41843E-05   -0.75217E-05  2552   0.160E-02    0.139E-02
DAV:  11    -0.135924378858E+04    0.20898E-05   -0.21413E-05  2152   0.979E-03    0.665E-03
DAV:  12    -0.135924378906E+04   -0.47957E-06   -0.99664E-06  1760   0.647E-03
   9 F= -.13592438E+04 E0= -.13592438E+04  d E =-.475309E+00
 BRION: g(F)=  0.347E+00 g(S)=  0.000E+00 retain N=  7 mean eig= 0.85
 eig:   1.713  1.244  1.244  0.449  0.602  0.366  0.366
 bond charge predicted
       N       E                     dE             d eps       ncg     rms          rms(c)
DAV:   1    -0.135929278855E+04   -0.49000E-01   -0.82975E+01  1376   0.131E+01    0.155E+00
DAV:   2    -0.135970956293E+04   -0.41677E+00   -0.44227E+00  2288   0.495E+00    0.789E-01
DAV:   3    -0.135973569737E+04   -0.26134E-01   -0.36183E-01  2584   0.102E+00    0.641E-01
DAV:   4    -0.135973111800E+04    0.45794E-02   -0.35306E-02  2592   0.445E-01    0.453E-01
DAV:   5    -0.135972701155E+04    0.41064E-02   -0.18987E-02  2384   0.266E-01    0.184E-01
DAV:   6    -0.135972740148E+04   -0.38993E-03   -0.10275E-02  2472   0.194E-01    0.147E-01
DAV:   7    -0.135972739486E+04    0.66254E-05   -0.54885E-03  2464   0.138E-01    0.996E-02
DAV:   8    -0.135972738133E+04    0.13533E-04   -0.18486E-03  2584   0.846E-02    0.628E-02
DAV:   9    -0.135972735591E+04    0.25419E-04   -0.36849E-04  2560   0.416E-02    0.434E-02
DAV:  10    -0.135972735818E+04   -0.22740E-05   -0.22897E-04  2560   0.262E-02    0.221E-02
DAV:  11    -0.135972736107E+04   -0.28882E-05   -0.72078E-05  2456   0.186E-02    0.135E-02
DAV:  12    -0.135972736000E+04    0.10655E-05   -0.29317E-05  2320   0.127E-02    0.106E-02
DAV:  13    -0.135972735961E+04    0.39357E-06   -0.20600E-05  2048   0.815E-03    0.599E-03
DAV:  14    -0.135972735918E+04    0.43154E-06   -0.25672E-06  1072   0.512E-03
  10 F= -.13597274E+04 E0= -.13597274E+04  d E =-.483570E+00
 BRION: g(F)=  0.284E+00 g(S)=  0.000E+00 retain N=  8 mean eig= 1.81
 eig:   3.817  3.817  2.362  2.362  0.341  0.341  0.727  0.727
 bond charge predicted
       N       E                     dE             d eps       ncg     rms          rms(c)
DAV:   1    -0.135973460182E+04   -0.72422E-02   -0.82715E+01  1384   0.130E+01    0.157E+00
DAV:   2    -0.136016174346E+04   -0.42714E+00   -0.45305E+00  2280   0.499E+00    0.793E-01
DAV:   3    -0.136018724250E+04   -0.25499E-01   -0.36832E-01  2600   0.101E+00    0.639E-01
DAV:   4    -0.136018127897E+04    0.59635E-02   -0.35978E-02  2600   0.452E-01    0.435E-01
DAV:   5    -0.136017666341E+04    0.46156E-02   -0.19406E-02  2328   0.271E-01    0.163E-01
DAV:   6    -0.136017726384E+04   -0.60044E-03   -0.10467E-02  2480   0.187E-01    0.136E-01
DAV:   7    -0.136017723277E+04    0.31070E-04   -0.39682E-03  2504   0.118E-01    0.907E-02
DAV:   8    -0.136017721312E+04    0.19652E-04   -0.13525E-03  2608   0.720E-02    0.519E-02
DAV:   9    -0.136017720020E+04    0.12922E-04   -0.27462E-04  2448   0.355E-02    0.373E-02
DAV:  10    -0.136017720568E+04   -0.54788E-05   -0.15980E-04  2464   0.232E-02    0.200E-02
DAV:  11    -0.136017720549E+04    0.18989E-06   -0.58280E-05  2440   0.167E-02    0.924E-03
DAV:  12    -0.136017720650E+04   -0.10151E-05   -0.20870E-05  2272   0.104E-02    0.877E-03
DAV:  13    -0.136017720580E+04    0.70671E-06   -0.10508E-05  1648   0.656E-03    0.405E-03
DAV:  14    -0.136017720568E+04    0.11531E-06   -0.18517E-06  1000   0.530E-03
  11 F= -.13601772E+04 E0= -.13601772E+04  d E =-.449847E+00
 BRION: g(F)=  0.182E+00 g(S)=  0.000E+00 retain N=  9 mean eig= 1.99
 eig:   4.191  4.191  2.837  2.837  1.696  0.239  0.239  0.818  0.818
 bond charge predicted
       N       E                     dE             d eps       ncg     rms          rms(c)
DAV:   1    -0.136028014816E+04   -0.10294E+00   -0.21887E+01  1392   0.677E+00    0.836E-01
DAV:   2    -0.136039508307E+04   -0.11493E+00   -0.12258E+00  2296   0.265E+00    0.423E-01
DAV:   3    -0.136040174895E+04   -0.66659E-02   -0.98448E-02  2576   0.533E-01    0.344E-01
DAV:   4    -0.136040007220E+04    0.16767E-02   -0.10585E-02  2576   0.240E-01    0.232E-01
DAV:   5    -0.136039887796E+04    0.11942E-02   -0.55634E-03  2392   0.148E-01    0.887E-02
DAV:   6    -0.136039904376E+04   -0.16580E-03   -0.29658E-03  2504   0.102E-01    0.735E-02
DAV:   7    -0.136039903398E+04    0.97867E-05   -0.11676E-03  2496   0.650E-02    0.495E-02
DAV:   8    -0.136039903017E+04    0.38125E-05   -0.45325E-04  2576   0.403E-02    0.284E-02
DAV:   9    -0.136039902687E+04    0.32996E-05   -0.76403E-05  2512   0.197E-02    0.211E-02
DAV:  10    -0.136039902738E+04   -0.51202E-06   -0.53656E-05  2496   0.132E-02    0.115E-02
DAV:  11    -0.136039902738E+04   -0.57771E-08   -0.17357E-05  2128   0.939E-03    0.547E-03
DAV:  12    -0.136039902754E+04   -0.15458E-06   -0.56636E-06  1504   0.608E-03
  12 F= -.13603990E+04 E0= -.13603990E+04  d E =-.221822E+00
 BRION: g(F)=  0.134E+00 g(S)=  0.000E+00 retain N= 10 mean eig= 2.48
 eig:   7.266  7.266  3.345  3.345  0.846  0.846  0.224  0.224  0.696  0.696
 bond charge predicted
       N       E                     dE             d eps       ncg     rms          rms(c)
DAV:   1    -0.136037492231E+04    0.24105E-01   -0.67703E+01  1392   0.119E+01    0.141E+00
DAV:   2    -0.136073537872E+04   -0.36046E+00   -0.38308E+00  2296   0.472E+00    0.708E-01
DAV:   3    -0.136075622967E+04   -0.20851E-01   -0.30389E-01  2584   0.928E-01    0.578E-01
DAV:   4    -0.136075195393E+04    0.42757E-02   -0.30001E-02  2592   0.411E-01    0.417E-01
DAV:   5    -0.136074751054E+04    0.44434E-02   -0.14565E-02  2384   0.236E-01    0.178E-01
DAV:   6    -0.136074751530E+04   -0.47631E-05   -0.99924E-03  2328   0.184E-01    0.115E-01
DAV:   7    -0.136074763878E+04   -0.12347E-03   -0.49227E-03  2400   0.124E-01    0.974E-02
DAV:   8    -0.136074760373E+04    0.35050E-04   -0.14997E-03  2600   0.773E-02    0.634E-02
DAV:   9    -0.136074757468E+04    0.29050E-04   -0.48395E-04  2568   0.426E-02    0.374E-02
DAV:  10    -0.136074758333E+04   -0.86553E-05   -0.15820E-04  2568   0.244E-02    0.244E-02
DAV:  11    -0.136074758438E+04   -0.10475E-05   -0.51019E-05  2512   0.152E-02    0.160E-02
DAV:  12    -0.136074758284E+04    0.15407E-05   -0.47545E-05  2304   0.135E-02    0.122E-02
DAV:  13    -0.136074758184E+04    0.10006E-05   -0.20179E-05  2104   0.908E-03    0.694E-03
DAV:  14    -0.136074758179E+04    0.47818E-07   -0.78494E-06  1696   0.564E-03
  13 F= -.13607476E+04 E0= -.13607476E+04  d E =-.348554E+00
 BRION: g(F)=  0.107E+00 g(S)=  0.000E+00 retain N= 11 mean eig= 2.90
 eig:   6.912  6.912  5.845  5.845  1.803  1.803  0.162  0.162  0.866  0.811
 bond charge predicted
       N       E                     dE             d eps       ncg     rms          rms(c)
DAV:   1    -0.136078395330E+04   -0.36371E-01   -0.31386E+01  1392   0.804E+00    0.983E-01
DAV:   2    -0.136094788636E+04   -0.16393E+00   -0.17392E+00  2296   0.315E+00    0.486E-01
DAV:   3    -0.136095712529E+04   -0.92389E-02   -0.13760E-01  2584   0.618E-01    0.394E-01
DAV:   4    -0.136095480382E+04    0.23215E-02   -0.13956E-02  2576   0.279E-01    0.270E-01
DAV:   5    -0.136095298431E+04    0.18195E-02   -0.69995E-03  2328   0.165E-01    0.108E-01
DAV:   6    -0.136095315407E+04   -0.16976E-03   -0.42132E-03  2424   0.120E-01    0.812E-02
DAV:   7    -0.136095314556E+04    0.85153E-05   -0.17115E-03  2392   0.768E-02    0.588E-02
DAV:   8    -0.136095314581E+04   -0.25368E-06   -0.70201E-04  2584   0.494E-02    0.369E-02
DAV:   9    -0.136095313710E+04    0.87096E-05   -0.14005E-04  2544   0.253E-02    0.256E-02
DAV:  10    -0.136095313659E+04    0.50664E-06   -0.67647E-05  2576   0.152E-02    0.140E-02
DAV:  11    -0.136095313748E+04   -0.88416E-06   -0.23449E-05  2224   0.103E-02    0.829E-03
DAV:  12    -0.136095313699E+04    0.48552E-06   -0.11128E-05  1840   0.787E-03    0.596E-03
DAV:  13    -0.136095313704E+04   -0.52067E-07   -0.82752E-06  1712   0.568E-03
  14 F= -.13609531E+04 E0= -.13609531E+04  d E =-.205555E+00
 BRION: g(F)=  0.797E-01 g(S)=  0.000E+00 retain N=  7 mean eig= 3.22
 eig:   7.816  7.816  2.046  2.046  0.954  0.954  0.923
 bond charge predicted
       N       E                     dE             d eps       ncg     rms          rms(c)
DAV:   1    -0.136099049358E+04   -0.37357E-01   -0.23766E+01  1384   0.700E+00    0.819E-01
DAV:   2    -0.136111410414E+04   -0.12361E+00   -0.13145E+00  2272   0.276E+00    0.416E-01
DAV:   3    -0.136112137358E+04   -0.72694E-02   -0.10592E-01  2600   0.552E-01    0.339E-01
DAV:   4    -0.136111984348E+04    0.15301E-02   -0.99185E-03  2600   0.236E-01    0.245E-01
DAV:   5    -0.136111824401E+04    0.15995E-02   -0.55322E-03  2320   0.144E-01    0.102E-01
DAV:   6    -0.136111830305E+04   -0.59043E-04   -0.37181E-03  2376   0.113E-01    0.768E-02
DAV:   7    -0.136111831222E+04   -0.91677E-05   -0.17490E-03  2392   0.750E-02    0.573E-02
DAV:   8    -0.136111830420E+04    0.80184E-05   -0.59261E-04  2600   0.472E-02    0.367E-02
DAV:   9    -0.136111829477E+04    0.94299E-05   -0.14230E-04  2544   0.242E-02    0.231E-02
DAV:  10    -0.136111829581E+04   -0.10411E-05   -0.57468E-05  2552   0.141E-02    0.128E-02
DAV:  11    -0.136111829697E+04   -0.11615E-05   -0.17944E-05  2120   0.945E-03    0.855E-03
DAV:  12    -0.136111829642E+04    0.55588E-06   -0.11187E-05  1752   0.763E-03    0.681E-03
DAV:  13    -0.136111829606E+04    0.35416E-06   -0.68280E-06  1560   0.595E-03
  15 F= -.13611183E+04 E0= -.13611183E+04  d E =-.165159E+00
 BRION: g(F)=  0.676E-01 g(S)=  0.000E+00 retain N=  4 mean eig= 3.30
 eig:   5.350  5.350  1.257  1.257
 bond charge predicted
       N       E                     dE             d eps       ncg     rms          rms(c)
DAV:   1    -0.136116081641E+04   -0.42520E-01   -0.15588E+01  1376   0.566E+00    0.677E-01
DAV:   2    -0.136124044422E+04   -0.79628E-01   -0.84521E-01  2288   0.219E+00    0.336E-01
DAV:   3    -0.136124517211E+04   -0.47279E-02   -0.68027E-02  2592   0.441E-01    0.274E-01
DAV:   4    -0.136124417076E+04    0.10013E-02   -0.65067E-03  2576   0.190E-01    0.192E-01
DAV:   5    -0.136124322987E+04    0.94089E-03   -0.37387E-03  2304   0.122E-01    0.759E-02
DAV:   6    -0.136124334181E+04   -0.11194E-03   -0.23052E-03  2400   0.909E-02    0.663E-02
DAV:   7    -0.136124332265E+04    0.19158E-04   -0.96933E-04  2408   0.574E-02    0.451E-02
DAV:   8    -0.136124331756E+04    0.50918E-05   -0.37737E-04  2528   0.368E-02    0.258E-02
DAV:   9    -0.136124331389E+04    0.36709E-05   -0.70517E-05  2488   0.182E-02    0.180E-02
DAV:  10    -0.136124331408E+04   -0.19193E-06   -0.35559E-05  2504   0.109E-02    0.946E-03
DAV:  11    -0.136124331431E+04   -0.23148E-06   -0.11150E-05  1736   0.804E-03    0.575E-03
DAV:  12    -0.136124331446E+04   -0.15089E-06   -0.73111E-06  1616   0.641E-03
  16 F= -.13612433E+04 E0= -.13612433E+04  d E =-.125018E+00
 BRION: g(F)=  0.599E-01 g(S)=  0.000E+00 retain N=  3 mean eig= 3.25
 eig:   4.216  4.216  1.309
 bond charge predicted
       N       E                     dE             d eps       ncg     rms          rms(c)
DAV:   1    -0.136128539390E+04   -0.42080E-01   -0.13408E+01  1376   0.524E+00    0.596E-01
DAV:   2    -0.136135287163E+04   -0.67478E-01   -0.71364E-01  2280   0.203E+00    0.304E-01
DAV:   3    -0.136135695409E+04   -0.40825E-02   -0.57243E-02  2576   0.403E-01    0.246E-01
DAV:   4    -0.136135618908E+04    0.76501E-03   -0.51435E-03  2584   0.169E-01    0.180E-01
DAV:   5    -0.136135532032E+04    0.86876E-03   -0.31311E-03  2296   0.111E-01    0.700E-02
DAV:   6    -0.136135540133E+04   -0.81011E-04   -0.20436E-03  2384   0.842E-02    0.592E-02
DAV:   7    -0.136135539592E+04    0.54057E-05   -0.81419E-04  2408   0.523E-02    0.412E-02
DAV:   8    -0.136135538842E+04    0.74999E-05   -0.28105E-04  2552   0.327E-02    0.226E-02
DAV:   9    -0.136135538539E+04    0.30321E-05   -0.57411E-05  2360   0.161E-02    0.152E-02
DAV:  10    -0.136135538591E+04   -0.51653E-06   -0.27561E-05  2344   0.982E-03    0.773E-03
DAV:  11    -0.136135538582E+04    0.90673E-07   -0.42249E-06  1200   0.671E-03
  17 F= -.13613554E+04 E0= -.13613554E+04  d E =-.112071E+00
 BRION: g(F)=  0.551E-01 g(S)=  0.000E+00 retain N=  4 mean eig= 4.59
 eig:   7.711  7.711  1.461  1.461
 bond charge predicted
       N       E                     dE             d eps       ncg     rms          rms(c)
DAV:   1    -0.136138739377E+04   -0.32008E-01   -0.19288E+01  1376   0.626E+00    0.705E-01
DAV:   2    -0.136148345416E+04   -0.96060E-01   -0.10119E+00  2296   0.240E+00    0.357E-01
DAV:   3    -0.136148899618E+04   -0.55420E-02   -0.77935E-02  2568   0.471E-01    0.284E-01
DAV:   4    -0.136148790042E+04    0.10958E-02   -0.70736E-03  2576   0.196E-01    0.203E-01
DAV:   5    -0.136148676144E+04    0.11390E-02   -0.43141E-03  2304   0.134E-01    0.740E-02
DAV:   6    -0.136148692297E+04   -0.16153E-03   -0.26476E-03  2456   0.957E-02    0.679E-02
DAV:   7    -0.136148690984E+04    0.13128E-04   -0.83832E-04  2512   0.551E-02    0.462E-02
DAV:   8    -0.136148689721E+04    0.12631E-04   -0.30373E-04  2536   0.340E-02    0.231E-02
DAV:   9    -0.136148689495E+04    0.22566E-05   -0.59488E-05  2312   0.167E-02    0.159E-02
DAV:  10    -0.136148689587E+04   -0.91657E-06   -0.24242E-05  2344   0.982E-03    0.776E-03
DAV:  11    -0.136148689564E+04    0.22595E-06   -0.40938E-06  1232   0.647E-03
  18 F= -.13614869E+04 E0= -.13614869E+04  d E =-.131510E+00
 BRION: g(F)=  0.514E-01 g(S)=  0.000E+00 retain N=  4 mean eig= 4.67
 eig:   7.824  7.824  1.512  1.512
 bond charge predicted
       N       E                     dE             d eps       ncg     rms          rms(c)
DAV:   1    -0.136152560540E+04   -0.38710E-01   -0.13395E+01  1376   0.524E+00    0.593E-01
DAV:   2    -0.136159247333E+04   -0.66868E-01   -0.70666E-01  2280   0.201E+00    0.303E-01
DAV:   3    -0.136159656723E+04   -0.40939E-02   -0.57013E-02  2560   0.405E-01    0.243E-01
DAV:   4    -0.136159582098E+04    0.74624E-03   -0.51430E-03  2560   0.168E-01    0.176E-01
DAV:   5    -0.136159499694E+04    0.82405E-03   -0.31288E-03  2312   0.113E-01    0.666E-02
DAV:   6    -0.136159509636E+04   -0.99429E-04   -0.19424E-03  2432   0.830E-02    0.591E-02
DAV:   7    -0.136159508652E+04    0.98456E-05   -0.69895E-04  2472   0.497E-02    0.399E-02
DAV:   8    -0.136159507984E+04    0.66764E-05   -0.25198E-04  2520   0.311E-02    0.209E-02
DAV:   9    -0.136159507777E+04    0.20753E-05   -0.47834E-05  2272   0.151E-02    0.145E-02
DAV:  10    -0.136159507834E+04   -0.57351E-06   -0.23730E-05  2184   0.932E-03    0.716E-03
DAV:  11    -0.136159507801E+04    0.32605E-06   -0.31676E-06  1112   0.650E-03
  19 F= -.13615951E+04 E0= -.13615951E+04  d E =-.108182E+00
 BRION: g(F)=  0.488E-01 g(S)=  0.000E+00 retain N=  4 mean eig= 3.71
 eig:   6.035  6.035  1.375  1.375
 bond charge predicted
       N       E                     dE             d eps       ncg     rms          rms(c)
DAV:   1    -0.136163569538E+04   -0.40617E-01   -0.85072E+00  1376   0.417E+00    0.475E-01
DAV:   2    -0.136167811103E+04   -0.42416E-01   -0.44773E-01  2280   0.160E+00    0.240E-01
DAV:   3    -0.136168069185E+04   -0.25808E-02   -0.36087E-02  2584   0.319E-01    0.192E-01
DAV:   4    -0.136168017207E+04    0.51978E-03   -0.31714E-03  2592   0.134E-01    0.136E-01
DAV:   5    -0.136167966449E+04    0.50758E-03   -0.19416E-03  2296   0.903E-02    0.489E-02
DAV:   6    -0.136167973441E+04   -0.69924E-04   -0.11814E-03  2448   0.642E-02    0.445E-02
DAV:   7    -0.136167973231E+04    0.20988E-05   -0.37043E-04  2488   0.363E-02    0.303E-02
DAV:   8    -0.136167972625E+04    0.60687E-05   -0.12307E-04  2544   0.222E-02    0.152E-02
DAV:   9    -0.136167972542E+04    0.82457E-06   -0.24811E-05  2224   0.109E-02    0.101E-02
DAV:  10    -0.136167972559E+04   -0.16874E-06   -0.87050E-06  1656   0.674E-03
  20 F= -.13616797E+04 E0= -.13616797E+04  d E =-.846476E-01
 BRION: g(F)=  0.447E-01 g(S)=  0.000E+00 retain N=  4 mean eig= 4.33
 eig:   7.428  7.428  1.237  1.237
