 running on  160 total cores
 distrk:  each k-point on  160 cores,    1 groups
 distr:  one band on   20 cores,    8 groups
 using from now: INCAR     
 vasp.5.4.4.18Apr17-6-g9f103f2a35 (build May 01 2020 14:22:42) gamma-only       
  
 POSCAR found type information on POSCAR  O  La Zr Li Al
 POSCAR found :  5 types and     188 ions
 scaLAPACK will be used
 LDA part: xc-table for Pade appr. of Perdew
 POSCAR, INCAR and KPOINTS ok, starting setup
 FFT: planning ...
 WAVECAR not read
 WARNING: random wavefunctions but no delay for mixing, default for NELMDL
 entering main loop
       N       E                     dE             d eps       ncg     rms          rms(c)
DAV:   1     0.253500321539E+05    0.25350E+05   -0.42118E+05  1608   0.253E+03
DAV:   2     0.936992549396E+04   -0.15980E+05   -0.14746E+05  1424   0.707E+02
DAV:   3     0.263026180676E+04   -0.67397E+04   -0.61491E+04  1504   0.357E+02
DAV:   4    -0.387652555442E+03   -0.30179E+04   -0.28222E+04  2048   0.223E+02
DAV:   5    -0.140815873712E+04   -0.10205E+04   -0.97921E+03  2536   0.140E+02    0.117E+02
DAV:   6    -0.129790699636E+04    0.11025E+03   -0.14664E+03  2440   0.667E+01    0.501E+01
DAV:   7    -0.132058670720E+04   -0.22680E+02   -0.38555E+02  2552   0.345E+01    0.251E+01
DAV:   8    -0.132746919763E+04   -0.68825E+01   -0.24251E+02  2536   0.261E+01    0.243E+01
DAV:   9    -0.132284856009E+04    0.46206E+01   -0.44055E+01  2568   0.139E+01    0.873E+00
DAV:  10    -0.132331175700E+04   -0.46320E+00   -0.18345E+01  2608   0.757E+00    0.683E+00
DAV:  11    -0.132379377510E+04   -0.48202E+00   -0.53831E+00  2616   0.409E+00    0.448E+00
DAV:  12    -0.132361689040E+04    0.17688E+00   -0.22611E+00  2544   0.331E+00    0.300E+00
DAV:  13    -0.132363869411E+04   -0.21804E-01   -0.10515E+00  2528   0.184E+00    0.181E+00
DAV:  14    -0.132363480022E+04    0.38939E-02   -0.24387E-01  2568   0.104E+00    0.107E+00
DAV:  15    -0.132364015707E+04   -0.53568E-02   -0.89659E-02  2552   0.582E-01    0.747E-01
DAV:  16    -0.132364084270E+04   -0.68563E-03   -0.27691E-02  2600   0.324E-01    0.418E-01
DAV:  17    -0.132364099306E+04   -0.15036E-03   -0.22009E-02  2392   0.275E-01    0.240E-01
DAV:  18    -0.132364109889E+04   -0.10583E-03   -0.47112E-03  2472   0.147E-01    0.122E-01
DAV:  19    -0.132364108898E+04    0.99147E-05   -0.32203E-03  2416   0.105E-01    0.801E-02
DAV:  20    -0.132364115306E+04   -0.64083E-04   -0.61493E-04  2536   0.488E-02    0.235E-02
DAV:  21    -0.132364117391E+04   -0.20848E-04   -0.21877E-04  2624   0.255E-02    0.334E-02
DAV:  22    -0.132364119041E+04   -0.16503E-04   -0.73611E-05  2464   0.146E-02    0.122E-02
DAV:  23    -0.132364119183E+04   -0.14217E-05   -0.29950E-05  1704   0.936E-03    0.781E-03
DAV:  24    -0.132364119475E+04   -0.29198E-05   -0.18578E-05  1752   0.806E-03    0.458E-03
DAV:  25    -0.132364119652E+04   -0.17744E-05   -0.44498E-06  1016   0.534E-03    0.234E-03
DAV:  26    -0.132364119618E+04    0.34882E-06   -0.26763E-06   992   0.467E-03
   1 F= -.13236412E+04 E0= -.13236412E+04  d E =-.132364E+04
 BRION: g(F)=  0.624E+02 g(S)=  0.000E+00
 bond charge predicted
       N       E                     dE             d eps       ncg     rms          rms(c)
DAV:   1    -0.127948083393E+04    0.44160E+02   -0.84098E+03  1680   0.137E+02    0.315E+01
DAV:   2    -0.134475644555E+04   -0.65276E+02   -0.75979E+02  2576   0.616E+01    0.166E+01
DAV:   3    -0.134247996981E+04    0.22765E+01   -0.43741E+01  2616   0.168E+01    0.105E+01
DAV:   4    -0.134027048751E+04    0.22095E+01   -0.16019E+01  2408   0.803E+00    0.481E+00
DAV:   5    -0.134009190350E+04    0.17858E+00   -0.45041E+00  2528   0.473E+00    0.335E+00
DAV:   6    -0.134002155685E+04    0.70347E-01   -0.29390E+00  2608   0.298E+00    0.183E+00
DAV:   7    -0.133999735361E+04    0.24203E-01   -0.42725E-01  2536   0.170E+00    0.102E+00
DAV:   8    -0.134000285944E+04   -0.55058E-02   -0.34711E-01  2608   0.100E+00    0.731E-01
DAV:   9    -0.134000279613E+04    0.63316E-04   -0.57006E-02  2576   0.518E-01    0.563E-01
DAV:  10    -0.133999966054E+04    0.31356E-02   -0.37166E-02  2624   0.346E-01    0.216E-01
DAV:  11    -0.134000045640E+04   -0.79586E-03   -0.14734E-02  2560   0.235E-01    0.145E-01
DAV:  12    -0.134000057140E+04   -0.11499E-03   -0.27546E-03  2616   0.116E-01    0.105E-01
DAV:  13    -0.134000045609E+04    0.11530E-03   -0.17755E-03  2528   0.784E-02    0.275E-02
DAV:  14    -0.134000049082E+04   -0.34725E-04   -0.37927E-04  2424   0.427E-02    0.159E-02
DAV:  15    -0.134000050084E+04   -0.10018E-04   -0.87737E-05  2624   0.185E-02    0.147E-02
DAV:  16    -0.134000049901E+04    0.18265E-05   -0.31953E-05  2568   0.118E-02    0.761E-03
DAV:  17    -0.134000050105E+04   -0.20362E-05   -0.20372E-05  2416   0.842E-03    0.489E-03
DAV:  18    -0.134000050081E+04    0.24248E-06   -0.18665E-06  1128   0.453E-03
   2 F= -.13400005E+04 E0= -.13400005E+04  d E =-.163593E+02
 BRION: g(F)=  0.123E+03 g(S)=  0.000E+00 retain N=  1 mean eig= 0.38
 eig:   0.382
 bond charge predicted
       N       E                     dE             d eps       ncg     rms          rms(c)
DAV:   1    -0.132279960866E+04    0.17201E+02   -0.25467E+03  1336   0.596E+01    0.229E+01
DAV:   2    -0.135230003815E+04   -0.29500E+02   -0.38077E+02  2584   0.328E+01    0.229E+01
DAV:   3    -0.134956813799E+04    0.27319E+01   -0.39138E+01  2528   0.119E+01    0.162E+01
DAV:   4    -0.134724522385E+04    0.23229E+01   -0.33382E+01  2128   0.632E+00    0.746E+00
DAV:   5    -0.134810830827E+04   -0.86308E+00   -0.86392E+00  2424   0.451E+00    0.800E+00
DAV:   6    -0.134693653195E+04    0.11718E+01   -0.10086E+01  2480   0.361E+00    0.177E+00
DAV:   7    -0.134700392366E+04   -0.67392E-01   -0.13201E+00  2376   0.260E+00    0.117E+00
DAV:   8    -0.134700085663E+04    0.30670E-02   -0.39144E-01  2600   0.103E+00    0.549E-01
DAV:   9    -0.134700121282E+04   -0.35620E-03   -0.58138E-02  2520   0.498E-01    0.407E-01
DAV:  10    -0.134700105707E+04    0.15575E-03   -0.31422E-02  2464   0.308E-01    0.200E-01
DAV:  11    -0.134700170482E+04   -0.64775E-03   -0.92972E-03  2536   0.187E-01    0.227E-01
DAV:  12    -0.134700087400E+04    0.83082E-03   -0.34845E-03  2616   0.114E-01    0.113E-01
DAV:  13    -0.134700087017E+04    0.38301E-05   -0.34197E-03  2528   0.927E-02    0.455E-02
DAV:  14    -0.134700088822E+04   -0.18048E-04   -0.41023E-04  2504   0.436E-02    0.302E-02
DAV:  15    -0.134700088626E+04    0.19632E-05   -0.83343E-05  2616   0.186E-02    0.171E-02
DAV:  16    -0.134700088765E+04   -0.13973E-05   -0.46131E-05  2552   0.120E-02    0.106E-02
DAV:  17    -0.134700088766E+04   -0.50059E-08   -0.92471E-06  1952   0.714E-03
   3 F= -.13470009E+04 E0= -.13470009E+04  d E =-.700039E+01
 BRION: g(F)=  0.444E+02 g(S)=  0.000E+00 retain N=  2 mean eig= 1.02
 eig:   0.208  1.826
 bond charge predicted
       N       E                     dE             d eps       ncg     rms          rms(c)
DAV:   1    -0.134440932421E+04    0.25916E+01   -0.84881E+02  1344   0.311E+01    0.103E+01
DAV:   2    -0.135222729321E+04   -0.78180E+01   -0.96626E+01  2560   0.179E+01    0.777E+00
DAV:   3    -0.135132900878E+04    0.89828E+00   -0.65775E+00  2240   0.539E+00    0.567E+00
DAV:   4    -0.135094949644E+04    0.37951E+00   -0.81081E+00  2128   0.381E+00    0.267E+00
DAV:   5    -0.135100465658E+04   -0.55160E-01   -0.13018E+00  2240   0.211E+00    0.311E+00
DAV:   6    -0.135082955057E+04    0.17511E+00   -0.86395E-01  2296   0.141E+00    0.901E-01
DAV:   7    -0.135084487016E+04   -0.15320E-01   -0.44635E-01  2384   0.100E+00    0.809E-01
DAV:   8    -0.135084061487E+04    0.42553E-02   -0.65266E-02  2400   0.511E-01    0.621E-01
DAV:   9    -0.135083617377E+04    0.44411E-02   -0.27374E-02  2504   0.271E-01    0.263E-01
DAV:  10    -0.135083612337E+04    0.50402E-04   -0.88435E-03  2528   0.154E-01    0.126E-01
DAV:  11    -0.135083603603E+04    0.87336E-04   -0.26076E-03  2560   0.931E-02    0.586E-02
DAV:  12    -0.135083606106E+04   -0.25029E-04   -0.10806E-03  2512   0.559E-02    0.360E-02
DAV:  13    -0.135083608130E+04   -0.20237E-04   -0.19212E-04  2592   0.310E-02    0.408E-02
DAV:  14    -0.135083605636E+04    0.24938E-04   -0.11959E-04  2496   0.205E-02    0.193E-02
DAV:  15    -0.135083605573E+04    0.63037E-06   -0.61713E-05  2320   0.137E-02    0.516E-03
DAV:  16    -0.135083605600E+04   -0.27593E-06   -0.69992E-06  1632   0.613E-03
   4 F= -.13508361E+04 E0= -.13508361E+04  d E =-.383517E+01
 BRION: g(F)=  0.805E+01 g(S)=  0.000E+00 retain N=  2 mean eig= 0.22
 eig:   0.224  0.224
 bond charge predicted
       N       E                     dE             d eps       ncg     rms          rms(c)
DAV:   1    -0.135250348663E+04   -0.16674E+01   -0.30235E+02  1360   0.241E+01    0.451E+00
DAV:   2    -0.135407631407E+04   -0.15728E+01   -0.17147E+01  2264   0.902E+00    0.234E+00
DAV:   3    -0.135412564016E+04   -0.49326E-01   -0.14042E+00  2616   0.216E+00    0.188E+00
DAV:   4    -0.135407624030E+04    0.49400E-01   -0.30607E-01  2536   0.117E+00    0.932E-01
DAV:   5    -0.135407274989E+04    0.34904E-02   -0.11170E-01  2456   0.683E-01    0.552E-01
DAV:   6    -0.135407181466E+04    0.93523E-03   -0.62939E-02  2560   0.464E-01    0.292E-01
DAV:   7    -0.135407179928E+04    0.15383E-04   -0.14548E-02  2512   0.244E-01    0.223E-01
DAV:   8    -0.135407152272E+04    0.27656E-03   -0.47055E-03  2608   0.127E-01    0.116E-01
DAV:   9    -0.135407150458E+04    0.18137E-04   -0.20821E-03  2616   0.860E-02    0.657E-02
DAV:  10    -0.135407152105E+04   -0.16466E-04   -0.58032E-04  2320   0.522E-02    0.546E-02
DAV:  11    -0.135407151160E+04    0.94512E-05   -0.44434E-04  2384   0.348E-02    0.261E-02
DAV:  12    -0.135407150815E+04    0.34463E-05   -0.11710E-04  2504   0.215E-02    0.143E-02
DAV:  13    -0.135407151019E+04   -0.20387E-05   -0.44385E-05  2472   0.126E-02    0.101E-02
DAV:  14    -0.135407150977E+04    0.41553E-06   -0.11393E-05  2008   0.672E-03    0.659E-03
DAV:  15    -0.135407150972E+04    0.57000E-07   -0.83158E-06  1640   0.550E-03
   5 F= -.13540715E+04 E0= -.13540715E+04  d E =-.323545E+01
 BRION: g(F)=  0.342E+01 g(S)=  0.000E+00 retain N=  3 mean eig= 0.29
 eig:   0.249  0.023  0.597
 bond charge predicted
       N       E                     dE             d eps       ncg     rms          rms(c)
DAV:   1    -0.135478090809E+04   -0.70940E+00   -0.17109E+02  1384   0.177E+01    0.311E+00
DAV:   2    -0.135563216038E+04   -0.85125E+00   -0.90616E+00  2264   0.643E+00    0.159E+00
DAV:   3    -0.135564466274E+04   -0.12502E-01   -0.61510E-01  2600   0.143E+00    0.132E+00
DAV:   4    -0.135561098038E+04    0.33682E-01   -0.19529E-01  2496   0.872E-01    0.599E-01
DAV:   5    -0.135561110464E+04   -0.12426E-03   -0.72939E-02  2472   0.529E-01    0.500E-01
DAV:   6    -0.135560855648E+04    0.25482E-02   -0.50621E-02  2504   0.392E-01    0.193E-01
DAV:   7    -0.135560874511E+04   -0.18863E-03   -0.96436E-03  2496   0.207E-01    0.159E-01
DAV:   8    -0.135560858138E+04    0.16373E-03   -0.27205E-03  2496   0.929E-02    0.667E-02
DAV:   9    -0.135560862316E+04   -0.41784E-04   -0.15043E-03  2568   0.640E-02    0.566E-02
DAV:  10    -0.135560860933E+04    0.13836E-04   -0.32203E-04  2272   0.364E-02    0.398E-02
DAV:  11    -0.135560860207E+04    0.72545E-05   -0.29278E-04  2312   0.272E-02    0.191E-02
DAV:  12    -0.135560860166E+04    0.40671E-06   -0.77223E-05  2432   0.168E-02    0.111E-02
DAV:  13    -0.135560860184E+04   -0.17272E-06   -0.21283E-05  2216   0.920E-03    0.638E-03
DAV:  14    -0.135560860193E+04   -0.96930E-07   -0.84159E-06  1664   0.553E-03
   6 F= -.13556086E+04 E0= -.13556086E+04  d E =-.153709E+01
 BRION: g(F)=  0.212E+01 g(S)=  0.000E+00 retain N=  4 mean eig= 0.75
 eig:   1.356  0.165  0.730  0.730
 bond charge predicted
       N       E                     dE             d eps       ncg     rms          rms(c)
DAV:   1    -0.135570478420E+04   -0.96182E-01   -0.35425E+02  1336   0.259E+01    0.374E+00
DAV:   2    -0.135755288786E+04   -0.18481E+01   -0.19494E+01  2328   0.959E+00    0.204E+00
DAV:   3    -0.135758342198E+04   -0.30534E-01   -0.12290E+00  2600   0.211E+00    0.178E+00
DAV:   4    -0.135753328704E+04    0.50135E-01   -0.26243E-01  2544   0.100E+00    0.999E-01
DAV:   5    -0.135751227946E+04    0.21008E-01   -0.13596E-01  2408   0.686E-01    0.506E-01
DAV:   6    -0.135751434576E+04   -0.20663E-02   -0.58665E-02  2520   0.461E-01    0.492E-01
DAV:   7    -0.135751160051E+04    0.27452E-02   -0.26796E-02  2504   0.298E-01    0.257E-01
DAV:   8    -0.135751147741E+04    0.12310E-03   -0.99026E-03  2512   0.173E-01    0.107E-01
DAV:   9    -0.135751146258E+04    0.14835E-04   -0.13083E-03  2472   0.776E-02    0.737E-02
DAV:  10    -0.135751151809E+04   -0.55507E-04   -0.81451E-04  2312   0.474E-02    0.474E-02
DAV:  11    -0.135751148397E+04    0.34114E-04   -0.20515E-04  2568   0.330E-02    0.224E-02
DAV:  12    -0.135751149336E+04   -0.93845E-05   -0.21988E-04  2504   0.235E-02    0.213E-02
DAV:  13    -0.135751148726E+04    0.60961E-05   -0.62319E-05  2368   0.154E-02    0.817E-03
DAV:  14    -0.135751148791E+04   -0.65062E-06   -0.14092E-05  1808   0.794E-03    0.437E-03
DAV:  15    -0.135751148813E+04   -0.22005E-06   -0.39764E-06  1296   0.457E-03
   7 F= -.13575115E+04 E0= -.13575115E+04  d E =-.190289E+01
 BRION: g(F)=  0.130E+01 g(S)=  0.000E+00 retain N=  5 mean eig= 0.59
 eig:   0.702  0.150  0.662  0.662  0.789
 bond charge predicted
       N       E                     dE             d eps       ncg     rms          rms(c)
DAV:   1    -0.135781192482E+04   -0.30044E+00   -0.12148E+02  1376   0.156E+01    0.225E+00
DAV:   2    -0.135843866772E+04   -0.62674E+00   -0.66203E+00  2272   0.597E+00    0.114E+00
DAV:   3    -0.135846797597E+04   -0.29308E-01   -0.51127E-01  2600   0.125E+00    0.931E-01
DAV:   4    -0.135845403770E+04    0.13938E-01   -0.76349E-02  2568   0.614E-01    0.529E-01
DAV:   5    -0.135844982932E+04    0.42084E-02   -0.35131E-02  2384   0.380E-01    0.249E-01
DAV:   6    -0.135845065839E+04   -0.82907E-03   -0.16202E-02  2584   0.244E-01    0.197E-01
DAV:   7    -0.135845036975E+04    0.28864E-03   -0.55146E-03  2504   0.147E-01    0.123E-01
DAV:   8    -0.135845036482E+04    0.49344E-05   -0.26032E-03  2560   0.898E-02    0.639E-02
DAV:   9    -0.135845033426E+04    0.30554E-04   -0.36866E-04  2552   0.455E-02    0.443E-02
DAV:  10    -0.135845034829E+04   -0.14028E-04   -0.41737E-04  2328   0.345E-02    0.320E-02
DAV:  11    -0.135845033830E+04    0.99934E-05   -0.11709E-04  2472   0.252E-02    0.130E-02
DAV:  12    -0.135845034266E+04   -0.43580E-05   -0.67396E-05  2336   0.141E-02    0.130E-02
DAV:  13    -0.135845034047E+04    0.21905E-05   -0.20402E-05  2048   0.955E-03    0.494E-03
DAV:  14    -0.135845034063E+04   -0.16749E-06   -0.39850E-06  1200   0.560E-03
   8 F= -.13584503E+04 E0= -.13584503E+04  d E =-.938853E+00
 BRION: g(F)=  0.869E+00 g(S)=  0.000E+00 retain N=  6 mean eig= 1.21
 eig:   1.495  1.965  1.965  0.154  0.837  0.837
 bond charge predicted
       N       E                     dE             d eps       ncg     rms          rms(c)
DAV:   1    -0.135878487423E+04   -0.33453E+00   -0.58394E+01  1392   0.108E+01    0.150E+00
DAV:   2    -0.135908501250E+04   -0.30014E+00   -0.31718E+00  2272   0.420E+00    0.764E-01
DAV:   3    -0.135909914663E+04   -0.14134E-01   -0.24808E-01  2624   0.852E-01    0.611E-01
DAV:   4    -0.135909244244E+04    0.67042E-02   -0.34318E-02  2528   0.415E-01    0.340E-01
DAV:   5    -0.135909073324E+04    0.17092E-02   -0.14313E-02  2400   0.237E-01    0.150E-01
DAV:   6    -0.135909112053E+04   -0.38729E-03   -0.62076E-03  2568   0.146E-01    0.105E-01
DAV:   7    -0.135909104966E+04    0.70864E-04   -0.19826E-03  2288   0.893E-02    0.724E-02
DAV:   8    -0.135909107318E+04   -0.23513E-04   -0.10250E-03  2344   0.541E-02    0.450E-02
DAV:   9    -0.135909105704E+04    0.16140E-04   -0.18335E-04  2432   0.295E-02    0.329E-02
DAV:  10    -0.135909105779E+04   -0.75507E-06   -0.25025E-04  2376   0.265E-02    0.218E-02
DAV:  11    -0.135909105389E+04    0.38985E-05   -0.71404E-05  2328   0.180E-02    0.835E-03
DAV:  12    -0.135909105578E+04   -0.18920E-05   -0.25400E-05  2168   0.101E-02    0.755E-03
DAV:  13    -0.135909105495E+04    0.83561E-06   -0.42007E-06  1232   0.629E-03
   9 F= -.13590911E+04 E0= -.13590911E+04  d E =-.640714E+00
 BRION: g(F)=  0.491E+00 g(S)=  0.000E+00 retain N=  7 mean eig= 1.36
 eig:   2.867  2.867  2.091  0.120  0.475  0.475  0.603
 bond charge predicted
       N       E                     dE             d eps       ncg     rms          rms(c)
DAV:   1    -0.135924658728E+04   -0.15553E+00   -0.11118E+02  1392   0.150E+01    0.192E+00
DAV:   2    -0.135981840399E+04   -0.57182E+00   -0.60280E+00  2288   0.592E+00    0.958E-01
DAV:   3    -0.135984894895E+04   -0.30545E-01   -0.46624E-01  2608   0.113E+00    0.764E-01
DAV:   4    -0.135983901775E+04    0.99312E-02   -0.53617E-02  2584   0.546E-01    0.467E-01
DAV:   5    -0.135983479480E+04    0.42229E-02   -0.26171E-02  2368   0.336E-01    0.180E-01
DAV:   6    -0.135983578859E+04   -0.99379E-03   -0.13072E-02  2536   0.216E-01    0.161E-01
DAV:   7    -0.135983567716E+04    0.11142E-03   -0.40858E-03  2560   0.127E-01    0.112E-01
DAV:   8    -0.135983562692E+04    0.50242E-04   -0.19343E-03  2600   0.804E-02    0.563E-02
DAV:   9    -0.135983560944E+04    0.17486E-04   -0.30370E-04  2544   0.401E-02    0.410E-02
DAV:  10    -0.135983561461E+04   -0.51770E-05   -0.25894E-04  2416   0.297E-02    0.254E-02
DAV:  11    -0.135983561171E+04    0.28997E-05   -0.71488E-05  2432   0.196E-02    0.121E-02
DAV:  12    -0.135983561487E+04   -0.31605E-05   -0.45708E-05  2344   0.118E-02    0.119E-02
DAV:  13    -0.135983561299E+04    0.18841E-05   -0.12404E-05  1784   0.784E-03    0.505E-03
DAV:  14    -0.135983561321E+04   -0.21970E-06   -0.64679E-06  1520   0.580E-03
  10 F= -.13598356E+04 E0= -.13598356E+04  d E =-.744558E+00
 BRION: g(F)=  0.420E+00 g(S)=  0.000E+00 retain N=  8 mean eig= 1.81
 eig:   3.670  3.039  3.039  1.413  1.413  0.228  0.841  0.841
 bond charge predicted
       N       E                     dE             d eps       ncg     rms          rms(c)
DAV:   1    -0.135998371324E+04   -0.14810E+00   -0.87663E+01  1400   0.133E+01    0.160E+00
DAV:   2    -0.136044077705E+04   -0.45706E+00   -0.48153E+00  2296   0.531E+00    0.814E-01
DAV:   3    -0.136046592277E+04   -0.25146E-01   -0.37136E-01  2608   0.101E+00    0.660E-01
DAV:   4    -0.136045917660E+04    0.67462E-02   -0.38388E-02  2616   0.460E-01    0.441E-01
DAV:   5    -0.136045411551E+04    0.50611E-02   -0.18261E-02  2336   0.282E-01    0.171E-01
DAV:   6    -0.136045463245E+04   -0.51695E-03   -0.12376E-02  2456   0.210E-01    0.136E-01
DAV:   7    -0.136045463484E+04   -0.23841E-05   -0.47732E-03  2400   0.129E-01    0.103E-01
DAV:   8    -0.136045460926E+04    0.25575E-04   -0.17351E-03  2608   0.783E-02    0.547E-02
DAV:   9    -0.136045458758E+04    0.21679E-04   -0.40859E-04  2440   0.426E-02    0.387E-02
DAV:  10    -0.136045459362E+04   -0.60403E-05   -0.20733E-04  2432   0.267E-02    0.255E-02
DAV:  11    -0.136045459085E+04    0.27681E-05   -0.88267E-05  2440   0.198E-02    0.132E-02
DAV:  12    -0.136045459208E+04   -0.12264E-05   -0.40034E-05  2328   0.135E-02    0.130E-02
DAV:  13    -0.136045459020E+04    0.18844E-05   -0.20842E-05  1936   0.862E-03    0.598E-03
DAV:  14    -0.136045459024E+04   -0.47512E-07   -0.75898E-06  1616   0.609E-03
  11 F= -.13604546E+04 E0= -.13604546E+04  d E =-.618977E+00
 BRION: g(F)=  0.244E+00 g(S)=  0.000E+00 retain N=  9 mean eig= 2.50
 eig:   6.001  6.001  2.366  2.658  2.658  0.228  0.915  0.915  0.775
 bond charge predicted
       N       E                     dE             d eps       ncg     rms          rms(c)
DAV:   1    -0.136059151698E+04   -0.13693E+00   -0.57763E+01  1416   0.109E+01    0.130E+00
DAV:   2    -0.136089706913E+04   -0.30555E+00   -0.32301E+00  2304   0.438E+00    0.670E-01
DAV:   3    -0.136091494214E+04   -0.17873E-01   -0.25195E-01  2600   0.814E-01    0.551E-01
DAV:   4    -0.136091109524E+04    0.38469E-02   -0.25420E-02  2608   0.377E-01    0.379E-01
DAV:   5    -0.136090776366E+04    0.33316E-02   -0.12905E-02  2320   0.225E-01    0.144E-01
DAV:   6    -0.136090823169E+04   -0.46803E-03   -0.78453E-03  2448   0.163E-01    0.122E-01
DAV:   7    -0.136090814833E+04    0.83356E-04   -0.32077E-03  2440   0.105E-01    0.852E-02
DAV:   8    -0.136090813087E+04    0.17463E-04   -0.13763E-03  2600   0.700E-02    0.484E-02
DAV:   9    -0.136090811812E+04    0.12747E-04   -0.25554E-04  2456   0.345E-02    0.355E-02
DAV:  10    -0.136090811888E+04   -0.76064E-06   -0.11733E-04  2552   0.197E-02    0.196E-02
DAV:  11    -0.136090812017E+04   -0.12931E-05   -0.41253E-05  2464   0.137E-02    0.126E-02
DAV:  12    -0.136090811912E+04    0.10557E-05   -0.22057E-05  2272   0.103E-02    0.953E-03
DAV:  13    -0.136090811862E+04    0.49757E-06   -0.14192E-05  1776   0.693E-03    0.483E-03
DAV:  14    -0.136090811845E+04    0.16823E-06   -0.21227E-06  1032   0.476E-03
  12 F= -.13609081E+04 E0= -.13609081E+04  d E =-.453528E+00
 BRION: g(F)=  0.179E+00 g(S)=  0.000E+00 retain N= 10 mean eig= 2.86
 eig:   6.104  6.104  4.479  4.479  2.967  0.247  1.120  1.120  1.088  0.929
 bond charge predicted
       N       E                     dE             d eps       ncg     rms          rms(c)
DAV:   1    -0.136099048326E+04   -0.82365E-01   -0.64974E+01  1408   0.114E+01    0.133E+00
DAV:   2    -0.136133291789E+04   -0.34243E+00   -0.35982E+00  2296   0.458E+00    0.678E-01
DAV:   3    -0.136135239774E+04   -0.19480E-01   -0.27856E-01  2600   0.862E-01    0.550E-01
DAV:   4    -0.136134811910E+04    0.42786E-02   -0.26462E-02  2600   0.385E-01    0.390E-01
DAV:   5    -0.136134381624E+04    0.43029E-02   -0.12545E-02  2320   0.226E-01    0.158E-01
DAV:   6    -0.136134400890E+04   -0.19266E-03   -0.96524E-03  2344   0.179E-01    0.108E-01
DAV:   7    -0.136134407149E+04   -0.62597E-04   -0.41796E-03  2376   0.116E-01    0.905E-02
DAV:   8    -0.136134404035E+04    0.31146E-04   -0.12377E-03  2608   0.695E-02    0.519E-02
DAV:   9    -0.136134401752E+04    0.22826E-04   -0.38370E-04  2504   0.386E-02    0.329E-02
DAV:  10    -0.136134402537E+04   -0.78509E-05   -0.14405E-04  2504   0.227E-02    0.232E-02
DAV:  11    -0.136134402439E+04    0.98093E-06   -0.66827E-05  2400   0.165E-02    0.142E-02
DAV:  12    -0.136134402319E+04    0.12003E-05   -0.34351E-05  2304   0.128E-02    0.118E-02
DAV:  13    -0.136134402218E+04    0.10078E-05   -0.19224E-05  1968   0.817E-03    0.641E-03
DAV:  14    -0.136134402208E+04    0.10805E-06   -0.78119E-06  1744   0.573E-03
  13 F= -.13613440E+04 E0= -.13613440E+04  d E =-.435904E+00
 BRION: g(F)=  0.151E+00 g(S)=  0.000E+00 retain N= 11 mean eig= 3.32
 eig:   6.622  6.622  6.356  6.356  3.274  1.906  1.906  0.253  1.201  1.201
 bond charge predicted
       N       E                     dE             d eps       ncg     rms          rms(c)
DAV:   1    -0.136142066498E+04   -0.76643E-01   -0.56678E+01  1408   0.107E+01    0.122E+00
DAV:   2    -0.136171650105E+04   -0.29584E+00   -0.31143E+00  2296   0.427E+00    0.625E-01
DAV:   3    -0.136173372973E+04   -0.17229E-01   -0.24250E-01  2584   0.801E-01    0.512E-01
DAV:   4    -0.136173058229E+04    0.31474E-02   -0.21985E-02  2600   0.350E-01    0.377E-01
DAV:   5    -0.136172650259E+04    0.40797E-02   -0.10963E-02  2280   0.212E-01    0.157E-01
DAV:   6    -0.136172661028E+04   -0.10769E-03   -0.94254E-03  2312   0.176E-01    0.109E-01
DAV:   7    -0.136172666560E+04   -0.55318E-04   -0.40135E-03  2432   0.114E-01    0.905E-02
DAV:   8    -0.136172662714E+04    0.38457E-04   -0.11528E-03  2600   0.682E-02    0.521E-02
DAV:   9    -0.136172660094E+04    0.26200E-04   -0.37906E-04  2448   0.376E-02    0.313E-02
DAV:  10    -0.136172660919E+04   -0.82456E-05   -0.13577E-04  2464   0.219E-02    0.215E-02
DAV:  11    -0.136172660920E+04   -0.13140E-07   -0.58759E-05  2432   0.159E-02    0.143E-02
DAV:  12    -0.136172660774E+04    0.14662E-05   -0.31512E-05  2280   0.122E-02    0.121E-02
DAV:  13    -0.136172660661E+04    0.11241E-05   -0.18129E-05  1912   0.793E-03    0.657E-03
DAV:  14    -0.136172660632E+04    0.29262E-06   -0.62249E-06  1568   0.564E-03
  14 F= -.13617266E+04 E0= -.13617266E+04  d E =-.382584E+00
 BRION: g(F)=  0.128E+00 g(S)=  0.000E+00 retain N=  8 mean eig= 3.22
 eig:   7.762  7.762  2.902  2.902  1.001  1.001  1.208  1.208
 bond charge predicted
       N       E                     dE             d eps       ncg     rms          rms(c)
DAV:   1    -0.136179047067E+04   -0.63864E-01   -0.46623E+01  1408   0.975E+00    0.110E+00
DAV:   2    -0.136203167266E+04   -0.24120E+00   -0.25373E+00  2296   0.388E+00    0.566E-01
DAV:   3    -0.136204596017E+04   -0.14288E-01   -0.19892E-01  2584   0.730E-01    0.462E-01
DAV:   4    -0.136204345725E+04    0.25029E-02   -0.17789E-02  2608   0.317E-01    0.344E-01
DAV:   5    -0.136204001356E+04    0.34437E-02   -0.90871E-03  2296   0.197E-01    0.146E-01
DAV:   6    -0.136204005102E+04   -0.37460E-04   -0.80493E-03  2288   0.167E-01    0.100E-01
DAV:   7    -0.136204012645E+04   -0.75433E-04   -0.36166E-03  2440   0.108E-01    0.867E-02
DAV:   8    -0.136204008781E+04    0.38639E-04   -0.93311E-04  2608   0.628E-02    0.500E-02
DAV:   9    -0.136204005905E+04    0.28762E-04   -0.36194E-04  2464   0.358E-02    0.273E-02
DAV:  10    -0.136204006918E+04   -0.10135E-04   -0.12599E-04  2488   0.217E-02    0.209E-02
DAV:  11    -0.136204006764E+04    0.15455E-05   -0.57632E-05  2408   0.153E-02    0.140E-02
DAV:  12    -0.136204006643E+04    0.12062E-05   -0.27937E-05  2192   0.116E-02    0.118E-02
DAV:  13    -0.136204006535E+04    0.10823E-05   -0.16700E-05  1888   0.773E-03    0.636E-03
DAV:  14    -0.136204006494E+04    0.40549E-06   -0.38365E-06  1240   0.516E-03
  15 F= -.13620401E+04 E0= -.13620401E+04  d E =-.313459E+00
 BRION: g(F)=  0.109E+00 g(S)=  0.000E+00 retain N=  6 mean eig= 3.85
 eig:   7.212  7.212  2.727  2.727  1.612  1.612
 bond charge predicted
       N       E                     dE             d eps       ncg     rms          rms(c)
DAV:   1    -0.136198197483E+04    0.58091E-01   -0.80526E+01  1408   0.128E+01    0.143E+00
DAV:   2    -0.136239806402E+04   -0.41609E+00   -0.43729E+00  2288   0.509E+00    0.741E-01
DAV:   3    -0.136242304479E+04   -0.24981E-01   -0.34311E-01  2576   0.959E-01    0.610E-01
DAV:   4    -0.136241925733E+04    0.37875E-02   -0.29977E-02  2584   0.412E-01    0.464E-01
DAV:   5    -0.136241306692E+04    0.61904E-02   -0.15790E-02  2272   0.263E-01    0.201E-01
DAV:   6    -0.136241317785E+04   -0.11093E-03   -0.15353E-02  2256   0.227E-01    0.138E-01
DAV:   7    -0.136241326970E+04   -0.91845E-04   -0.61502E-03  2448   0.143E-01    0.117E-01
DAV:   8    -0.136241320386E+04    0.65837E-04   -0.16960E-03  2592   0.829E-02    0.674E-02
DAV:   9    -0.136241314448E+04    0.59379E-04   -0.64419E-04  2424   0.483E-02    0.363E-02
DAV:  10    -0.136241316260E+04   -0.18123E-04   -0.22934E-04  2488   0.290E-02    0.274E-02
DAV:  11    -0.136241315917E+04    0.34310E-05   -0.90831E-05  2432   0.193E-02    0.180E-02
DAV:  12    -0.136241315785E+04    0.13193E-05   -0.45996E-05  2320   0.144E-02    0.155E-02
DAV:  13    -0.136241315588E+04    0.19703E-05   -0.26618E-05  2088   0.931E-03    0.783E-03
DAV:  14    -0.136241315558E+04    0.30552E-06   -0.77123E-06  1680   0.586E-03
  16 F= -.13624132E+04 E0= -.13624132E+04  d E =-.373091E+00
 BRION: g(F)=  0.898E-01 g(S)=  0.000E+00 retain N=  2 mean eig= 4.84
 eig:   4.840  4.840
 bond charge predicted
       N       E                     dE             d eps       ncg     rms          rms(c)
DAV:   1    -0.136239402229E+04    0.19134E-01   -0.59304E+01  1408   0.110E+01    0.122E+00
DAV:   2    -0.136269938487E+04   -0.30536E+00   -0.32118E+00  2296   0.437E+00    0.632E-01
DAV:   3    -0.136271763813E+04   -0.18253E-01   -0.25347E-01  2584   0.821E-01    0.514E-01
DAV:   4    -0.136271453412E+04    0.31040E-02   -0.22078E-02  2592   0.354E-01    0.384E-01
DAV:   5    -0.136271018206E+04    0.43521E-02   -0.11192E-02  2272   0.221E-01    0.164E-01
DAV:   6    -0.136271019616E+04   -0.14100E-04   -0.10287E-02  2272   0.189E-01    0.110E-01
DAV:   7    -0.136271030369E+04   -0.10754E-03   -0.44669E-03  2392   0.120E-01    0.949E-02
DAV:   8    -0.136271026405E+04    0.39637E-04   -0.11319E-03  2616   0.683E-02    0.552E-02
DAV:   9    -0.136271022849E+04    0.35565E-04   -0.45514E-04  2512   0.405E-02    0.299E-02
DAV:  10    -0.136271024084E+04   -0.12351E-04   -0.14902E-04  2504   0.241E-02    0.233E-02
DAV:  11    -0.136271023860E+04    0.22459E-05   -0.72968E-05  2440   0.171E-02    0.149E-02
DAV:  12    -0.136271023755E+04    0.10475E-05   -0.32663E-05  2280   0.126E-02    0.128E-02
DAV:  13    -0.136271023635E+04    0.11976E-05   -0.19283E-05  1960   0.798E-03    0.675E-03
DAV:  14    -0.136271023595E+04    0.40072E-06   -0.47610E-06  1376   0.545E-03
  17 F= -.13627102E+04 E0= -.13627102E+04  d E =-.297080E+00
 BRION: g(F)=  0.774E-01 g(S)=  0.000E+00 retain N=  2 mean eig= 5.38
 eig:   5.381  5.381
 bond charge predicted
       N       E                     dE             d eps       ncg     rms          rms(c)
DAV:   1    -0.136277299890E+04   -0.62763E-01   -0.13073E+01  1400   0.522E+00    0.615E-01
DAV:   2    -0.136284047587E+04   -0.67477E-01   -0.71456E-01  2312   0.208E+00    0.316E-01
DAV:   3    -0.136284457452E+04   -0.40987E-02   -0.57336E-02  2584   0.395E-01    0.255E-01
DAV:   4    -0.136284372683E+04    0.84769E-03   -0.54957E-03  2584   0.176E-01    0.180E-01
DAV:   5    -0.136284294839E+04    0.77844E-03   -0.33387E-03  2248   0.113E-01    0.678E-02
DAV:   6    -0.136284306614E+04   -0.11775E-03   -0.18605E-03  2440   0.812E-02    0.643E-02
DAV:   7    -0.136284304185E+04    0.24293E-04   -0.81983E-04  2416   0.520E-02    0.400E-02
DAV:   8    -0.136284303757E+04    0.42734E-05   -0.27239E-04  2552   0.326E-02    0.226E-02
DAV:   9    -0.136284303519E+04    0.23858E-05   -0.48797E-05  2496   0.154E-02    0.158E-02
DAV:  10    -0.136284303599E+04   -0.80551E-06   -0.28344E-05  2448   0.965E-03    0.796E-03
DAV:  11    -0.136284303565E+04    0.34003E-06   -0.54076E-06  1336   0.695E-03
  18 F= -.13628430E+04 E0= -.13628430E+04  d E =-.132800E+00
 BRION: g(F)=  0.698E-01 g(S)=  0.000E+00 retain N=  2 mean eig= 3.34
 eig:   3.344  3.344
 bond charge predicted
       N       E                     dE             d eps       ncg     rms          rms(c)
DAV:   1    -0.136287792097E+04   -0.34885E-01   -0.29882E+01  1384   0.776E+00    0.868E-01
DAV:   2    -0.136303035938E+04   -0.15244E+00   -0.16007E+00  2304   0.306E+00    0.448E-01
DAV:   3    -0.136303935903E+04   -0.89996E-02   -0.12538E-01  2584   0.577E-01    0.358E-01
DAV:   4    -0.136303764909E+04    0.17099E-02   -0.10919E-02  2576   0.247E-01    0.262E-01
DAV:   5    -0.136303562679E+04    0.20223E-02   -0.58457E-03  2208   0.156E-01    0.993E-02
DAV:   6    -0.136303578254E+04   -0.15575E-03   -0.44464E-03  2344   0.119E-01    0.745E-02
DAV:   7    -0.136303579826E+04   -0.15717E-04   -0.14624E-03  2376   0.678E-02    0.561E-02
DAV:   8    -0.136303579073E+04    0.75291E-05   -0.47042E-04  2592   0.418E-02    0.314E-02
DAV:   9    -0.136303578087E+04    0.98626E-05   -0.13169E-04  2296   0.236E-02    0.199E-02
DAV:  10    -0.136303578376E+04   -0.28892E-05   -0.46474E-05  2472   0.133E-02    0.125E-02
DAV:  11    -0.136303578312E+04    0.63879E-06   -0.16162E-05  2072   0.879E-03    0.622E-03
DAV:  12    -0.136303578324E+04   -0.12349E-06   -0.62072E-06  1488   0.640E-03
  19 F= -.13630358E+04 E0= -.13630358E+04  d E =-.192748E+00
 BRION: g(F)=  0.624E-01 g(S)=  0.000E+00 retain N=  2 mean eig= 2.77
 eig:   2.768  2.768
 bond charge predicted
       N       E                     dE             d eps       ncg     rms          rms(c)
DAV:   1    -0.136308973996E+04   -0.53957E-01   -0.10546E+01  1392   0.466E+00    0.558E-01
DAV:   2    -0.136314352898E+04   -0.53789E-01   -0.56927E-01  2304   0.184E+00    0.282E-01
DAV:   3    -0.136314664512E+04   -0.31161E-02   -0.44652E-02  2584   0.357E-01    0.226E-01
DAV:   4    -0.136314591221E+04    0.73291E-03   -0.45313E-03  2584   0.157E-01    0.152E-01
DAV:   5    -0.136314538116E+04    0.53105E-03   -0.27294E-03  2200   0.100E-01    0.560E-02
DAV:   6    -0.136314548008E+04   -0.98926E-04   -0.13381E-03  2520   0.688E-02    0.550E-02
DAV:   7    -0.136314546428E+04    0.15804E-04   -0.57027E-04  2520   0.429E-02    0.335E-02
DAV:   8    -0.136314545952E+04    0.47630E-05   -0.15240E-04  2560   0.255E-02    0.184E-02
DAV:   9    -0.136314545915E+04    0.36244E-06   -0.29558E-05  2488   0.116E-02    0.126E-02
DAV:  10    -0.136314546010E+04   -0.94665E-06   -0.15793E-05  1960   0.769E-03    0.645E-03
DAV:  11    -0.136314545960E+04    0.50469E-06   -0.17157E-06   992   0.583E-03
  20 F= -.13631455E+04 E0= -.13631455E+04  d E =-.109676E+00
 BRION: g(F)=  0.576E-01 g(S)=  0.000E+00 retain N=  3 mean eig= 3.31
 eig:   4.402  4.402  1.121
