 190 190   0   0
  0.1147019E+02  0.1296520E-08  0.1296500E-08  0.1296500E-08  0.2000000E-14
   1500.00000000000     
  CAR 
 unknown system                          
     12.69654444    -45.32012549  301      6.13340865      1.00000000
    -45.320  0.0000E+00  0.0000E+00
    -45.127  0.0000E+00  0.0000E+00
    -44.933  0.0000E+00  0.0000E+00
    -44.740  0.0000E+00  0.0000E+00
    -44.547  0.0000E+00  0.0000E+00
    -44.353  0.0000E+00  0.0000E+00
    -44.160  0.0000E+00  0.0000E+00
    -43.966  0.0000E+00  0.0000E+00
    -43.773  0.4594E-13  0.8943E-14
    -43.580  0.9521E-09  0.1854E-09
    -43.386  0.3125E-05  0.6087E-06
    -43.193  0.1663E-02  0.3244E-03
    -42.999  0.1503E+00  0.2961E-01
    -42.806  0.2541E+01  0.5245E+00
    -42.613  0.9858E+01  0.2443E+01
    -42.419  0.1463E+02  0.5290E+01
    -42.226  0.1827E+02  0.8844E+01
    -42.033  0.2246E+02  0.1322E+02
    -41.839  0.2429E+02  0.1795E+02
    -41.646  0.2296E+02  0.2243E+02
    -41.452  0.1881E+02  0.2610E+02
    -41.259  0.1344E+02  0.2872E+02
    -41.066  0.8552E+01  0.3040E+02
    -40.872  0.4692E+01  0.3131E+02
    -40.679  0.2183E+01  0.3174E+02
    -40.485  0.8702E+00  0.3191E+02
    -40.292  0.3093E+00  0.3197E+02
    -40.099  0.1005E+00  0.3199E+02
    -39.905  0.2652E-01  0.3200E+02
    -39.712  0.7072E-02  0.3200E+02
    -39.518  0.3438E-02  0.3200E+02
    -39.325  0.9337E-03  0.3200E+02
    -39.132  0.6069E-04  0.3200E+02
    -38.938  0.7369E-06  0.3200E+02
    -38.745  0.1499E-08  0.3200E+02
    -38.552  0.4837E-12  0.3200E+02
    -38.358  0.2418E-16  0.3200E+02
    -38.165  0.0000E+00  0.3200E+02
    -37.971  0.0000E+00  0.3200E+02
    -37.778  0.0000E+00  0.3200E+02
    -37.585  0.0000E+00  0.3200E+02
    -37.391  0.0000E+00  0.3200E+02
    -37.198  0.0000E+00  0.3200E+02
    -37.004  0.0000E+00  0.3200E+02
    -36.811  0.0000E+00  0.3200E+02
    -36.618  0.0000E+00  0.3200E+02
    -36.424  0.0000E+00  0.3200E+02
    -36.231  0.0000E+00  0.3200E+02
    -36.037  0.0000E+00  0.3200E+02
    -35.844  0.0000E+00  0.3200E+02
    -35.651  0.0000E+00  0.3200E+02
    -35.457  0.0000E+00  0.3200E+02
    -35.264  0.0000E+00  0.3200E+02
    -35.071  0.0000E+00  0.3200E+02
    -34.877  0.0000E+00  0.3200E+02
    -34.684  0.0000E+00  0.3200E+02
    -34.490  0.0000E+00  0.3200E+02
    -34.297  0.0000E+00  0.3200E+02
    -34.104  0.0000E+00  0.3200E+02
    -33.910  0.0000E+00  0.3200E+02
    -33.717  0.0000E+00  0.3200E+02
    -33.523  0.0000E+00  0.3200E+02
    -33.330  0.0000E+00  0.3200E+02
    -33.137  0.0000E+00  0.3200E+02
    -32.943  0.0000E+00  0.3200E+02
    -32.750  0.0000E+00  0.3200E+02
    -32.556  0.0000E+00  0.3200E+02
    -32.363  0.0000E+00  0.3200E+02
    -32.170  0.0000E+00  0.3200E+02
    -31.976  0.0000E+00  0.3200E+02
    -31.783  0.0000E+00  0.3200E+02
    -31.590  0.0000E+00  0.3200E+02
    -31.396  0.0000E+00  0.3200E+02
    -31.203  0.0000E+00  0.3200E+02
    -31.009  0.0000E+00  0.3200E+02
    -30.816  0.0000E+00  0.3200E+02
    -30.623  0.0000E+00  0.3200E+02
    -30.429  0.0000E+00  0.3200E+02
    -30.236  0.0000E+00  0.3200E+02
    -30.042  0.0000E+00  0.3200E+02
    -29.849  0.0000E+00  0.3200E+02
    -29.656  0.0000E+00  0.3200E+02
    -29.462  0.0000E+00  0.3200E+02
    -29.269  0.0000E+00  0.3200E+02
    -29.075  0.0000E+00  0.3200E+02
    -28.882  0.0000E+00  0.3200E+02
    -28.689  0.0000E+00  0.3200E+02
    -28.495  0.0000E+00  0.3200E+02
    -28.302  0.0000E+00  0.3200E+02
    -28.109  0.0000E+00  0.3200E+02
    -27.915  0.0000E+00  0.3200E+02
    -27.722  0.9636E-17  0.3200E+02
    -27.528  0.2068E-12  0.3200E+02
    -27.335  0.7328E-09  0.3200E+02
    -27.142  0.4586E-06  0.3200E+02
    -26.948  0.5651E-04  0.3200E+02
    -26.755  0.1625E-02  0.3200E+02
    -26.561  0.1377E-01  0.3200E+02
    -26.368  0.5345E-01  0.3201E+02
    -26.175  0.1896E+00  0.3205E+02
    -25.981  0.6763E+00  0.3218E+02
    -25.788  0.2032E+01  0.3258E+02
    -25.594  0.5016E+01  0.3355E+02
    -25.401  0.1047E+02  0.3559E+02
    -25.208  0.1860E+02  0.3921E+02
    -25.014  0.2809E+02  0.4468E+02
    -24.821  0.3619E+02  0.5173E+02
    -24.628  0.3934E+02  0.5939E+02
    -24.434  0.3636E+02  0.6648E+02
    -24.241  0.2880E+02  0.7210E+02
    -24.047  0.1952E+02  0.7591E+02
    -23.854  0.1143E+02  0.7815E+02
    -23.661  0.5765E+01  0.7928E+02
    -23.467  0.2444E+01  0.7975E+02
    -23.274  0.8975E+00  0.7993E+02
    -23.080  0.2734E+00  0.7998E+02
    -22.887  0.6685E-01  0.8000E+02
    -22.694  0.1571E-01  0.8000E+02
    -22.500  0.3001E-02  0.8000E+02
    -22.307  0.2191E-03  0.8000E+02
    -22.113  0.2944E-03  0.8000E+02
    -21.920  0.4468E-02  0.8000E+02
    -21.727  0.4354E-01  0.8001E+02
    -21.533  0.4451E+00  0.8010E+02
    -21.340  0.3381E+01  0.8076E+02
    -21.147  0.1437E+02  0.8356E+02
    -20.953  0.3387E+02  0.9015E+02
    -20.760  0.5400E+02  0.1007E+03
    -20.566  0.7250E+02  0.1148E+03
    -20.373  0.8382E+02  0.1311E+03
    -20.180  0.8091E+02  0.1469E+03
    -19.986  0.6486E+02  0.1595E+03
    -19.793  0.4348E+02  0.1680E+03
    -19.599  0.2413E+02  0.1727E+03
    -19.406  0.1092E+02  0.1749E+03
    -19.213  0.4042E+01  0.1757E+03
    -19.019  0.1271E+01  0.1759E+03
    -18.826  0.3457E+00  0.1760E+03
    -18.632  0.8058E-01  0.1760E+03
    -18.439  0.1745E-01  0.1760E+03
    -18.246  0.4411E-02  0.1760E+03
    -18.052  0.4941E-03  0.1760E+03
    -17.859  0.1289E-04  0.1760E+03
    -17.666  0.6372E-07  0.1760E+03
    -17.472  0.5419E-10  0.1760E+03
    -17.279  0.7473E-14  0.1760E+03
    -17.085  0.0000E+00  0.1760E+03
    -16.892  0.0000E+00  0.1760E+03
    -16.699  0.0000E+00  0.1760E+03
    -16.505  0.0000E+00  0.1760E+03
    -16.312  0.0000E+00  0.1760E+03
    -16.118  0.0000E+00  0.1760E+03
    -15.925  0.0000E+00  0.1760E+03
    -15.732  0.1130E-18  0.1760E+03
    -15.538  0.6987E-14  0.1760E+03
    -15.345  0.5498E-10  0.1760E+03
    -15.151  0.6795E-07  0.1760E+03
    -14.958  0.1373E-04  0.1760E+03
    -14.765  0.4900E-03  0.1760E+03
    -14.571  0.3642E-02  0.1760E+03
    -14.378  0.8071E-02  0.1760E+03
    -14.185  0.1314E-01  0.1760E+03
    -13.991  0.5011E-01  0.1760E+03
    -13.798  0.2086E+00  0.1761E+03
    -13.604  0.6336E+00  0.1762E+03
    -13.411  0.1502E+01  0.1765E+03
    -13.218  0.3214E+01  0.1771E+03
    -13.024  0.6679E+01  0.1784E+03
    -12.831  0.1305E+02  0.1809E+03
    -12.637  0.2288E+02  0.1854E+03
    -12.444  0.3527E+02  0.1923E+03
    -12.251  0.4789E+02  0.2016E+03
    -12.057  0.5980E+02  0.2132E+03
    -11.864  0.7024E+02  0.2269E+03
    -11.670  0.7822E+02  0.2422E+03
    -11.477  0.8373E+02  0.2585E+03
    -11.284  0.8688E+02  0.2754E+03
    -11.090  0.8763E+02  0.2925E+03
    -10.897  0.8559E+02  0.3092E+03
    -10.704  0.8059E+02  0.3249E+03
    -10.510  0.7162E+02  0.3389E+03
    -10.317  0.5827E+02  0.3502E+03
    -10.123  0.4212E+02  0.3585E+03
     -9.930  0.2626E+02  0.3636E+03
     -9.737  0.1398E+02  0.3663E+03
     -9.543  0.7143E+01  0.3677E+03
     -9.350  0.6373E+01  0.3689E+03
     -9.156  0.1245E+02  0.3714E+03
     -8.963  0.2598E+02  0.3764E+03
     -8.770  0.4485E+02  0.3852E+03
     -8.576  0.6341E+02  0.3975E+03
     -8.383  0.7649E+02  0.4124E+03
     -8.189  0.8274E+02  0.4285E+03
     -7.996  0.8348E+02  0.4448E+03
     -7.803  0.8025E+02  0.4605E+03
     -7.609  0.7353E+02  0.4748E+03
     -7.416  0.6330E+02  0.4871E+03
     -7.223  0.5001E+02  0.4969E+03
     -7.029  0.3569E+02  0.5039E+03
     -6.836  0.2217E+02  0.5082E+03
     -6.642  0.1158E+02  0.5104E+03
     -6.449  0.5147E+01  0.5114E+03
     -6.256  0.1999E+01  0.5118E+03
     -6.062  0.6459E+00  0.5120E+03
     -5.869  0.1472E+00  0.5120E+03
     -5.675  0.2744E-01  0.5120E+03
     -5.482  0.7156E-02  0.5120E+03
     -5.289  0.9046E-03  0.5120E+03
     -5.095  0.2696E-04  0.5120E+03
     -4.902  0.1512E-06  0.5120E+03
     -4.708  0.1439E-09  0.5120E+03
     -4.515  0.2205E-13  0.5120E+03
     -4.322  0.4538E-18  0.5120E+03
     -4.128  0.0000E+00  0.5120E+03
     -3.935  0.0000E+00  0.5120E+03
     -3.742  0.0000E+00  0.5120E+03
     -3.548  0.0000E+00  0.5120E+03
     -3.355  0.0000E+00  0.5120E+03
     -3.161  0.0000E+00  0.5120E+03
     -2.968  0.0000E+00  0.5120E+03
     -2.775  0.0000E+00  0.5120E+03
     -2.581  0.0000E+00  0.5120E+03
     -2.388  0.2181E-14  0.5120E+03
     -2.194  0.2263E-10  0.5120E+03
     -2.001  0.3767E-07  0.5120E+03
     -1.808  0.1072E-04  0.5120E+03
     -1.614  0.5931E-03  0.5120E+03
     -1.421  0.8319E-02  0.5120E+03
     -1.227  0.4760E-01  0.5120E+03
     -1.034  0.1898E+00  0.5120E+03
     -0.841  0.5746E+00  0.5122E+03
     -0.647  0.1179E+01  0.5124E+03
     -0.454  0.1745E+01  0.5127E+03
     -0.261  0.2092E+01  0.5131E+03
     -0.067  0.2038E+01  0.5135E+03
      0.126  0.1868E+01  0.5139E+03
      0.320  0.2490E+01  0.5144E+03
      0.513  0.5254E+01  0.5154E+03
      0.706  0.1237E+02  0.5178E+03
      0.900  0.2654E+02  0.5230E+03
      1.093  0.4892E+02  0.5325E+03
      1.287  0.7655E+02  0.5474E+03
      1.480  0.1032E+03  0.5676E+03
      1.673  0.1253E+03  0.5920E+03
      1.867  0.1416E+03  0.6196E+03
      2.060  0.1517E+03  0.6492E+03
      2.254  0.1560E+03  0.6796E+03
      2.447  0.1552E+03  0.7098E+03
      2.640  0.1516E+03  0.7394E+03
      2.834  0.1492E+03  0.7684E+03
      3.027  0.1492E+03  0.7975E+03
      3.220  0.1504E+03  0.8268E+03
      3.414  0.1525E+03  0.8566E+03
      3.607  0.1565E+03  0.8871E+03
      3.801  0.1612E+03  0.9185E+03
      3.994  0.1634E+03  0.9503E+03
      4.187  0.1604E+03  0.9816E+03
      4.381  0.1511E+03  0.1011E+04
      4.574  0.1340E+03  0.1037E+04
      4.768  0.1079E+03  0.1058E+04
      4.961  0.7574E+02  0.1073E+04
      5.154  0.4437E+02  0.1082E+04
      5.348  0.2098E+02  0.1086E+04
      5.541  0.8079E+01  0.1087E+04
      5.735  0.2643E+01  0.1088E+04
      5.928  0.7092E+00  0.1088E+04
      6.121  0.1430E+00  0.1088E+04
      6.315  0.1834E-01  0.1088E+04
      6.508  0.9233E-03  0.1088E+04
      6.701  0.1137E-04  0.1088E+04
      6.895  0.1611E-05  0.1088E+04
      7.088  0.1370E-03  0.1088E+04
      7.282  0.2960E-02  0.1088E+04
      7.475  0.2708E-01  0.1088E+04
      7.668  0.1627E+00  0.1088E+04
      7.862  0.7431E+00  0.1088E+04
      8.055  0.2730E+01  0.1089E+04
      8.249  0.8017E+01  0.1090E+04
      8.442  0.1856E+02  0.1094E+04
      8.635  0.3506E+02  0.1101E+04
      8.829  0.5666E+02  0.1112E+04
      9.022  0.8160E+02  0.1128E+04
      9.216  0.1093E+03  0.1149E+04
      9.409  0.1408E+03  0.1176E+04
      9.602  0.1769E+03  0.1211E+04
      9.796  0.2110E+03  0.1252E+04
      9.989  0.1975E+03  0.1291E+04
     10.182  0.9445E+02  0.1309E+04
     10.376  0.1503E+02  0.1312E+04
     10.569  0.5958E+00  0.1312E+04
     10.763  0.4882E-02  0.1312E+04
     10.956  0.7356E-05  0.1312E+04
     11.149  0.1902E-08  0.1312E+04
     11.343  0.7973E-13  0.1312E+04
     11.536  0.0000E+00  0.1312E+04
     11.730  0.0000E+00  0.1312E+04
     11.923  0.0000E+00  0.1312E+04
     12.116  0.0000E+00  0.1312E+04
     12.310  0.0000E+00  0.1312E+04
     12.503  0.0000E+00  0.1312E+04
     12.697  0.0000E+00  0.1312E+04
     12.71648449    -45.34526335  301      6.14824926      1.00000000
    -45.345  0.0000E+00  0.0000E+00
    -45.152  0.0000E+00  0.0000E+00
    -44.958  0.0000E+00  0.0000E+00
    -44.765  0.0000E+00  0.0000E+00
    -44.571  0.0000E+00  0.0000E+00
    -44.378  0.0000E+00  0.0000E+00
    -44.184  0.0000E+00  0.0000E+00
    -43.990  0.0000E+00  0.0000E+00
    -43.797  0.1950E-16  0.3775E-17
    -43.603  0.3787E-12  0.7330E-13
    -43.410  0.1194E-08  0.2311E-09
    -43.216  0.6258E-06  0.1214E-06
    -43.023  0.5711E-04  0.1117E-04
    -42.829  0.9919E-03  0.2031E-03
    -42.636  0.3946E-02  0.9669E-03
    -42.442  0.5064E-02  0.1947E-02
    -42.249  0.4050E-02  0.2731E-02
    -42.055  0.6110E-02  0.3913E-02
    -41.862  0.6347E-02  0.5142E-02
    -41.668  0.4139E-02  0.5943E-02
    -41.474  0.2054E-02  0.6340E-02
    -41.281  0.2991E-03  0.6398E-02
    -41.087  0.8929E-05  0.6400E-02
    -40.894  0.4888E-07  0.6400E-02
    -40.700  0.4599E-10  0.6400E-02
    -40.507  0.7158E-14  0.6400E-02
    -40.313  0.0000E+00  0.6400E-02
    -40.120  0.0000E+00  0.6400E-02
    -39.926  0.0000E+00  0.6400E-02
    -39.733  0.0000E+00  0.6400E-02
    -39.539  0.0000E+00  0.6400E-02
    -39.346  0.0000E+00  0.6400E-02
    -39.152  0.0000E+00  0.6400E-02
    -38.958  0.0000E+00  0.6400E-02
    -38.765  0.0000E+00  0.6400E-02
    -38.571  0.0000E+00  0.6400E-02
    -38.378  0.0000E+00  0.6400E-02
    -38.184  0.0000E+00  0.6400E-02
    -37.991  0.0000E+00  0.6400E-02
    -37.797  0.0000E+00  0.6400E-02
    -37.604  0.0000E+00  0.6400E-02
    -37.410  0.0000E+00  0.6400E-02
    -37.217  0.0000E+00  0.6400E-02
    -37.023  0.0000E+00  0.6400E-02
    -36.830  0.0000E+00  0.6400E-02
    -36.636  0.0000E+00  0.6400E-02
    -36.442  0.0000E+00  0.6400E-02
    -36.249  0.0000E+00  0.6400E-02
    -36.055  0.0000E+00  0.6400E-02
    -35.862  0.0000E+00  0.6400E-02
    -35.668  0.0000E+00  0.6400E-02
    -35.475  0.0000E+00  0.6400E-02
    -35.281  0.0000E+00  0.6400E-02
    -35.088  0.0000E+00  0.6400E-02
    -34.894  0.0000E+00  0.6400E-02
    -34.701  0.0000E+00  0.6400E-02
    -34.507  0.0000E+00  0.6400E-02
    -34.314  0.0000E+00  0.6400E-02
    -34.120  0.0000E+00  0.6400E-02
    -33.926  0.0000E+00  0.6400E-02
    -33.733  0.0000E+00  0.6400E-02
    -33.539  0.0000E+00  0.6400E-02
    -33.346  0.0000E+00  0.6400E-02
    -33.152  0.0000E+00  0.6400E-02
    -32.959  0.0000E+00  0.6400E-02
    -32.765  0.0000E+00  0.6400E-02
    -32.572  0.0000E+00  0.6400E-02
    -32.378  0.0000E+00  0.6400E-02
    -32.185  0.0000E+00  0.6400E-02
    -31.991  0.0000E+00  0.6400E-02
    -31.798  0.0000E+00  0.6400E-02
    -31.604  0.0000E+00  0.6400E-02
    -31.410  0.0000E+00  0.6400E-02
    -31.217  0.0000E+00  0.6400E-02
    -31.023  0.0000E+00  0.6400E-02
    -30.830  0.0000E+00  0.6400E-02
    -30.636  0.0000E+00  0.6400E-02
    -30.443  0.0000E+00  0.6400E-02
    -30.249  0.0000E+00  0.6400E-02
    -30.056  0.0000E+00  0.6400E-02
    -29.862  0.0000E+00  0.6400E-02
    -29.669  0.0000E+00  0.6400E-02
    -29.475  0.0000E+00  0.6400E-02
    -29.282  0.0000E+00  0.6400E-02
    -29.088  0.0000E+00  0.6400E-02
    -28.894  0.0000E+00  0.6400E-02
    -28.701  0.0000E+00  0.6400E-02
    -28.507  0.0000E+00  0.6400E-02
    -28.314  0.0000E+00  0.6400E-02
    -28.120  0.0000E+00  0.6400E-02
    -27.927  0.0000E+00  0.6400E-02
    -27.733  0.0000E+00  0.6400E-02
    -27.540  0.0000E+00  0.6400E-02
    -27.346  0.0000E+00  0.6400E-02
    -27.153  0.0000E+00  0.6400E-02
    -26.959  0.0000E+00  0.6400E-02
    -26.766  0.0000E+00  0.6400E-02
    -26.572  0.6551E-16  0.6400E-02
    -26.378  0.9505E-12  0.6400E-02
    -26.185  0.2288E-08  0.6400E-02
    -25.991  0.9521E-06  0.6400E-02
    -25.798  0.7375E-04  0.6414E-02
    -25.604  0.1202E-02  0.6647E-02
    -25.411  0.5138E-02  0.7642E-02
    -25.217  0.8848E-02  0.9354E-02
    -25.024  0.9880E-02  0.1127E-01
    -24.830  0.6665E-02  0.1256E-01
    -24.637  0.3550E-02  0.1324E-01
    -24.443  0.4477E-02  0.1411E-01
    -24.249  0.4883E-02  0.1505E-01
    -24.056  0.2857E-02  0.1561E-01
    -23.862  0.1426E-02  0.1588E-01
    -23.669  0.5459E-03  0.1599E-01
    -23.475  0.5304E-04  0.1600E-01
    -23.282  0.9600E-06  0.1600E-01
    -23.088  0.2979E-08  0.1600E-01
    -22.895  0.1521E-11  0.1600E-01
    -22.701  0.1248E-15  0.1600E-01
    -22.508  0.0000E+00  0.1600E-01
    -22.314  0.0000E+00  0.1600E-01
    -22.121  0.1901E-15  0.1600E-01
    -21.927  0.2339E-11  0.1600E-01
    -21.733  0.4809E-08  0.1600E-01
    -21.540  0.1743E-05  0.1600E-01
    -21.346  0.1226E-03  0.1602E-01
    -21.153  0.1970E-02  0.1641E-01
    -20.959  0.9101E-02  0.1817E-01
    -20.766  0.1621E-01  0.2130E-01
    -20.572  0.1759E-01  0.2471E-01
    -20.379  0.1968E-01  0.2852E-01
    -20.185  0.1906E-01  0.3221E-01
    -19.992  0.1042E-01  0.3422E-01
    -19.798  0.4260E-02  0.3505E-01
    -19.605  0.7564E-03  0.3519E-01
    -19.411  0.3145E-04  0.3520E-01
    -19.217  0.2524E-06  0.3520E-01
    -19.024  0.3604E-09  0.3520E-01
    -18.830  0.8728E-13  0.3520E-01
    -18.637  0.3212E-17  0.3520E-01
    -18.443  0.0000E+00  0.3520E-01
    -18.250  0.0000E+00  0.3520E-01
    -18.056  0.0000E+00  0.3520E-01
    -17.863  0.0000E+00  0.3520E-01
    -17.669  0.0000E+00  0.3520E-01
    -17.476  0.0000E+00  0.3520E-01
    -17.282  0.0000E+00  0.3520E-01
    -17.089  0.0000E+00  0.3520E-01
    -16.895  0.0000E+00  0.3520E-01
    -16.701  0.0000E+00  0.3520E-01
    -16.508  0.0000E+00  0.3520E-01
    -16.314  0.0000E+00  0.3520E-01
    -16.121  0.0000E+00  0.3520E-01
    -15.927  0.0000E+00  0.3520E-01
    -15.734  0.0000E+00  0.3520E-01
    -15.540  0.0000E+00  0.3520E-01
    -15.347  0.0000E+00  0.3520E-01
    -15.153  0.0000E+00  0.3520E-01
    -14.960  0.0000E+00  0.3520E-01
    -14.766  0.0000E+00  0.3520E-01
    -14.573  0.2295E-18  0.3520E-01
    -14.379  0.8601E-14  0.3520E-01
    -14.185  0.5153E-10  0.3520E-01
    -13.992  0.5106E-07  0.3520E-01
    -13.798  0.8671E-05  0.3520E-01
    -13.605  0.2699E-03  0.3525E-01
    -13.411  0.1798E-02  0.3560E-01
    -13.218  0.3709E-02  0.3632E-01
    -13.024  0.3432E-02  0.3698E-01
    -12.831  0.1831E-02  0.3734E-01
    -12.637  0.4322E-02  0.3817E-01
    -12.444  0.8214E-02  0.3976E-01
    -12.250  0.9371E-02  0.4158E-01
    -12.057  0.1110E-01  0.4373E-01
    -11.863  0.1309E-01  0.4626E-01
    -11.669  0.1513E-01  0.4919E-01
    -11.476  0.1703E-01  0.5249E-01
    -11.282  0.1877E-01  0.5612E-01
    -11.089  0.1790E-01  0.5958E-01
    -10.895  0.1749E-01  0.6297E-01
    -10.702  0.1841E-01  0.6653E-01
    -10.508  0.1537E-01  0.6950E-01
    -10.315  0.1064E-01  0.7156E-01
    -10.121  0.7277E-02  0.7297E-01
     -9.928  0.2878E-02  0.7353E-01
     -9.734  0.3603E-03  0.7360E-01
     -9.541  0.4538E-04  0.7361E-01
     -9.347  0.5761E-03  0.7372E-01
     -9.153  0.2779E-02  0.7426E-01
     -8.960  0.7099E-02  0.7563E-01
     -8.766  0.1221E-01  0.7799E-01
     -8.573  0.1569E-01  0.8103E-01
     -8.379  0.1775E-01  0.8446E-01
     -8.186  0.1787E-01  0.8792E-01
     -7.992  0.1685E-01  0.9118E-01
     -7.799  0.1527E-01  0.9414E-01
     -7.605  0.1220E-01  0.9650E-01
     -7.412  0.9014E-02  0.9824E-01
     -7.218  0.7074E-02  0.9961E-01
     -7.025  0.5608E-02  0.1007E+00
     -6.831  0.4759E-02  0.1016E+00
     -6.637  0.2995E-02  0.1022E+00
     -6.444  0.9403E-03  0.1024E+00
     -6.250  0.9635E-04  0.1024E+00
     -6.057  0.2184E-05  0.1024E+00
     -5.863  0.8999E-08  0.1024E+00
     -5.670  0.6213E-11  0.1024E+00
     -5.476  0.6939E-15  0.1024E+00
     -5.283  0.0000E+00  0.1024E+00
     -5.089  0.0000E+00  0.1024E+00
     -4.896  0.0000E+00  0.1024E+00
     -4.702  0.0000E+00  0.1024E+00
     -4.509  0.0000E+00  0.1024E+00
     -4.315  0.0000E+00  0.1024E+00
     -4.121  0.0000E+00  0.1024E+00
     -3.928  0.0000E+00  0.1024E+00
     -3.734  0.0000E+00  0.1024E+00
     -3.541  0.0000E+00  0.1024E+00
     -3.347  0.0000E+00  0.1024E+00
     -3.154  0.0000E+00  0.1024E+00
     -2.960  0.0000E+00  0.1024E+00
     -2.767  0.0000E+00  0.1024E+00
     -2.573  0.0000E+00  0.1024E+00
     -2.380  0.0000E+00  0.1024E+00
     -2.186  0.0000E+00  0.1024E+00
     -1.992  0.0000E+00  0.1024E+00
     -1.799  0.0000E+00  0.1024E+00
     -1.605  0.3442E-18  0.1024E+00
     -1.412  0.1263E-13  0.1024E+00
     -1.218  0.6549E-10  0.1024E+00
     -1.025  0.5506E-07  0.1024E+00
     -0.831  0.7738E-05  0.1024E+00
     -0.638  0.1911E-03  0.1024E+00
     -0.444  0.8882E-03  0.1026E+00
     -0.251  0.8230E-03  0.1028E+00
     -0.057  0.1515E-03  0.1028E+00
      0.136  0.9508E-05  0.1028E+00
      0.330  0.1503E-03  0.1028E+00
      0.524  0.1226E-02  0.1031E+00
      0.717  0.3686E-02  0.1038E+00
      0.911  0.7036E-02  0.1051E+00
      1.104  0.1105E-01  0.1073E+00
      1.298  0.1655E-01  0.1105E+00
      1.491  0.2243E-01  0.1148E+00
      1.685  0.2544E-01  0.1198E+00
      1.878  0.2763E-01  0.1251E+00
      2.072  0.2954E-01  0.1308E+00
      2.265  0.3025E-01  0.1367E+00
      2.459  0.3074E-01  0.1426E+00
      2.652  0.2928E-01  0.1483E+00
      2.846  0.2830E-01  0.1538E+00
      3.040  0.2896E-01  0.1594E+00
      3.233  0.3000E-01  0.1652E+00
      3.427  0.3046E-01  0.1711E+00
      3.620  0.3150E-01  0.1772E+00
      3.814  0.3206E-01  0.1834E+00
      4.007  0.3231E-01  0.1896E+00
      4.201  0.3285E-01  0.1960E+00
      4.394  0.3167E-01  0.2021E+00
      4.588  0.2803E-01  0.2075E+00
      4.781  0.2318E-01  0.2120E+00
      4.975  0.1669E-01  0.2153E+00
      5.168  0.8712E-02  0.2169E+00
      5.362  0.2981E-02  0.2175E+00
      5.556  0.4271E-03  0.2176E+00
      5.749  0.1546E-04  0.2176E+00
      5.943  0.1098E-06  0.2176E+00
      6.136  0.1368E-09  0.2176E+00
      6.330  0.2846E-13  0.2176E+00
      6.523  0.9178E-18  0.2176E+00
      6.717  0.0000E+00  0.2176E+00
      6.910  0.0000E+00  0.2176E+00
      7.104  0.0000E+00  0.2176E+00
      7.297  0.3442E-18  0.2176E+00
      7.491  0.1321E-13  0.2176E+00
      7.684  0.7162E-10  0.2176E+00
      7.878  0.6443E-07  0.2176E+00
      8.072  0.1000E-04  0.2176E+00
      8.265  0.2863E-03  0.2177E+00
      8.459  0.1773E-02  0.2180E+00
      8.652  0.4283E-02  0.2188E+00
      8.846  0.8754E-02  0.2205E+00
      9.039  0.1323E-01  0.2231E+00
      9.233  0.1841E-01  0.2266E+00
      9.426  0.2663E-01  0.2318E+00
      9.620  0.3782E-01  0.2391E+00
      9.813  0.4920E-01  0.2486E+00
     10.007  0.4588E-01  0.2575E+00
     10.200  0.2162E-01  0.2617E+00
     10.394  0.3441E-02  0.2624E+00
     10.588  0.1391E-03  0.2624E+00
     10.781  0.1189E-05  0.2624E+00
     10.975  0.1910E-08  0.2624E+00
     11.168  0.5376E-12  0.2624E+00
     11.362  0.2524E-16  0.2624E+00
     11.555  0.0000E+00  0.2624E+00
     11.749  0.0000E+00  0.2624E+00
     11.942  0.0000E+00  0.2624E+00
     12.136  0.0000E+00  0.2624E+00
     12.329  0.0000E+00  0.2624E+00
     12.523  0.0000E+00  0.2624E+00
     12.716  0.0000E+00  0.2624E+00
