 # LLZO_Ia3d_Al30_partial_00.vasp
 
        1488  atoms
           5  atom types
 
      0.000000000000      26.384199142500  xlo xhi
      0.000000000000      26.384199142500  ylo yhi
      0.000000000000      26.384199142500  zlo zhi
 
Masses
 
            1   15.99900000             # O
            2   138.90547000            # La
            3   91.22400000             # Zr
            4   6.94000000              # Li
            5   26.98153860             # Al
 
Atoms # atomic
 
         1    1        1.319209970317       2.580374715713       3.714895212880
         2    1       11.872889297515      10.611724459774       9.477204358370
         3    1        5.276839907653      10.611724459774      10.310944998505
         4    1        7.915260059360       2.580374715713       2.881154572745
         5    1       11.872889297515       9.176424897101       2.881154572745
         6    1        1.319209970317       4.015675069912      10.310944998505
         7    1        7.915260059360       4.015675069912       9.477204358370
         8    1        5.276839907653       9.176424897101       3.714895212880
         9    1        3.714895212880       1.319209970317       2.580374715713
        10    1        9.477204358370      11.872889297515      10.611724459774
        11    1       10.310944998505       5.276839907653      10.611724459774
        12    1        2.881154572745       7.915260059360       2.580374715713
        13    1        2.881154572745      11.872889297515       9.176424897101
        14    1       10.310944998505       1.319209970317       4.015675069912
        15    1        9.477204358370       7.915260059360       4.015675069912
        16    1        3.714895212880       5.276839907653       9.176424897101
        17    1        2.580374715713       3.714895212880       1.319209970317
        18    1       10.611724459774       9.477204358370      11.872889297515
        19    1       10.611724459774      10.310944998505       5.276839907653
        20    1        2.580374715713       2.881154572745       7.915260059360
        21    1        9.176424897101       2.881154572745      11.872889297515
        22    1        4.015675069912      10.310944998505       1.319209970317
        23    1        4.015675069912       9.477204358370       7.915260059360
        24    1        9.176424897101       3.714895212880       5.276839907653
        25    1       12.474449789913       4.617234770785      12.775229251183
        26    1        0.717650177100       8.574864404702       0.416870320067
        27    1        7.313699566962       8.574864404702       6.179179465558
        28    1        5.878399608525       4.617234770785       7.012920105692
        29    1        5.878399608525       1.978815014840       0.416870320067
        30    1        7.313699566962      11.213284952173      12.775229251183
        31    1        0.717650177100      11.213284952173       7.012920105692
        32    1       12.474449789913       1.978815014840       6.179179465558
        33    1       11.213284952173       7.012920105692       0.717650177100
        34    1        1.978815014840       6.179179465558      12.474449789913
        35    1        1.978815014840       0.416870320067       5.878399608525
        36    1       11.213284952173      12.775229251183       7.313699566962
        37    1        8.574864404702       6.179179465558       7.313699566962
        38    1        4.617234770785       7.012920105692       5.878399608525
        39    1        4.617234770785      12.775229251183      12.474449789913
        40    1        8.574864404702       0.416870320067       0.717650177100
        41    1        0.416870320067       5.878399608525       1.978815014840
        42    1       12.775229251183       7.313699566962      11.213284952173
        43    1        7.012920105692       0.717650177100      11.213284952173
        44    1        6.179179465558      12.474449789913       1.978815014840
        45    1       12.775229251183      12.474449789913       4.617234770785
        46    1        0.416870320067       0.717650177100       8.574864404702
        47    1        6.179179465558       7.313699566962       8.574864404702
        48    1        7.012920105692       5.878399608525       4.617234770785
        49    1        7.915260059360       9.176424897101      10.310944998505
        50    1        5.276839907653       4.015675069912       2.881154572745
        51    1       11.872889297515       4.015675069912       3.714895212880
        52    1        1.319209970317       9.176424897101       9.477204358370
        53    1        5.276839907653       2.580374715713       9.477204358370
        54    1        7.915260059360      10.611724459774       3.714895212880
        55    1        1.319209970317      10.611724459774       2.881154572745
        56    1       11.872889297515       2.580374715713      10.310944998505
        57    1       10.310944998505       7.915260059360       9.176424897101
        58    1        2.881154572745       5.276839907653       4.015675069912
        59    1        3.714895212880      11.872889297515       4.015675069912
        60    1        9.477204358370       1.319209970317       9.176424897101
        61    1        9.477204358370       5.276839907653       2.580374715713
        62    1        3.714895212880       7.915260059360      10.611724459774
        63    1        2.881154572745       1.319209970317      10.611724459774
        64    1       10.310944998505      11.872889297515       2.580374715713
        65    1        9.176424897101      10.310944998505       7.915260059360
        66    1        4.015675069912       2.881154572745       5.276839907653
        67    1        4.015675069912       3.714895212880      11.872889297515
        68    1        9.176424897101       9.477204358370       1.319209970317
        69    1        2.580374715713       9.477204358370       5.276839907653
        70    1       10.611724459774       3.714895212880       7.915260059360
        71    1       10.611724459774       2.881154572745       1.319209970317
        72    1        2.580374715713      10.310944998505      11.872889297515
        73    1        5.878399608525      11.213284952173       6.179179465558
        74    1        7.313699566962       1.978815014840       7.012920105692
        75    1        0.717650177100       1.978815014840      12.775229251183
        76    1       12.474449789913      11.213284952173       0.416870320067
        77    1       12.474449789913       8.574864404702       7.012920105692
        78    1        0.717650177100       4.617234770785       6.179179465558
        79    1        7.313699566962       4.617234770785       0.416870320067
        80    1        5.878399608525       8.574864404702      12.775229251183
        81    1        4.617234770785       0.416870320067       7.313699566962
        82    1        8.574864404702      12.775229251183       5.878399608525
        83    1        8.574864404702       7.012920105692      12.474449789913
        84    1        4.617234770785       6.179179465558       0.717650177100
        85    1        1.978815014840      12.775229251183       0.717650177100
        86    1       11.213284952173       0.416870320067      12.474449789913
        87    1       11.213284952173       6.179179465558       5.878399608525
        88    1        1.978815014840       7.012920105692       7.313699566962
        89    1        7.012920105692      12.474449789913       8.574864404702
        90    1        6.179179465558       0.717650177100       4.617234770785
        91    1        0.416870320067       7.313699566962       4.617234770785
        92    1       12.775229251183       5.878399608525       8.574864404702
        93    1        6.179179465558       5.878399608525      11.213284952173
        94    1        7.012920105692       7.313699566962       1.978815014840
        95    1       12.775229251183       0.717650177100       1.978815014840
        96    1        0.416870320067      12.474449789913      11.213284952173
        97    1        1.319209970317       2.580374715713      16.906994784130
        98    1       11.872889297515      10.611724459774      22.669303929620
        99    1        5.276839907653      10.611724459774      23.503044569755
       100    1        7.915260059360       2.580374715713      16.073254143995
       101    1       11.872889297515       9.176424897101      16.073254143995
       102    1        1.319209970317       4.015675069912      23.503044569755
       103    1        7.915260059360       4.015675069912      22.669303929620
       104    1        5.276839907653       9.176424897101      16.906994784130
       105    1        3.714895212880       1.319209970317      15.772474286963
       106    1        9.477204358370      11.872889297515      23.803824031024
       107    1       10.310944998505       5.276839907653      23.803824031024
       108    1        2.881154572745       7.915260059360      15.772474286963
       109    1        2.881154572745      11.872889297515      22.368524468351
       110    1       10.310944998505       1.319209970317      17.207774641162
       111    1        9.477204358370       7.915260059360      17.207774641162
       112    1        3.714895212880       5.276839907653      22.368524468351
       113    1        2.580374715713       3.714895212880      14.511309541567
       114    1       10.611724459774       9.477204358370      25.064988868765
       115    1       10.611724459774      10.310944998505      18.468939478903
       116    1        2.580374715713       2.881154572745      21.107359630610
       117    1        9.176424897101       2.881154572745      25.064988868765
       118    1        4.015675069912      10.310944998505      14.511309541567
       119    1        4.015675069912       9.477204358370      21.107359630610
       120    1        9.176424897101       3.714895212880      18.468939478903
       121    1       12.474449789913       4.617234770785      25.967328822433
       122    1        0.717650177100       8.574864404702      13.608969891317
       123    1        7.313699566962       8.574864404702      19.371279036808
       124    1        5.878399608525       4.617234770785      20.205019676942
       125    1        5.878399608525       1.978815014840      13.608969891317
       126    1        7.313699566962      11.213284952173      25.967328822433
       127    1        0.717650177100      11.213284952173      20.205019676942
       128    1       12.474449789913       1.978815014840      19.371279036808
       129    1       11.213284952173       7.012920105692      13.909749748350
       130    1        1.978815014840       6.179179465558      25.666549361163
       131    1        1.978815014840       0.416870320067      19.070499179775
       132    1       11.213284952173      12.775229251183      20.505799138212
       133    1        8.574864404702       6.179179465558      20.505799138212
       134    1        4.617234770785       7.012920105692      19.070499179775
       135    1        4.617234770785      12.775229251183      25.666549361163
       136    1        8.574864404702       0.416870320067      13.909749748350
       137    1        0.416870320067       5.878399608525      15.170914586090
       138    1       12.775229251183       7.313699566962      24.405384523423
       139    1        7.012920105692       0.717650177100      24.405384523423
       140    1        6.179179465558      12.474449789913      15.170914586090
       141    1       12.775229251183      12.474449789913      17.809334342035
       142    1        0.416870320067       0.717650177100      21.766963975952
       143    1        6.179179465558       7.313699566962      21.766963975952
       144    1        7.012920105692       5.878399608525      17.809334342035
       145    1        7.915260059360       9.176424897101      23.503044569755
       146    1        5.276839907653       4.015675069912      16.073254143995
       147    1       11.872889297515       4.015675069912      16.906994784130
       148    1        1.319209970317       9.176424897101      22.669303929620
       149    1        5.276839907653       2.580374715713      22.669303929620
       150    1        7.915260059360      10.611724459774      16.906994784130
       151    1        1.319209970317      10.611724459774      16.073254143995
       152    1       11.872889297515       2.580374715713      23.503044569755
       153    1       10.310944998505       7.915260059360      22.368524468351
       154    1        2.881154572745       5.276839907653      17.207774641162
       155    1        3.714895212880      11.872889297515      17.207774641162
       156    1        9.477204358370       1.319209970317      22.368524468351
       157    1        9.477204358370       5.276839907653      15.772474286963
       158    1        3.714895212880       7.915260059360      23.803824031024
       159    1        2.881154572745       1.319209970317      23.803824031024
       160    1       10.310944998505      11.872889297515      15.772474286963
       161    1        9.176424897101      10.310944998505      21.107359630610
       162    1        4.015675069912       2.881154572745      18.468939478903
       163    1        4.015675069912       3.714895212880      25.064988868765
       164    1        9.176424897101       9.477204358370      14.511309541567
       165    1        2.580374715713       9.477204358370      18.468939478903
       166    1       10.611724459774       3.714895212880      21.107359630610
       167    1       10.611724459774       2.881154572745      14.511309541567
       168    1        2.580374715713      10.310944998505      25.064988868765
       169    1        5.878399608525      11.213284952173      19.371279036808
       170    1        7.313699566962       1.978815014840      20.205019676942
       171    1        0.717650177100       1.978815014840      25.967328822433
       172    1       12.474449789913      11.213284952173      13.608969891317
       173    1       12.474449789913       8.574864404702      20.205019676942
       174    1        0.717650177100       4.617234770785      19.371279036808
       175    1        7.313699566962       4.617234770785      13.608969891317
       176    1        5.878399608525       8.574864404702      25.967328822433
       177    1        4.617234770785       0.416870320067      20.505799138212
       178    1        8.574864404702      12.775229251183      19.070499179775
       179    1        8.574864404702       7.012920105692      25.666549361163
       180    1        4.617234770785       6.179179465558      13.909749748350
       181    1        1.978815014840      12.775229251183      13.909749748350
       182    1       11.213284952173       0.416870320067      25.666549361163
       183    1       11.213284952173       6.179179465558      19.070499179775
       184    1        1.978815014840       7.012920105692      20.505799138212
       185    1        7.012920105692      12.474449789913      21.766963975952
       186    1        6.179179465558       0.717650177100      17.809334342035
       187    1        0.416870320067       7.313699566962      17.809334342035
       188    1       12.775229251183       5.878399608525      21.766963975952
       189    1        6.179179465558       5.878399608525      24.405384523423
       190    1        7.012920105692       7.313699566962      15.170914586090
       191    1       12.775229251183       0.717650177100      15.170914586090
       192    1        0.416870320067      12.474449789913      24.405384523423
       193    1        1.319209970317      15.772474286963       3.714895212880
       194    1       11.872889297515      23.803824031024       9.477204358370
       195    1        5.276839907653      23.803824031024      10.310944998505
       196    1        7.915260059360      15.772474286963       2.881154572745
       197    1       11.872889297515      22.368524468351       2.881154572745
       198    1        1.319209970317      17.207774641162      10.310944998505
       199    1        7.915260059360      17.207774641162       9.477204358370
       200    1        5.276839907653      22.368524468351       3.714895212880
       201    1        3.714895212880      14.511309541567       2.580374715713
       202    1        9.477204358370      25.064988868765      10.611724459774
       203    1       10.310944998505      18.468939478903      10.611724459774
       204    1        2.881154572745      21.107359630610       2.580374715713
       205    1        2.881154572745      25.064988868765       9.176424897101
       206    1       10.310944998505      14.511309541567       4.015675069912
       207    1        9.477204358370      21.107359630610       4.015675069912
       208    1        3.714895212880      18.468939478903       9.176424897101
       209    1        2.580374715713      16.906994784130       1.319209970317
       210    1       10.611724459774      22.669303929620      11.872889297515
       211    1       10.611724459774      23.503044569755       5.276839907653
       212    1        2.580374715713      16.073254143995       7.915260059360
       213    1        9.176424897101      16.073254143995      11.872889297515
       214    1        4.015675069912      23.503044569755       1.319209970317
       215    1        4.015675069912      22.669303929620       7.915260059360
       216    1        9.176424897101      16.906994784130       5.276839907653
       217    1       12.474449789913      17.809334342035      12.775229251183
       218    1        0.717650177100      21.766963975952       0.416870320067
       219    1        7.313699566962      21.766963975952       6.179179465558
       220    1        5.878399608525      17.809334342035       7.012920105692
       221    1        5.878399608525      15.170914586090       0.416870320067
       222    1        7.313699566962      24.405384523423      12.775229251183
       223    1        0.717650177100      24.405384523423       7.012920105692
       224    1       12.474449789913      15.170914586090       6.179179465558
       225    1       11.213284952173      20.205019676942       0.717650177100
       226    1        1.978815014840      19.371279036808      12.474449789913
       227    1        1.978815014840      13.608969891317       5.878399608525
       228    1       11.213284952173      25.967328822433       7.313699566962
       229    1        8.574864404702      19.371279036808       7.313699566962
       230    1        4.617234770785      20.205019676942       5.878399608525
       231    1        4.617234770785      25.967328822433      12.474449789913
       232    1        8.574864404702      13.608969891317       0.717650177100
       233    1        0.416870320067      19.070499179775       1.978815014840
       234    1       12.775229251183      20.505799138212      11.213284952173
       235    1        7.012920105692      13.909749748350      11.213284952173
       236    1        6.179179465558      25.666549361163       1.978815014840
       237    1       12.775229251183      25.666549361163       4.617234770785
       238    1        0.416870320067      13.909749748350       8.574864404702
       239    1        6.179179465558      20.505799138212       8.574864404702
       240    1        7.012920105692      19.070499179775       4.617234770785
       241    1        7.915260059360      22.368524468351      10.310944998505
       242    1        5.276839907653      17.207774641162       2.881154572745
       243    1       11.872889297515      17.207774641162       3.714895212880
       244    1        1.319209970317      22.368524468351       9.477204358370
       245    1        5.276839907653      15.772474286963       9.477204358370
       246    1        7.915260059360      23.803824031024       3.714895212880
       247    1        1.319209970317      23.803824031024       2.881154572745
       248    1       11.872889297515      15.772474286963      10.310944998505
       249    1       10.310944998505      21.107359630610       9.176424897101
       250    1        2.881154572745      18.468939478903       4.015675069912
       251    1        3.714895212880      25.064988868765       4.015675069912
       252    1        9.477204358370      14.511309541567       9.176424897101
       253    1        9.477204358370      18.468939478903       2.580374715713
       254    1        3.714895212880      21.107359630610      10.611724459774
       255    1        2.881154572745      14.511309541567      10.611724459774
       256    1       10.310944998505      25.064988868765       2.580374715713
       257    1        9.176424897101      23.503044569755       7.915260059360
       258    1        4.015675069912      16.073254143995       5.276839907653
       259    1        4.015675069912      16.906994784130      11.872889297515
       260    1        9.176424897101      22.669303929620       1.319209970317
       261    1        2.580374715713      22.669303929620       5.276839907653
       262    1       10.611724459774      16.906994784130       7.915260059360
       263    1       10.611724459774      16.073254143995       1.319209970317
       264    1        2.580374715713      23.503044569755      11.872889297515
       265    1        5.878399608525      24.405384523423       6.179179465558
       266    1        7.313699566962      15.170914586090       7.012920105692
       267    1        0.717650177100      15.170914586090      12.775229251183
       268    1       12.474449789913      24.405384523423       0.416870320067
       269    1       12.474449789913      21.766963975952       7.012920105692
       270    1        0.717650177100      17.809334342035       6.179179465558
       271    1        7.313699566962      17.809334342035       0.416870320067
       272    1        5.878399608525      21.766963975952      12.775229251183
       273    1        4.617234770785      13.608969891317       7.313699566962
       274    1        8.574864404702      25.967328822433       5.878399608525
       275    1        8.574864404702      20.205019676942      12.474449789913
       276    1        4.617234770785      19.371279036808       0.717650177100
       277    1        1.978815014840      25.967328822433       0.717650177100
       278    1       11.213284952173      13.608969891317      12.474449789913
       279    1       11.213284952173      19.371279036808       5.878399608525
       280    1        1.978815014840      20.205019676942       7.313699566962
       281    1        7.012920105692      25.666549361163       8.574864404702
       282    1        6.179179465558      13.909749748350       4.617234770785
       283    1        0.416870320067      20.505799138212       4.617234770785
       284    1       12.775229251183      19.070499179775       8.574864404702
       285    1        6.179179465558      19.070499179775      11.213284952173
       286    1        7.012920105692      20.505799138212       1.978815014840
       287    1       12.775229251183      13.909749748350       1.978815014840
       288    1        0.416870320067      25.666549361163      11.213284952173
       289    1        1.319209970317      15.772474286963      16.906994784130
       290    1       11.872889297515      23.803824031024      22.669303929620
       291    1        5.276839907653      23.803824031024      23.503044569755
       292    1        7.915260059360      15.772474286963      16.073254143995
       293    1       11.872889297515      22.368524468351      16.073254143995
       294    1        1.319209970317      17.207774641162      23.503044569755
       295    1        7.915260059360      17.207774641162      22.669303929620
       296    1        5.276839907653      22.368524468351      16.906994784130
       297    1        3.714895212880      14.511309541567      15.772474286963
       298    1        9.477204358370      25.064988868765      23.803824031024
       299    1       10.310944998505      18.468939478903      23.803824031024
       300    1        2.881154572745      21.107359630610      15.772474286963
       301    1        2.881154572745      25.064988868765      22.368524468351
       302    1       10.310944998505      14.511309541567      17.207774641162
       303    1        9.477204358370      21.107359630610      17.207774641162
       304    1        3.714895212880      18.468939478903      22.368524468351
       305    1        2.580374715713      16.906994784130      14.511309541567
       306    1       10.611724459774      22.669303929620      25.064988868765
       307    1       10.611724459774      23.503044569755      18.468939478903
       308    1        2.580374715713      16.073254143995      21.107359630610
       309    1        9.176424897101      16.073254143995      25.064988868765
       310    1        4.015675069912      23.503044569755      14.511309541567
       311    1        4.015675069912      22.669303929620      21.107359630610
       312    1        9.176424897101      16.906994784130      18.468939478903
       313    1       12.474449789913      17.809334342035      25.967328822433
       314    1        0.717650177100      21.766963975952      13.608969891317
       315    1        7.313699566962      21.766963975952      19.371279036808
       316    1        5.878399608525      17.809334342035      20.205019676942
       317    1        5.878399608525      15.170914586090      13.608969891317
       318    1        7.313699566962      24.405384523423      25.967328822433
       319    1        0.717650177100      24.405384523423      20.205019676942
       320    1       12.474449789913      15.170914586090      19.371279036808
       321    1       11.213284952173      20.205019676942      13.909749748350
       322    1        1.978815014840      19.371279036808      25.666549361163
       323    1        1.978815014840      13.608969891317      19.070499179775
       324    1       11.213284952173      25.967328822433      20.505799138212
       325    1        8.574864404702      19.371279036808      20.505799138212
       326    1        4.617234770785      20.205019676942      19.070499179775
       327    1        4.617234770785      25.967328822433      25.666549361163
       328    1        8.574864404702      13.608969891317      13.909749748350
       329    1        0.416870320067      19.070499179775      15.170914586090
       330    1       12.775229251183      20.505799138212      24.405384523423
       331    1        7.012920105692      13.909749748350      24.405384523423
       332    1        6.179179465558      25.666549361163      15.170914586090
       333    1       12.775229251183      25.666549361163      17.809334342035
       334    1        0.416870320067      13.909749748350      21.766963975952
       335    1        6.179179465558      20.505799138212      21.766963975952
       336    1        7.012920105692      19.070499179775      17.809334342035
       337    1        7.915260059360      22.368524468351      23.503044569755
       338    1        5.276839907653      17.207774641162      16.073254143995
       339    1       11.872889297515      17.207774641162      16.906994784130
       340    1        1.319209970317      22.368524468351      22.669303929620
       341    1        5.276839907653      15.772474286963      22.669303929620
       342    1        7.915260059360      23.803824031024      16.906994784130
       343    1        1.319209970317      23.803824031024      16.073254143995
       344    1       11.872889297515      15.772474286963      23.503044569755
       345    1       10.310944998505      21.107359630610      22.368524468351
       346    1        2.881154572745      18.468939478903      17.207774641162
       347    1        3.714895212880      25.064988868765      17.207774641162
       348    1        9.477204358370      14.511309541567      22.368524468351
       349    1        9.477204358370      18.468939478903      15.772474286963
       350    1        3.714895212880      21.107359630610      23.803824031024
       351    1        2.881154572745      14.511309541567      23.803824031024
       352    1       10.310944998505      25.064988868765      15.772474286963
       353    1        9.176424897101      23.503044569755      21.107359630610
       354    1        4.015675069912      16.073254143995      18.468939478903
       355    1        4.015675069912      16.906994784130      25.064988868765
       356    1        9.176424897101      22.669303929620      14.511309541567
       357    1        2.580374715713      22.669303929620      18.468939478903
       358    1       10.611724459774      16.906994784130      21.107359630610
       359    1       10.611724459774      16.073254143995      14.511309541567
       360    1        2.580374715713      23.503044569755      25.064988868765
       361    1        5.878399608525      24.405384523423      19.371279036808
       362    1        7.313699566962      15.170914586090      20.205019676942
       363    1        0.717650177100      15.170914586090      25.967328822433
       364    1       12.474449789913      24.405384523423      13.608969891317
       365    1       12.474449789913      21.766963975952      20.205019676942
       366    1        0.717650177100      17.809334342035      19.371279036808
       367    1        7.313699566962      17.809334342035      13.608969891317
       368    1        5.878399608525      21.766963975952      25.967328822433