       N       E                     dE             d eps       ncg     rms          rms(c)
DAV:   1     0.263797121488E+05    0.26380E+05   -0.40177E+05  1528   0.255E+03
DAV:   2     0.963254966636E+04   -0.16747E+05   -0.15532E+05  1432   0.733E+02
DAV:   3     0.261229737020E+04   -0.70203E+04   -0.63849E+04  1512   0.364E+02
DAV:   4    -0.485180949532E+03   -0.30975E+04   -0.28966E+04  2056   0.226E+02
DAV:   5    -0.147998098191E+04   -0.99480E+03   -0.96391E+03  2520   0.136E+02    0.117E+02
DAV:   6    -0.133984026157E+04    0.14014E+03   -0.13802E+03  2416   0.635E+01    0.499E+01
DAV:   7    -0.136194770427E+04   -0.22107E+02   -0.32394E+02  2568   0.322E+01    0.219E+01
DAV:   8    -0.137010596464E+04   -0.81583E+01   -0.16652E+02  2568   0.210E+01    0.218E+01
DAV:   9    -0.136592351663E+04    0.41824E+01   -0.50180E+01  2456   0.129E+01    0.586E+00
DAV:  10    -0.136732726528E+04   -0.14037E+01   -0.12534E+01  2576   0.782E+00    0.892E+00
DAV:  11    -0.136720553253E+04    0.12173E+00   -0.45857E+00  2624   0.420E+00    0.440E+00
DAV:  12    -0.136711069829E+04    0.94834E-01   -0.32734E+00  2576   0.322E+00    0.264E+00
DAV:  13    -0.136714913763E+04   -0.38439E-01   -0.13483E+00  2496   0.238E+00    0.214E+00
DAV:  14    -0.136713834686E+04    0.10791E-01   -0.23130E-01  2624   0.108E+00    0.137E+00
DAV:  15    -0.136713801280E+04    0.33406E-03   -0.17942E-01  2512   0.824E-01    0.953E-01
DAV:  16    -0.136713952127E+04   -0.15085E-02   -0.25242E-02  2544   0.382E-01    0.448E-01
DAV:  17    -0.136713844349E+04    0.10778E-02   -0.92567E-03  2568   0.190E-01    0.332E-01
DAV:  18    -0.136713885443E+04   -0.41094E-03   -0.23849E-03  2376   0.942E-02    0.341E-01
DAV:  19    -0.136713917150E+04   -0.31707E-03   -0.93144E-04  2520   0.498E-02    0.365E-01
DAV:  20    -0.136713893965E+04    0.23185E-03   -0.11719E-03  2168   0.586E-02    0.332E-01
DAV:  21    -0.136713841742E+04    0.52223E-03   -0.72750E-03  2064   0.125E-01    0.315E-01
DAV:  22    -0.136713820124E+04    0.21618E-03   -0.11710E-03  2232   0.817E-02    0.266E-01
DAV:  23    -0.136713799209E+04    0.20915E-03   -0.31646E-04  2312   0.330E-02    0.202E-01
DAV:  24    -0.136713795374E+04    0.38350E-04   -0.61189E-05  2448   0.148E-02    0.186E-01
DAV:  25    -0.136713788754E+04    0.66202E-04   -0.44806E-05  2240   0.130E-02    0.151E-01
DAV:  26    -0.136713779695E+04    0.90582E-04   -0.15464E-04  2224   0.218E-02    0.850E-02
DAV:  27    -0.136713778071E+04    0.16243E-04   -0.11166E-04  2456   0.177E-02    0.467E-02
DAV:  28    -0.136713778339E+04   -0.26768E-05   -0.35919E-05  2344   0.115E-02    0.293E-02
DAV:  29    -0.136713778688E+04   -0.34911E-05   -0.25602E-05  1992   0.102E-02    0.120E-02
DAV:  30    -0.136713778759E+04   -0.71344E-06   -0.91023E-06  1368   0.719E-03
   1 F= -.13671378E+04 E0= -.13671378E+04  d E =-.136714E+04
       N       E                     dE             d eps       ncg     rms          rms(c)
DAV:   1    -0.136716537200E+04   -0.27585E-01   -0.38631E+00  1440   0.281E+00    0.323E-01
DAV:   2    -0.136718407416E+04   -0.18702E-01   -0.19685E-01  2272   0.107E+00    0.165E-01
DAV:   3    -0.136718510647E+04   -0.10323E-02   -0.15006E-02  2592   0.210E-01    0.132E-01
DAV:   4    -0.136718484692E+04    0.25955E-03   -0.14851E-03  2576   0.897E-02    0.879E-02
DAV:   5    -0.136718467020E+04    0.17673E-03   -0.87565E-04  2280   0.597E-02    0.313E-02
DAV:   6    -0.136718470222E+04   -0.32022E-04   -0.45294E-04  2520   0.403E-02    0.310E-02
DAV:   7    -0.136718469958E+04    0.26361E-05   -0.15770E-04  2512   0.240E-02    0.199E-02
DAV:   8    -0.136718469719E+04    0.23919E-05   -0.48455E-05  2552   0.141E-02    0.103E-02
DAV:   9    -0.136718469670E+04    0.48621E-06   -0.54843E-06  1392   0.669E-03
   2 F= -.13671847E+04 E0= -.13671847E+04  d E =-.469091E-01
       N       E                     dE             d eps       ncg     rms          rms(c)
DAV:   1    -0.136720802663E+04   -0.23329E-01   -0.16152E+00  1400   0.182E+00    0.214E-01
DAV:   2    -0.136721571390E+04   -0.76873E-02   -0.81535E-02  2280   0.681E-01    0.113E-01
DAV:   3    -0.136721609830E+04   -0.38440E-03   -0.62917E-03  2592   0.139E-01    0.909E-02
DAV:   4    -0.136721595648E+04    0.14182E-03   -0.71369E-04  2552   0.609E-02    0.570E-02
DAV:   5    -0.136721587717E+04    0.79310E-04   -0.40888E-04  2240   0.434E-02    0.229E-02
DAV:   6    -0.136721589178E+04   -0.14608E-04   -0.25309E-04  2544   0.306E-02    0.225E-02
DAV:   7    -0.136721589013E+04    0.16507E-05   -0.84875E-05  2448   0.173E-02    0.151E-02
DAV:   8    -0.136721588906E+04    0.10644E-05   -0.24792E-05  2360   0.989E-03    0.762E-03
DAV:   9    -0.136721588848E+04    0.58606E-06   -0.21193E-06  1056   0.522E-03
   3 F= -.13672159E+04 E0= -.13672159E+04  d E =-.311918E-01
       N       E                     dE             d eps       ncg     rms          rms(c)
DAV:   1    -0.136715790349E+04    0.57986E-01   -0.43288E+01  1360   0.934E+00    0.101E+00
DAV:   2    -0.136736516257E+04   -0.20726E+00   -0.21652E+00  2280   0.353E+00    0.510E-01
DAV:   3    -0.136737806543E+04   -0.12903E-01   -0.16984E-01  2592   0.680E-01    0.403E-01
DAV:   4    -0.136737636367E+04    0.17018E-02   -0.13619E-02  2592   0.275E-01    0.302E-01
DAV:   5    -0.136737399839E+04    0.23653E-02   -0.68136E-03  2296   0.173E-01    0.129E-01
DAV:   6    -0.136737407274E+04   -0.74350E-04   -0.56852E-03  2336   0.139E-01    0.861E-02
DAV:   7    -0.136737410933E+04   -0.36584E-04   -0.21231E-03  2432   0.860E-02    0.679E-02
DAV:   8    -0.136737409372E+04    0.15611E-04   -0.70942E-04  2560   0.521E-02    0.401E-02
DAV:   9    -0.136737407757E+04    0.16151E-04   -0.21002E-04  2376   0.290E-02    0.240E-02
DAV:  10    -0.136737408171E+04   -0.41427E-05   -0.81336E-05  2400   0.172E-02    0.155E-02
DAV:  11    -0.136737408032E+04    0.13925E-05   -0.20594E-05  2136   0.104E-02    0.782E-03
DAV:  12    -0.136737408071E+04   -0.39062E-06   -0.13460E-05  1896   0.772E-03    0.677E-03
DAV:  13    -0.136737408002E+04    0.68295E-06   -0.24162E-06  1024   0.536E-03
   4 F= -.13673741E+04 E0= -.13673741E+04  d E =-.158192E+00
       N       E                     dE             d eps       ncg     rms          rms(c)
DAV:   1    -0.136739863964E+04   -0.24559E-01   -0.10091E+01  1376   0.453E+00    0.491E-01
DAV:   2    -0.136744773425E+04   -0.49095E-01   -0.51485E-01  2280   0.173E+00    0.248E-01
DAV:   3    -0.136745087796E+04   -0.31437E-02   -0.41334E-02  2560   0.337E-01    0.195E-01
DAV:   4    -0.136745046704E+04    0.41092E-03   -0.34651E-03  2568   0.139E-01    0.147E-01
DAV:   5    -0.136744991921E+04    0.54783E-03   -0.17887E-03  2288   0.860E-02    0.609E-02
DAV:   6    -0.136744994188E+04   -0.22663E-04   -0.12966E-03  2336   0.660E-02    0.440E-02
DAV:   7    -0.136744995071E+04   -0.88300E-05   -0.54678E-04  2456   0.428E-02    0.331E-02
DAV:   8    -0.136744994564E+04    0.50688E-05   -0.17706E-04  2520   0.270E-02    0.198E-02
DAV:   9    -0.136744994314E+04    0.24937E-05   -0.45956E-05  2344   0.138E-02    0.123E-02
DAV:  10    -0.136744994365E+04   -0.50165E-06   -0.17190E-05  2072   0.832E-03    0.662E-03
DAV:  11    -0.136744994342E+04    0.22043E-06   -0.14422E-06   984   0.559E-03
   5 F= -.13674499E+04 E0= -.13674499E+04  d E =-.758634E-01
       N       E                     dE             d eps       ncg     rms          rms(c)
DAV:   1    -0.136747193963E+04   -0.21996E-01   -0.11705E+01  1384   0.485E+00    0.522E-01
DAV:   2    -0.136752829083E+04   -0.56351E-01   -0.59053E-01  2264   0.185E+00    0.263E-01
DAV:   3    -0.136753189228E+04   -0.36014E-02   -0.47352E-02  2576   0.362E-01    0.208E-01
DAV:   4    -0.136753141991E+04    0.47237E-03   -0.38548E-03  2584   0.145E-01    0.156E-01
DAV:   5    -0.136753076006E+04    0.65985E-03   -0.19371E-03  2288   0.916E-02    0.659E-02
DAV:   6    -0.136753077556E+04   -0.15494E-04   -0.15489E-03  2264   0.726E-02    0.450E-02
DAV:   7    -0.136753079174E+04   -0.16187E-04   -0.65878E-04  2440   0.460E-02    0.360E-02
DAV:   8    -0.136753078617E+04    0.55789E-05   -0.18846E-04  2544   0.277E-02    0.206E-02
DAV:   9    -0.136753078296E+04    0.32078E-05   -0.61879E-05  2400   0.155E-02    0.121E-02
DAV:  10    -0.136753078423E+04   -0.12704E-05   -0.18781E-05  2280   0.879E-03    0.853E-03
DAV:  11    -0.136753078339E+04    0.84286E-06   -0.32016E-06  1120   0.583E-03
   6 F= -.13675308E+04 E0= -.13675308E+04  d E =-.808400E-01
       N       E                     dE             d eps       ncg     rms          rms(c)
DAV:   1    -0.136736416479E+04    0.16662E+00   -0.67157E+01  1368   0.116E+01    0.126E+00
DAV:   2    -0.136769295137E+04   -0.32879E+00   -0.34475E+00  2264   0.445E+00    0.639E-01
DAV:   3    -0.136771305281E+04   -0.20101E-01   -0.27035E-01  2576   0.891E-01    0.506E-01
DAV:   4    -0.136771025283E+04    0.28000E-02   -0.23426E-02  2576   0.355E-01    0.377E-01
DAV:   5    -0.136770658979E+04    0.36630E-02   -0.10790E-02  2328   0.214E-01    0.165E-01
DAV:   6    -0.136770655347E+04    0.36321E-04   -0.84384E-03  2256   0.168E-01    0.100E-01
DAV:   7    -0.136770668109E+04   -0.12761E-03   -0.38556E-03  2464   0.112E-01    0.863E-02
DAV:   8    -0.136770664906E+04    0.32025E-04   -0.11143E-03  2552   0.678E-02    0.560E-02
DAV:   9    -0.136770662518E+04    0.23882E-04   -0.39429E-04  2528   0.378E-02    0.309E-02
DAV:  10    -0.136770663281E+04   -0.76280E-05   -0.12252E-04  2584   0.217E-02    0.206E-02
DAV:  11    -0.136770663196E+04    0.84996E-06   -0.30029E-05  2480   0.124E-02    0.128E-02
DAV:  12    -0.136770663110E+04    0.86195E-06   -0.29116E-05  2120   0.102E-02    0.947E-03
DAV:  13    -0.136770663064E+04    0.45958E-06   -0.12875E-05  1776   0.713E-03    0.573E-03
DAV:  14    -0.136770663041E+04    0.22459E-06   -0.47572E-06  1384   0.502E-03
   7 F= -.13677066E+04 E0= -.13677066E+04  d E =-.175847E+00
       N       E                     dE             d eps       ncg     rms          rms(c)
DAV:   1    -0.136770226991E+04    0.43607E-02   -0.16708E+01  1376   0.578E+00    0.628E-01
DAV:   2    -0.136778457852E+04   -0.82309E-01   -0.86456E-01  2272   0.224E+00    0.321E-01
DAV:   3    -0.136778966929E+04   -0.50908E-02   -0.69032E-02  2568   0.435E-01    0.254E-01
DAV:   4    -0.136778891519E+04    0.75410E-03   -0.58808E-03  2576   0.179E-01    0.191E-01
DAV:   5    -0.136778792494E+04    0.99025E-03   -0.26969E-03  2296   0.107E-01    0.854E-02
DAV:   6    -0.136778787552E+04    0.49420E-04   -0.22735E-03  2216   0.879E-02    0.506E-02
DAV:   7    -0.136778792493E+04   -0.49405E-04   -0.11837E-03  2504   0.598E-02    0.471E-02
DAV:   8    -0.136778791279E+04    0.12136E-04   -0.26843E-04  2536   0.348E-02    0.307E-02
DAV:   9    -0.136778790380E+04    0.89924E-05   -0.12881E-04  2400   0.207E-02    0.154E-02
DAV:  10    -0.136778790752E+04   -0.37252E-05   -0.47136E-05  2344   0.132E-02    0.120E-02
DAV:  11    -0.136778790661E+04    0.91529E-06   -0.10666E-05  1680   0.780E-03    0.753E-03
DAV:  12    -0.136778790621E+04    0.39944E-06   -0.13583E-05  1720   0.752E-03    0.584E-03
DAV:  13    -0.136778790583E+04    0.37823E-06   -0.28034E-06  1072   0.505E-03
   8 F= -.13677879E+04 E0= -.13677879E+04  d E =-.812754E-01
       N       E                     dE             d eps       ncg     rms          rms(c)
DAV:   1    -0.136780682146E+04   -0.18915E-01   -0.26090E+00  1392   0.230E+00    0.264E-01
DAV:   2    -0.136782009971E+04   -0.13278E-01   -0.14100E-01  2304   0.919E-01    0.135E-01
DAV:   3    -0.136782089461E+04   -0.79489E-03   -0.11450E-02  2584   0.175E-01    0.111E-01
DAV:   4    -0.136782072554E+04    0.16906E-03   -0.10494E-03  2584   0.773E-02    0.789E-02
DAV:   5    -0.136782056126E+04    0.16428E-03   -0.55847E-04  2296   0.474E-02    0.317E-02
DAV:   6    -0.136782056706E+04   -0.58014E-05   -0.36885E-04  2304   0.365E-02    0.255E-02
DAV:   7    -0.136782056952E+04   -0.24554E-05   -0.18995E-04  2360   0.251E-02    0.195E-02
DAV:   8    -0.136782056794E+04    0.15810E-05   -0.63684E-05  2528   0.157E-02    0.116E-02
DAV:   9    -0.136782056700E+04    0.93601E-06   -0.15364E-05  2040   0.845E-03    0.778E-03
DAV:  10    -0.136782056715E+04   -0.15237E-06   -0.80105E-06  1584   0.571E-03
   9 F= -.13678206E+04 E0= -.13678206E+04  d E =-.326613E-01
       N       E                     dE             d eps       ncg     rms          rms(c)
DAV:   1    -0.136782577451E+04   -0.52075E-02   -0.26207E-01  1408   0.737E-01    0.108E-01
DAV:   2    -0.136782709885E+04   -0.13243E-02   -0.14588E-02  2296   0.284E-01    0.573E-02
DAV:   3    -0.136782714087E+04   -0.42016E-04   -0.11578E-03  2608   0.625E-02    0.475E-02
DAV:   4    -0.136782709812E+04    0.42748E-04   -0.21780E-04  2568   0.329E-02    0.250E-02
DAV:   5    -0.136782708494E+04    0.13181E-04   -0.89378E-05  2360   0.227E-02    0.135E-02
DAV:   6    -0.136782708662E+04   -0.16820E-05   -0.72286E-05  2512   0.165E-02    0.106E-02
DAV:   7    -0.136782708654E+04    0.85129E-07   -0.21256E-05  2064   0.908E-03    0.861E-03
DAV:   8    -0.136782708624E+04    0.29565E-06   -0.67409E-06  1592   0.528E-03
  10 F= -.13678271E+04 E0= -.13678271E+04  d E =-.651909E-02
       N       E                     dE             d eps       ncg     rms          rms(c)
DAV:   1    -0.136775030839E+04    0.76778E-01   -0.35789E+01  1376   0.847E+00    0.933E-01
DAV:   2    -0.136793174027E+04   -0.18143E+00   -0.19129E+00  2304   0.335E+00    0.478E-01
DAV:   3    -0.136794285706E+04   -0.11117E-01   -0.15306E-01  2584   0.631E-01    0.386E-01
DAV:   4    -0.136794119947E+04    0.16576E-02   -0.12997E-02  2600   0.269E-01    0.293E-01
DAV:   5    -0.136793886090E+04    0.23386E-02   -0.55850E-03  2352   0.159E-01    0.146E-01
DAV:   6    -0.136793849993E+04    0.36097E-03   -0.57725E-03  2192   0.146E-01    0.779E-02
DAV:   7    -0.136793868180E+04   -0.18187E-03   -0.36408E-03  2432   0.104E-01    0.855E-02
DAV:   8    -0.136793865601E+04    0.25791E-04   -0.70295E-04  2512   0.574E-02    0.664E-02
DAV:   9    -0.136793859341E+04    0.62600E-04   -0.39236E-04  2384   0.363E-02    0.315E-02
DAV:  10    -0.136793860591E+04   -0.12498E-04   -0.24617E-04  2344   0.269E-02    0.183E-02
DAV:  11    -0.136793860957E+04   -0.36622E-05   -0.50315E-05  2056   0.148E-02    0.153E-02
DAV:  12    -0.136793860535E+04    0.42255E-05   -0.46394E-05  2176   0.141E-02    0.129E-02
DAV:  13    -0.136793860429E+04    0.10602E-05   -0.28707E-05  2232   0.101E-02    0.961E-03
DAV:  14    -0.136793860345E+04    0.83608E-06   -0.60511E-06  1456   0.597E-03
  11 F= -.13679386E+04 E0= -.13679386E+04  d E =-.111517E+00
       N       E                     dE             d eps       ncg     rms          rms(c)
DAV:   1    -0.136794811870E+04   -0.95144E-02   -0.60378E+00  1376   0.350E+00    0.388E-01
DAV:   2    -0.136797881828E+04   -0.30700E-01   -0.32467E-01  2296   0.138E+00    0.198E-01
DAV:   3    -0.136798073933E+04   -0.19210E-02   -0.26366E-02  2584   0.266E-01    0.160E-01
DAV:   4    -0.136798045323E+04    0.28610E-03   -0.22942E-03  2608   0.113E-01    0.120E-01
DAV:   5    -0.136798007775E+04    0.37548E-03   -0.97985E-04  2368   0.670E-02    0.593E-02
DAV:   6    -0.136798002105E+04    0.56703E-04   -0.92724E-04  2200   0.605E-02    0.325E-02
DAV:   7    -0.136798005142E+04   -0.30375E-04   -0.60191E-04  2440   0.424E-02    0.353E-02
DAV:   8    -0.136798004713E+04    0.42923E-05   -0.11990E-04  2504   0.237E-02    0.271E-02
DAV:   9    -0.136798003692E+04    0.10214E-04   -0.67232E-05  2296   0.153E-02    0.127E-02
DAV:  10    -0.136798003918E+04   -0.22624E-05   -0.41338E-05  2160   0.112E-02    0.799E-03
DAV:  11    -0.136798003944E+04   -0.26431E-06   -0.72516E-06  1472   0.657E-03
  12 F= -.13679800E+04 E0= -.13679800E+04  d E =-.414360E-01
       N       E                     dE             d eps       ncg     rms          rms(c)
DAV:   1    -0.136799304327E+04   -0.13004E-01   -0.25257E+00  1376   0.226E+00    0.254E-01
DAV:   2    -0.136800599871E+04   -0.12955E-01   -0.13701E-01  2296   0.892E-01    0.127E-01
DAV:   3    -0.136800677850E+04   -0.77979E-03   -0.10828E-02  2584   0.173E-01    0.102E-01
DAV:   4    -0.136800664292E+04    0.13558E-03   -0.95995E-04  2608   0.736E-02    0.747E-02
DAV:   5    -0.136800649431E+04    0.14861E-03   -0.45899E-04  2360   0.449E-02    0.322E-02
DAV:   6    -0.136800649182E+04    0.24924E-05   -0.34422E-04  2312   0.349E-02    0.216E-02
DAV:   7    -0.136800649682E+04   -0.50017E-05   -0.17152E-04  2424   0.240E-02    0.182E-02
DAV:   8    -0.136800649591E+04    0.90385E-06   -0.51355E-05  2520   0.142E-02    0.115E-02
DAV:   9    -0.136800649457E+04    0.13474E-05   -0.16478E-05  2008   0.820E-03    0.669E-03
DAV:  10    -0.136800649490E+04   -0.32921E-06   -0.78053E-06  1584   0.584E-03
  13 F= -.13680065E+04 E0= -.13680065E+04  d E =-.264555E-01
       N       E                     dE             d eps       ncg     rms          rms(c)
DAV:   1    -0.136800695485E+04   -0.46028E-03   -0.85668E+00  1376   0.417E+00    0.462E-01
DAV:   2    -0.136805138160E+04   -0.44427E-01   -0.47016E-01  2296   0.166E+00    0.234E-01
DAV:   3    -0.136805424253E+04   -0.28609E-02   -0.38459E-02  2584   0.319E-01    0.189E-01
DAV:   4    -0.136805385604E+04    0.38649E-03   -0.32506E-03  2624   0.137E-01    0.144E-01
DAV:   5    -0.136805333573E+04    0.52031E-03   -0.14179E-03  2392   0.803E-02    0.712E-02
DAV:   6    -0.136805325556E+04    0.80168E-04   -0.13180E-03  2216   0.721E-02    0.399E-02
DAV:   7    -0.136805329491E+04   -0.39348E-04   -0.85944E-04  2432   0.510E-02    0.409E-02
DAV:   8    -0.136805329149E+04    0.34145E-05   -0.17786E-04  2496   0.286E-02    0.320E-02
DAV:   9    -0.136805327669E+04    0.14797E-04   -0.91443E-05  2336   0.180E-02    0.154E-02
DAV:  10    -0.136805327988E+04   -0.31891E-05   -0.60124E-05  2272   0.134E-02    0.950E-03
DAV:  11    -0.136805328022E+04   -0.33258E-06   -0.11095E-05  1608   0.776E-03    0.725E-03
DAV:  12    -0.136805327955E+04    0.66683E-06   -0.11721E-05  1632   0.780E-03    0.660E-03
DAV:  13    -0.136805327904E+04    0.50489E-06   -0.60195E-06  1440   0.590E-03
  14 F= -.13680533E+04 E0= -.13680533E+04  d E =-.467841E-01
       N       E                     dE             d eps       ncg     rms          rms(c)
DAV:   1    -0.136806219840E+04   -0.89189E-02   -0.40360E+00  1376   0.287E+00    0.321E-01
DAV:   2    -0.136808320639E+04   -0.21008E-01   -0.22276E-01  2272   0.115E+00    0.161E-01
DAV:   3    -0.136808459005E+04   -0.13837E-02   -0.18369E-02  2576   0.222E-01    0.131E-01
DAV:   4    -0.136808442002E+04    0.17002E-03   -0.15831E-03  2616   0.955E-02    0.100E-01
DAV:   5    -0.136808417526E+04    0.24476E-03   -0.70692E-04  2400   0.567E-02    0.492E-02
DAV:   6    -0.136808414427E+04    0.30995E-04   -0.64664E-04  2232   0.500E-02    0.291E-02
DAV:   7    -0.136808415933E+04   -0.15068E-04   -0.39343E-04  2376   0.351E-02    0.282E-02
DAV:   8    -0.136808415777E+04    0.15633E-05   -0.92116E-05  2496   0.203E-02    0.215E-02
DAV:   9    -0.136808415123E+04    0.65421E-05   -0.43199E-05  2240   0.124E-02    0.104E-02
DAV:  10    -0.136808415271E+04   -0.14780E-05   -0.26911E-05  2024   0.944E-03    0.662E-03
DAV:  11    -0.136808415275E+04   -0.42419E-07   -0.44260E-06  1288   0.599E-03
  15 F= -.13680842E+04 E0= -.13680842E+04  d E =-.308737E-01
       N       E                     dE             d eps       ncg     rms          rms(c)
DAV:   1    -0.136809443335E+04   -0.10281E-01   -0.24998E+00  1368   0.224E+00    0.250E-01
DAV:   2    -0.136810721388E+04   -0.12781E-01   -0.13486E-01  2288   0.888E-01    0.127E-01
DAV:   3    -0.136810798086E+04   -0.76698E-03   -0.10520E-02  2576   0.169E-01    0.101E-01
DAV:   4    -0.136810785615E+04    0.12471E-03   -0.93161E-04  2600   0.723E-02    0.749E-02
DAV:   5    -0.136810770472E+04    0.15143E-03   -0.44690E-04  2368   0.458E-02    0.328E-02
DAV:   6    -0.136810770215E+04    0.25705E-05   -0.36509E-04  2296   0.366E-02    0.218E-02
DAV:   7    -0.136810770743E+04   -0.52804E-05   -0.17614E-04  2368   0.244E-02    0.184E-02
DAV:   8    -0.136810770660E+04    0.82172E-06   -0.51258E-05  2528   0.143E-02    0.115E-02
DAV:   9    -0.136810770511E+04    0.14932E-05   -0.17426E-05  2080   0.839E-03    0.649E-03
DAV:  10    -0.136810770543E+04   -0.32323E-06   -0.75363E-06  1552   0.588E-03
  16 F= -.13681077E+04 E0= -.13681077E+04  d E =-.235527E-01
       N       E                     dE             d eps       ncg     rms          rms(c)
DAV:   1    -0.136804373357E+04    0.63972E-01   -0.23963E+01  1376   0.696E+00    0.774E-01
DAV:   2    -0.136816801852E+04   -0.12428E+00   -0.13165E+00  2280   0.279E+00    0.393E-01
DAV:   3    -0.136817609158E+04   -0.80731E-02   -0.10780E-01  2576   0.531E-01    0.318E-01
DAV:   4    -0.136817505932E+04    0.10323E-02   -0.92203E-03  2616   0.230E-01    0.242E-01
DAV:   5    -0.136817362225E+04    0.14371E-02   -0.41187E-03  2392   0.137E-01    0.119E-01
DAV:   6    -0.136817343419E+04    0.18806E-03   -0.37437E-03  2224   0.122E-01    0.696E-02
DAV:   7    -0.136817352844E+04   -0.94252E-04   -0.23459E-03  2424   0.853E-02    0.684E-02
DAV:   8    -0.136817351978E+04    0.86664E-05   -0.52684E-04  2544   0.483E-02    0.527E-02
DAV:   9    -0.136817347961E+04    0.40167E-04   -0.26172E-04  2384   0.303E-02    0.250E-02
DAV:  10    -0.136817348908E+04   -0.94751E-05   -0.16032E-04  2392   0.222E-02    0.163E-02
DAV:  11    -0.136817349038E+04   -0.12945E-05   -0.34196E-05  2080   0.125E-02    0.130E-02
DAV:  12    -0.136817348816E+04    0.22212E-05   -0.32715E-05  2120   0.118E-02    0.118E-02
DAV:  13    -0.136817348696E+04    0.11957E-05   -0.21094E-05  2112   0.880E-03    0.750E-03
DAV:  14    -0.136817348642E+04    0.54216E-06   -0.25804E-06  1056   0.523E-03
  17 F= -.13681735E+04 E0= -.13681735E+04  d E =-.657810E-01
       N       E                     dE             d eps       ncg     rms          rms(c)
DAV:   1    -0.136817885506E+04   -0.53681E-02   -0.49003E-01  1400   0.100E+00    0.114E-01
DAV:   2    -0.136818136163E+04   -0.25066E-02   -0.26482E-02  2296   0.403E-01    0.580E-02
DAV:   3    -0.136818151773E+04   -0.15610E-03   -0.21110E-03  2584   0.741E-02    0.481E-02
DAV:   4    -0.136818149392E+04    0.23802E-04   -0.18385E-04  2616   0.325E-02    0.361E-02
DAV:   5    -0.136818146191E+04    0.32010E-04   -0.10691E-04  2312   0.209E-02    0.150E-02
DAV:   6    -0.136818146392E+04   -0.20095E-05   -0.81833E-05  2256   0.170E-02    0.126E-02
DAV:   7    -0.136818146378E+04    0.13899E-06   -0.41538E-05  2408   0.118E-02    0.942E-03
DAV:   8    -0.136818146322E+04    0.56149E-06   -0.12630E-05  2048   0.747E-03    0.507E-03
DAV:   9    -0.136818146284E+04    0.38522E-06   -0.16852E-06   984   0.427E-03
  18 F= -.13681815E+04 E0= -.13681815E+04  d E =-.797642E-02
       N       E                     dE             d eps       ncg     rms          rms(c)
DAV:   1    -0.136818657187E+04   -0.51086E-02   -0.34804E-01  1376   0.842E-01    0.975E-02
DAV:   2    -0.136818831179E+04   -0.17399E-02   -0.18425E-02  2296   0.327E-01    0.507E-02
DAV:   3    -0.136818841333E+04   -0.10154E-03   -0.14728E-03  2592   0.628E-02    0.408E-02
DAV:   4    -0.136818838845E+04    0.24877E-04   -0.13731E-04  2560   0.280E-02    0.280E-02
DAV:   5    -0.136818836775E+04    0.20697E-04   -0.79860E-05  2256   0.191E-02    0.102E-02
DAV:   6    -0.136818837073E+04   -0.29725E-05   -0.55715E-05  2400   0.143E-02    0.989E-03
DAV:   7    -0.136818837068E+04    0.44500E-07   -0.19498E-05  2240   0.848E-03    0.701E-03
DAV:   8    -0.136818837000E+04    0.68311E-06   -0.24280E-06  1032   0.527E-03
  19 F= -.13681884E+04 E0= -.13681884E+04  d E =-.690716E-02
       N       E                     dE             d eps       ncg     rms          rms(c)
DAV:   1    -0.136817911341E+04    0.92573E-02   -0.79726E+00  1376   0.400E+00    0.435E-01
DAV:   2    -0.136821911471E+04   -0.40001E-01   -0.42002E-01  2312   0.158E+00    0.221E-01
DAV:   3    -0.136822167118E+04   -0.25565E-02   -0.33422E-02  2584   0.289E-01    0.177E-01
DAV:   4    -0.136822135018E+04    0.32100E-03   -0.26068E-03  2592   0.123E-01    0.136E-01
DAV:   5    -0.136822086376E+04    0.48642E-03   -0.14125E-03  2352   0.773E-02    0.594E-02
DAV:   6    -0.136822086541E+04   -0.16510E-05   -0.11691E-03  2264   0.634E-02    0.409E-02
DAV:   7    -0.136822087572E+04   -0.10312E-04   -0.56955E-04  2472   0.431E-02    0.326E-02
DAV:   8    -0.136822087145E+04    0.42700E-05   -0.15870E-04  2512   0.260E-02    0.201E-02
DAV:   9    -0.136822086688E+04    0.45709E-05   -0.53379E-05  2256   0.141E-02    0.114E-02
DAV:  10    -0.136822086821E+04   -0.13265E-05   -0.21312E-05  2208   0.872E-03    0.760E-03
DAV:  11    -0.136822086769E+04    0.51888E-06   -0.27975E-06  1120   0.578E-03
  20 F= -.13682209E+04 E0= -.13682209E+04  d E =-.324977E-01
       N       E                     dE             d eps       ncg     rms          rms(c)
DAV:   1    -0.136822100116E+04   -0.13295E-03   -0.44995E+00  1376   0.302E+00    0.328E-01
DAV:   2    -0.136824355635E+04   -0.22555E-01   -0.23742E-01  2296   0.118E+00    0.167E-01
DAV:   3    -0.136824503577E+04   -0.14794E-02   -0.19205E-02  2584   0.222E-01    0.133E-01
DAV:   4    -0.136824485729E+04    0.17848E-03   -0.15060E-03  2600   0.934E-02    0.102E-01
DAV:   5    -0.136824457981E+04    0.27748E-03   -0.82221E-04  2352   0.597E-02    0.437E-02
DAV:   6    -0.136824458592E+04   -0.61115E-05   -0.66809E-04  2280   0.481E-02    0.315E-02
DAV:   7    -0.136824458975E+04   -0.38313E-05   -0.30280E-04  2432   0.317E-02    0.241E-02
DAV:   8    -0.136824458781E+04    0.19463E-05   -0.89874E-05  2512   0.193E-02    0.144E-02
DAV:   9    -0.136824458548E+04    0.23301E-05   -0.28117E-05  2224   0.105E-02    0.846E-03
DAV:  10    -0.136824458601E+04   -0.53647E-06   -0.96239E-06  1688   0.651E-03
  21 F= -.13682446E+04 E0= -.13682446E+04  d E =-.237183E-01
       N       E                     dE             d eps       ncg     rms          rms(c)
DAV:   1    -0.136824869211E+04   -0.41066E-02   -0.26399E+00  1384   0.230E+00    0.251E-01
DAV:   2    -0.136826199351E+04   -0.13301E-01   -0.14002E-01  2304   0.903E-01    0.128E-01
DAV:   3    -0.136826285871E+04   -0.86520E-03   -0.11392E-02  2584   0.170E-01    0.101E-01
DAV:   4    -0.136826273829E+04    0.12042E-03   -0.88945E-04  2584   0.724E-02    0.765E-02
DAV:   5    -0.136826258280E+04    0.15549E-03   -0.49301E-04  2328   0.450E-02    0.317E-02
DAV:   6    -0.136826258744E+04   -0.46383E-05   -0.35903E-04  2296   0.350E-02    0.234E-02
DAV:   7    -0.136826259033E+04   -0.28871E-05   -0.16976E-04  2424   0.236E-02    0.175E-02
DAV:   8    -0.136826258909E+04    0.12436E-05   -0.49515E-05  2536   0.145E-02    0.103E-02
DAV:   9    -0.136826258809E+04    0.10002E-05   -0.13272E-05  1968   0.758E-03    0.644E-03
DAV:  10    -0.136826258808E+04    0.53988E-08   -0.35581E-06  1216   0.496E-03
  22 F= -.13682626E+04 E0= -.13682626E+04  d E =-.180021E-01
       N       E                     dE             d eps       ncg     rms          rms(c)
DAV:   1    -0.136825868231E+04    0.39058E-02   -0.54917E+00  1384   0.333E+00    0.363E-01
DAV:   2    -0.136828643860E+04   -0.27756E-01   -0.29242E-01  2304   0.130E+00    0.185E-01
DAV:   3    -0.136828825710E+04   -0.18185E-02   -0.23846E-02  2584   0.245E-01    0.147E-01
DAV:   4    -0.136828801563E+04    0.24147E-03   -0.18865E-03  2592   0.105E-01    0.111E-01
DAV:   5    -0.136828769694E+04    0.31869E-03   -0.99236E-04  2352   0.642E-02    0.475E-02
DAV:   6    -0.136828770078E+04   -0.38420E-05   -0.74703E-04  2288   0.508E-02    0.335E-02
DAV:   7    -0.136828770696E+04   -0.61788E-05   -0.36980E-04  2456   0.352E-02    0.259E-02
DAV:   8    -0.136828770486E+04    0.21014E-05   -0.11025E-04  2528   0.214E-02    0.170E-02
DAV:   9    -0.136828770191E+04    0.29528E-05   -0.33817E-05  2352   0.115E-02    0.993E-03
DAV:  10    -0.136828770237E+04   -0.46431E-06   -0.12247E-05  1792   0.714E-03    0.581E-03
DAV:  11    -0.136828770219E+04    0.18427E-06   -0.13331E-06   984   0.495E-03
  23 F= -.13682877E+04 E0= -.13682877E+04  d E =-.251141E-01
       N       E                     dE             d eps       ncg     rms          rms(c)
DAV:   1    -0.136829166740E+04   -0.39650E-02   -0.23964E+00  1376   0.220E+00    0.244E-01
DAV:   2    -0.136830376588E+04   -0.12098E-01   -0.12781E-01  2304   0.855E-01    0.123E-01
DAV:   3    -0.136830455915E+04   -0.79327E-03   -0.10502E-02  2576   0.165E-01    0.979E-02
DAV:   4    -0.136830444375E+04    0.11540E-03   -0.85224E-04  2592   0.704E-02    0.729E-02
DAV:   5    -0.136830430283E+04    0.14092E-03   -0.46795E-04  2328   0.442E-02    0.293E-02
DAV:   6    -0.136830431087E+04   -0.80394E-05   -0.32764E-04  2304   0.335E-02    0.229E-02
DAV:   7    -0.136830431254E+04   -0.16718E-05   -0.14370E-04  2440   0.221E-02    0.166E-02
DAV:   8    -0.136830431148E+04    0.10586E-05   -0.45878E-05  2544   0.136E-02    0.966E-03
DAV:   9    -0.136830431071E+04    0.77765E-06   -0.10948E-05  1952   0.705E-03    0.627E-03
DAV:  10    -0.136830431068E+04    0.23065E-07   -0.35332E-06  1216   0.488E-03
  24 F= -.13683043E+04 E0= -.13683043E+04  d E =-.166085E-01
       N       E                     dE             d eps       ncg     rms          rms(c)
DAV:   1    -0.136830847853E+04   -0.41678E-02   -0.19285E+00  1384   0.197E+00    0.218E-01
DAV:   2    -0.136831831781E+04   -0.98393E-02   -0.10381E-01  2296   0.772E-01    0.111E-01
DAV:   3    -0.136831895584E+04   -0.63803E-03   -0.85283E-03  2568   0.147E-01    0.877E-02
DAV:   4    -0.136831885745E+04    0.98391E-04   -0.68679E-04  2584   0.636E-02    0.650E-02
DAV:   5    -0.136831874554E+04    0.11190E-03   -0.37619E-04  2352   0.384E-02    0.266E-02
DAV:   6    -0.136831874937E+04   -0.38292E-05   -0.25109E-04  2304   0.293E-02    0.200E-02
DAV:   7    -0.136831875122E+04   -0.18510E-05   -0.12686E-04  2440   0.206E-02    0.150E-02
DAV:   8    -0.136831875038E+04    0.84475E-06   -0.38175E-05  2520   0.127E-02    0.952E-03
DAV:   9    -0.136831874953E+04    0.84503E-06   -0.92514E-06  1824   0.658E-03
  25 F= -.13683187E+04 E0= -.13683187E+04  d E =-.144388E-01
       N       E                     dE             d eps       ncg     rms          rms(c)
DAV:   1    -0.136832362678E+04   -0.48764E-02   -0.52581E-01  1384   0.103E+00    0.116E-01
DAV:   2    -0.136832628535E+04   -0.26586E-02   -0.28064E-02  2296   0.394E-01    0.597E-02
DAV:   3    -0.136832644938E+04   -0.16403E-03   -0.22822E-03  2584   0.769E-02    0.477E-02
DAV:   4    -0.136832641716E+04    0.32216E-04   -0.19794E-04  2592   0.335E-02    0.339E-02
DAV:   5    -0.136832638607E+04    0.31099E-04   -0.10685E-04  2352   0.210E-02    0.131E-02
DAV:   6    -0.136832638849E+04   -0.24267E-05   -0.69761E-05  2368   0.154E-02    0.105E-02
DAV:   7    -0.136832638867E+04   -0.17665E-06   -0.27826E-05  2368   0.998E-03    0.750E-03
DAV:   8    -0.136832638814E+04    0.53069E-06   -0.60904E-06  1392   0.621E-03
  26 F= -.13683264E+04 E0= -.13683264E+04  d E =-.763861E-02
       N       E                     dE             d eps       ncg     rms          rms(c)
DAV:   1    -0.136824203359E+04    0.84355E-01   -0.24274E+01  1368   0.697E+00    0.771E-01
DAV:   2    -0.136836569621E+04   -0.12366E+00   -0.13047E+00  2304   0.272E+00    0.392E-01
DAV:   3    -0.136837363649E+04   -0.79403E-02   -0.10637E-01  2568   0.521E-01    0.310E-01
DAV:   4    -0.136837246928E+04    0.11672E-02   -0.87913E-03  2584   0.224E-01    0.231E-01
DAV:   5    -0.136837103764E+04    0.14316E-02   -0.43774E-03  2376   0.134E-01    0.100E-01
DAV:   6    -0.136837102562E+04    0.12020E-04   -0.33052E-03  2304   0.107E-01    0.680E-02
DAV:   7    -0.136837106417E+04   -0.38547E-04   -0.16884E-03  2488   0.751E-02    0.555E-02
DAV:   8    -0.136837105317E+04    0.10993E-04   -0.48854E-04  2552   0.449E-02    0.368E-02
DAV:   9    -0.136837103991E+04    0.13266E-04   -0.16219E-04  2496   0.244E-02    0.211E-02
DAV:  10    -0.136837104270E+04   -0.27929E-05   -0.62713E-05  2512   0.151E-02    0.132E-02
DAV:  11    -0.136837104285E+04   -0.15309E-06   -0.15940E-05  1888   0.916E-03    0.879E-03
DAV:  12    -0.136837104214E+04    0.70983E-06   -0.13418E-05  1744   0.818E-03    0.697E-03
DAV:  13    -0.136837104192E+04    0.22326E-06   -0.80081E-06  1656   0.604E-03
  27 F= -.13683710E+04 E0= -.13683710E+04  d E =-.446538E-01
       N       E                     dE             d eps       ncg     rms          rms(c)
DAV:   1    -0.136836857389E+04    0.24683E-02   -0.21711E-01  1360   0.662E-01    0.759E-02
DAV:   2    -0.136836962915E+04   -0.10553E-02   -0.11170E-02  2296   0.257E-01    0.397E-02
DAV:   3    -0.136836968387E+04   -0.54721E-04   -0.83337E-04  2584   0.489E-02    0.309E-02
DAV:   4    -0.136836966805E+04    0.15820E-04   -0.79675E-05  2512   0.209E-02    0.204E-02
DAV:   5    -0.136836965874E+04    0.93144E-05   -0.48102E-05  2192   0.135E-02    0.738E-03
DAV:   6    -0.136836966039E+04   -0.16476E-05   -0.22083E-05  2344   0.886E-03    0.660E-03
DAV:   7    -0.136836965991E+04    0.47153E-06   -0.41230E-06  1272   0.553E-03
  28 F= -.13683697E+04 E0= -.13683697E+04  d E =0.138200E-02
       N       E                     dE             d eps       ncg     rms          rms(c)
DAV:   1    -0.136837244348E+04   -0.27831E-02   -0.13039E-01  1408   0.516E-01    0.612E-02
DAV:   2    -0.136837312157E+04   -0.67809E-03   -0.71965E-03  2304   0.204E-01    0.307E-02
DAV:   3    -0.136837316354E+04   -0.41965E-04   -0.59112E-04  2592   0.399E-02    0.251E-02
DAV:   4    -0.136837315517E+04    0.83700E-05   -0.53935E-05  2456   0.177E-02    0.178E-02
DAV:   5    -0.136837314663E+04    0.85390E-05   -0.29660E-05  2224   0.116E-02    0.702E-03
DAV:   6    -0.136837314740E+04   -0.77349E-06   -0.21090E-05  2192   0.904E-03    0.614E-03
DAV:   7    -0.136837314711E+04    0.29309E-06   -0.63772E-06  1568   0.568E-03
  29 F= -.13683731E+04 E0= -.13683731E+04  d E =-.348719E-02
       N       E                     dE             d eps       ncg     rms          rms(c)
DAV:   1    -0.136837524770E+04   -0.21003E-02   -0.47917E-01  1384   0.986E-01    0.112E-01
DAV:   2    -0.136837769014E+04   -0.24424E-02   -0.25817E-02  2296   0.386E-01    0.580E-02
DAV:   3    -0.136837783811E+04   -0.14797E-03   -0.20729E-03  2576   0.748E-02    0.469E-02
DAV:   4    -0.136837781338E+04    0.24734E-04   -0.18732E-04  2592   0.323E-02    0.350E-02
DAV:   5    -0.136837778056E+04    0.32816E-04   -0.96308E-05  2328   0.211E-02    0.156E-02
DAV:   6    -0.136837778080E+04   -0.24366E-06   -0.87266E-05  2320   0.179E-02    0.111E-02
DAV:   7    -0.136837778121E+04   -0.40684E-06   -0.36453E-05  2384   0.114E-02    0.915E-03
DAV:   8    -0.136837778078E+04    0.43420E-06   -0.10104E-05  1752   0.671E-03    0.524E-03
DAV:   9    -0.136837778027E+04    0.50465E-06   -0.24620E-06  1056   0.489E-03
  30 F= -.13683778E+04 E0= -.13683778E+04  d E =-.463317E-02
       N       E                     dE             d eps       ncg     rms          rms(c)
DAV:   1    -0.136838150360E+04   -0.37228E-02   -0.14002E+00  1384   0.168E+00    0.190E-01
DAV:   2    -0.136838870037E+04   -0.71968E-02   -0.76196E-02  2304   0.652E-01    0.959E-02
DAV:   3    -0.136838916141E+04   -0.46105E-03   -0.63433E-03  2568   0.130E-01    0.773E-02
DAV:   4    -0.136838908711E+04    0.74304E-04   -0.54827E-04  2584   0.560E-02    0.573E-02
DAV:   5    -0.136838899464E+04    0.92472E-04   -0.28032E-04  2328   0.355E-02    0.253E-02
DAV:   6    -0.136838899401E+04    0.62943E-06   -0.22997E-04  2312   0.291E-02    0.185E-02
DAV:   7    -0.136838899570E+04   -0.16963E-05   -0.10802E-04  2408   0.192E-02    0.152E-02
DAV:   8    -0.136838899491E+04    0.79547E-06   -0.35690E-05  2488   0.118E-02    0.909E-03
DAV:   9    -0.136838899387E+04    0.10391E-05   -0.96425E-06  1776   0.653E-03    0.518E-03
DAV:  10    -0.136838899402E+04   -0.15183E-06   -0.43230E-06  1296   0.513E-03
  31 F= -.13683890E+04 E0= -.13683890E+04  d E =-.112137E-01
       N       E                     dE             d eps       ncg     rms          rms(c)
DAV:   1    -0.136839255040E+04   -0.35565E-02   -0.79206E-01  1384   0.126E+00    0.142E-01
DAV:   2    -0.136839660831E+04   -0.40579E-02   -0.42808E-02  2288   0.491E-01    0.724E-02
DAV:   3    -0.136839685832E+04   -0.25001E-03   -0.34773E-03  2568   0.966E-02    0.586E-02
DAV:   4    -0.136839681639E+04    0.41930E-04   -0.30613E-04  2600   0.415E-02    0.438E-02
DAV:   5    -0.136839675729E+04    0.59104E-04   -0.14943E-04  2352   0.278E-02    0.199E-02
DAV:   6    -0.136839675554E+04    0.17495E-05   -0.15186E-04  2288   0.243E-02    0.132E-02
DAV:   7    -0.136839675771E+04   -0.21670E-05   -0.68561E-05  2344   0.151E-02    0.121E-02
DAV:   8    -0.136839675710E+04    0.60233E-06   -0.16708E-05  2224   0.855E-03    0.720E-03
DAV:   9    -0.136839675620E+04    0.90613E-06   -0.70734E-06  1568   0.567E-03
  32 F= -.13683968E+04 E0= -.13683968E+04  d E =-.776217E-02
       N       E                     dE             d eps       ncg     rms          rms(c)
DAV:   1    -0.136839761282E+04   -0.85572E-03   -0.22317E+00  1368   0.211E+00    0.238E-01
DAV:   2    -0.136840897717E+04   -0.11364E-01   -0.12002E-01  2296   0.813E-01    0.119E-01
DAV:   3    -0.136840969032E+04   -0.71315E-03   -0.98309E-03  2568   0.162E-01    0.964E-02
DAV:   4    -0.136840957673E+04    0.11360E-03   -0.84563E-04  2592   0.692E-02    0.721E-02
DAV:   5    -0.136840942200E+04    0.15473E-03   -0.41707E-04  2352   0.447E-02    0.332E-02
DAV:   6    -0.136840941528E+04    0.67203E-05   -0.38858E-04  2288   0.383E-02    0.223E-02
DAV:   7    -0.136840942042E+04   -0.51394E-05   -0.18817E-04  2352   0.251E-02    0.200E-02
DAV:   8    -0.136840941885E+04    0.15606E-05   -0.53411E-05  2520   0.147E-02    0.123E-02
DAV:   9    -0.136840941682E+04    0.20322E-05   -0.20312E-05  2168   0.881E-03    0.626E-03
DAV:  10    -0.136840941733E+04   -0.50718E-06   -0.77692E-06  1632   0.606E-03
  33 F= -.13684094E+04 E0= -.13684094E+04  d E =-.126611E-01
       N       E                     dE             d eps       ncg     rms          rms(c)
DAV:   1    -0.136841033321E+04   -0.91639E-03   -0.20488E+00  1376   0.202E+00    0.227E-01
DAV:   2    -0.136842092816E+04   -0.10595E-01   -0.11203E-01  2304   0.788E-01    0.114E-01
DAV:   3    -0.136842160825E+04   -0.68008E-03   -0.92358E-03  2568   0.157E-01    0.930E-02
DAV:   4    -0.136842151136E+04    0.96888E-04   -0.78189E-04  2600   0.670E-02    0.707E-02
DAV:   5    -0.136842136417E+04    0.14719E-03   -0.37775E-04  2368   0.433E-02    0.336E-02
DAV:   6    -0.136842135385E+04    0.10320E-04   -0.38890E-04  2280   0.386E-02    0.219E-02
DAV:   7    -0.136842135979E+04   -0.59393E-05   -0.19510E-04  2352   0.256E-02    0.202E-02
DAV:   8    -0.136842135833E+04    0.14575E-05   -0.49972E-05  2472   0.146E-02    0.126E-02
DAV:   9    -0.136842135602E+04    0.23039E-05   -0.21327E-05  2120   0.893E-03    0.611E-03
DAV:  10    -0.136842135671E+04   -0.68359E-06   -0.90929E-06  1744   0.622E-03
  34 F= -.13684214E+04 E0= -.13684214E+04  d E =-.119394E-01
       N       E                     dE             d eps       ncg     rms          rms(c)
DAV:   1    -0.136842360690E+04   -0.22509E-02   -0.16579E-01  1392   0.582E-01    0.716E-02
DAV:   2    -0.136842445661E+04   -0.84971E-03   -0.90771E-03  2288   0.228E-01    0.360E-02
DAV:   3    -0.136842450415E+04   -0.47539E-04   -0.72917E-04  2568   0.461E-02    0.296E-02
DAV:   4    -0.136842449065E+04    0.13507E-04   -0.73830E-05  2560   0.207E-02    0.199E-02
DAV:   5    -0.136842448095E+04    0.96953E-05   -0.48389E-05  2320   0.144E-02    0.747E-03
DAV:   6    -0.136842448255E+04   -0.16015E-05   -0.26193E-05  2376   0.976E-03    0.756E-03
DAV:   7    -0.136842448195E+04    0.60379E-06   -0.53738E-06  1408   0.601E-03
  35 F= -.13684245E+04 E0= -.13684245E+04  d E =-.312524E-02
       N       E                     dE             d eps       ncg     rms          rms(c)
DAV:   1    -0.136842499287E+04   -0.51032E-03   -0.12813E-02  1408   0.164E-01    0.270E-02
DAV:   2    -0.136842505871E+04   -0.65845E-04   -0.75370E-04  2328   0.645E-02    0.145E-02
DAV:   3    -0.136842506025E+04   -0.15416E-05   -0.59936E-05  2528   0.156E-02    0.122E-02
DAV:   4    -0.136842505802E+04    0.22370E-05   -0.12236E-05  1816   0.799E-03    0.634E-03
DAV:   5    -0.136842505727E+04    0.74973E-06   -0.35581E-06  1144   0.625E-03
  36 F= -.13684251E+04 E0= -.13684251E+04  d E =-.575318E-03
       N       E                     dE             d eps       ncg     rms          rms(c)
DAV:   1    -0.136842660902E+04   -0.15510E-02   -0.61831E-02  1400   0.354E-01    0.400E-02
DAV:   2    -0.136842692998E+04   -0.32096E-03   -0.34007E-03  2288   0.141E-01    0.195E-02
DAV:   3    -0.136842695179E+04   -0.21806E-04   -0.28232E-04  2552   0.274E-02    0.163E-02
DAV:   4    -0.136842694948E+04    0.23052E-05   -0.23961E-05  2280   0.119E-02    0.126E-02
DAV:   5    -0.136842694504E+04    0.44442E-05   -0.12415E-05  1960   0.842E-03    0.578E-03
DAV:   6    -0.136842694520E+04   -0.15790E-06   -0.13967E-05  1976   0.737E-03    0.444E-03
DAV:   7    -0.136842694491E+04    0.28530E-06   -0.24880E-06  1056   0.487E-03
  37 F= -.13684269E+04 E0= -.13684269E+04  d E =-.188764E-02
       N       E                     dE             d eps       ncg     rms          rms(c)
DAV:   1    -0.136843030392E+04   -0.33587E-02   -0.40582E-01  1376   0.900E-01    0.103E-01
DAV:   2    -0.136843235256E+04   -0.20486E-02   -0.21734E-02  2304   0.345E-01    0.511E-02
DAV:   3    -0.136843247941E+04   -0.12685E-03   -0.17456E-03  2552   0.703E-02    0.413E-02
DAV:   4    -0.136843246027E+04    0.19138E-04   -0.16968E-04  2616   0.301E-02    0.297E-02
DAV:   5    -0.136843243812E+04    0.22156E-04   -0.71989E-05  2432   0.186E-02    0.135E-02
DAV:   6    -0.136843243746E+04    0.65430E-06   -0.56685E-05  2288   0.151E-02    0.890E-03
DAV:   7    -0.136843243829E+04   -0.83192E-06   -0.28282E-05  2392   0.103E-02    0.805E-03
DAV:   8    -0.136843243770E+04    0.59264E-06   -0.54788E-06  1376   0.586E-03
  38 F= -.13684324E+04 E0= -.13684324E+04  d E =-.549279E-02
       N       E                     dE             d eps       ncg     rms          rms(c)
DAV:   1    -0.136843414399E+04   -0.17057E-02   -0.15804E+00  1376   0.178E+00    0.199E-01
DAV:   2    -0.136844224304E+04   -0.80991E-02   -0.85556E-02  2304   0.689E-01    0.100E-01
DAV:   3    -0.136844273590E+04   -0.49286E-03   -0.68159E-03  2560   0.138E-01    0.796E-02
DAV:   4    -0.136844265730E+04    0.78596E-04   -0.64906E-04  2600   0.593E-02    0.577E-02
DAV:   5    -0.136844257065E+04    0.86650E-04   -0.27389E-04  2416   0.364E-02    0.271E-02
DAV:   6    -0.136844256448E+04    0.61705E-05   -0.22302E-04  2304   0.303E-02    0.167E-02
DAV:   7    -0.136844256940E+04   -0.49216E-05   -0.12516E-04  2424   0.209E-02    0.163E-02
DAV:   8    -0.136844256841E+04    0.99123E-06   -0.32822E-05  2488   0.117E-02    0.109E-02
DAV:   9    -0.136844256680E+04    0.16067E-05   -0.11935E-05  1768   0.715E-03    0.546E-03
DAV:  10    -0.136844256722E+04   -0.42266E-06   -0.81088E-06  1640   0.592E-03
  39 F= -.13684426E+04 E0= -.13684426E+04  d E =-.101295E-01
       N       E                     dE             d eps       ncg     rms          rms(c)
DAV:   1    -0.136844500641E+04   -0.24396E-02   -0.25630E-01  1400   0.714E-01    0.813E-02
DAV:   2    -0.136844636080E+04   -0.13544E-02   -0.14307E-02  2296   0.285E-01    0.410E-02
DAV:   3    -0.136844644673E+04   -0.85928E-04   -0.11684E-03  2552   0.551E-02    0.336E-02
DAV:   4    -0.136844643375E+04    0.12972E-04   -0.10302E-04  2536   0.242E-02    0.255E-02
DAV:   5    -0.136844641499E+04    0.18769E-04   -0.56042E-05  2344   0.166E-02    0.111E-02
DAV:   6    -0.136844641536E+04   -0.37516E-06   -0.51315E-05  2272   0.138E-02    0.858E-03
DAV:   7    -0.136844641569E+04   -0.32985E-06   -0.22704E-05  2216   0.900E-03    0.704E-03
DAV:   8    -0.136844641507E+04    0.62035E-06   -0.27712E-06  1048   0.550E-03
  40 F= -.13684464E+04 E0= -.13684464E+04  d E =-.384785E-02
       N       E                     dE             d eps       ncg     rms          rms(c)
DAV:   1    -0.136844894546E+04   -0.25298E-02   -0.30843E-01  1392   0.785E-01    0.882E-02
DAV:   2    -0.136845054553E+04   -0.16001E-02   -0.16892E-02  2288   0.307E-01    0.444E-02
DAV:   3    -0.136845064861E+04   -0.10308E-03   -0.13871E-03  2560   0.609E-02    0.361E-02
DAV:   4    -0.136845063533E+04    0.13277E-04   -0.12722E-04  2608   0.264E-02    0.271E-02
DAV:   5    -0.136845061740E+04    0.17933E-04   -0.50528E-05  2368   0.157E-02    0.141E-02
DAV:   6    -0.136845061414E+04    0.32527E-05   -0.50418E-05  2160   0.149E-02    0.751E-03
DAV:   7    -0.136845061587E+04   -0.17240E-05   -0.34655E-05  2256   0.106E-02    0.846E-03
DAV:   8    -0.136845061534E+04    0.52516E-06   -0.29084E-06  1064   0.578E-03
  41 F= -.13684506E+04 E0= -.13684506E+04  d E =-.420027E-02
       N       E                     dE             d eps       ncg     rms          rms(c)
DAV:   1    -0.136844998419E+04    0.63168E-03   -0.94900E-03  1432   0.139E-01    0.164E-02
DAV:   2    -0.136845003130E+04   -0.47107E-04   -0.51157E-04  2320   0.555E-02    0.879E-03
DAV:   3    -0.136845003379E+04   -0.24871E-05   -0.41504E-05  2336   0.110E-02    0.675E-03
DAV:   4    -0.136845003281E+04    0.97943E-06   -0.18057E-06  1016   0.525E-03
  42 F= -.13684500E+04 E0= -.13684500E+04  d E =0.582536E-03
       N       E                     dE             d eps       ncg     rms          rms(c)
DAV:   1    -0.136845127393E+04   -0.12401E-02   -0.43129E-02  1408   0.297E-01    0.341E-02
DAV:   2    -0.136845150719E+04   -0.23326E-03   -0.24759E-03  2288   0.120E-01    0.168E-02
DAV:   3    -0.136845152320E+04   -0.16008E-04   -0.20504E-04  2552   0.238E-02    0.143E-02
DAV:   4    -0.136845152153E+04    0.16687E-05   -0.15974E-05  2120   0.100E-02    0.112E-02
DAV:   5    -0.136845151805E+04    0.34777E-05   -0.10282E-05  1896   0.743E-03    0.449E-03
DAV:   6    -0.136845151853E+04   -0.47749E-06   -0.10674E-05  1960   0.608E-03    0.415E-03
DAV:   7    -0.136845151835E+04    0.17896E-06   -0.10502E-06   960   0.350E-03
  43 F= -.13684515E+04 E0= -.13684515E+04  d E =-.148554E-02
       N       E                     dE             d eps       ncg     rms          rms(c)
DAV:   1    -0.136845410302E+04   -0.25845E-02   -0.28493E-01  1384   0.751E-01    0.843E-02
DAV:   2    -0.136845558468E+04   -0.14817E-02   -0.15618E-02  2288   0.294E-01    0.416E-02
DAV:   3    -0.136845568205E+04   -0.97376E-04   -0.12766E-03  2560   0.584E-02    0.342E-02
DAV:   4    -0.136845567174E+04    0.10309E-04   -0.11103E-04  2560   0.246E-02    0.264E-02
DAV:   5    -0.136845565275E+04    0.18995E-04   -0.47797E-05  2352   0.157E-02    0.132E-02
DAV:   6    -0.136845565069E+04    0.20599E-05   -0.53920E-05  2176   0.149E-02    0.754E-03
DAV:   7    -0.136845565191E+04   -0.12238E-05   -0.31028E-05  2256   0.101E-02    0.775E-03
DAV:   8    -0.136845565137E+04    0.54204E-06   -0.29587E-06  1088   0.568E-03
  44 F= -.13684557E+04 E0= -.13684557E+04  d E =-.413302E-02
       N       E                     dE             d eps       ncg     rms          rms(c)
DAV:   1    -0.136844677105E+04    0.88809E-02   -0.59079E-01  1376   0.108E+00    0.120E-01
DAV:   2    -0.136844981621E+04   -0.30452E-02   -0.32119E-02  2280   0.424E-01    0.597E-02
DAV:   3    -0.136845001636E+04   -0.20015E-03   -0.26371E-03  2568   0.831E-02    0.484E-02
DAV:   4    -0.136844998962E+04    0.26736E-04   -0.20842E-04  2576   0.347E-02    0.368E-02
DAV:   5    -0.136844994903E+04    0.40592E-04   -0.12113E-04  2312   0.237E-02    0.154E-02
DAV:   6    -0.136844995136E+04   -0.23279E-05   -0.10464E-04  2296   0.188E-02    0.130E-02
DAV:   7    -0.136844995123E+04    0.12653E-06   -0.38207E-05  2376   0.116E-02    0.991E-03
DAV:   8    -0.136844995067E+04    0.55728E-06   -0.12448E-05  1968   0.731E-03    0.494E-03
DAV:   9    -0.136844995005E+04    0.62736E-06   -0.27022E-06  1048   0.471E-03
  45 F= -.13684500E+04 E0= -.13684500E+04  d E =0.570132E-02
       N       E                     dE             d eps       ncg     rms          rms(c)
DAV:   1    -0.136844550200E+04    0.44487E-02   -0.19720E-01  1384   0.628E-01    0.698E-02
DAV:   2    -0.136844653433E+04   -0.10323E-02   -0.10883E-02  2288   0.248E-01    0.355E-02
DAV:   3    -0.136844660206E+04   -0.67732E-04   -0.89613E-04  2552   0.490E-02    0.290E-02
DAV:   4    -0.136844659409E+04    0.79666E-05   -0.78372E-05  2552   0.210E-02    0.222E-02
DAV:   5    -0.136844658146E+04    0.12630E-04   -0.34948E-05  2336   0.133E-02    0.111E-02
DAV:   6    -0.136844658021E+04    0.12465E-05   -0.36517E-05  2184   0.122E-02    0.652E-03
DAV:   7    -0.136844658093E+04   -0.71236E-06   -0.20415E-05  2208   0.851E-03    0.627E-03
DAV:   8    -0.136844658053E+04    0.39345E-06   -0.18045E-06   992   0.485E-03
  46 F= -.13684466E+04 E0= -.13684466E+04  d E =0.336952E-02
       N       E                     dE             d eps       ncg     rms          rms(c)
DAV:   1    -0.136844333284E+04    0.32481E-02   -0.13680E-01  1400   0.523E-01    0.587E-02
DAV:   2    -0.136844404492E+04   -0.71208E-03   -0.74815E-03  2280   0.207E-01    0.295E-02
DAV:   3    -0.136844408969E+04   -0.44772E-04   -0.60168E-04  2568   0.404E-02    0.247E-02
DAV:   4    -0.136844408485E+04    0.48399E-05   -0.54316E-05  2528   0.172E-02    0.193E-02
DAV:   5    -0.136844407531E+04    0.95350E-05   -0.21302E-05  2200   0.107E-02    0.108E-02
DAV:   6    -0.136844407303E+04    0.22891E-05   -0.29563E-05  2048   0.116E-02    0.540E-03
DAV:   7    -0.136844407420E+04   -0.11697E-05   -0.22248E-05  2184   0.842E-03    0.646E-03
DAV:   8    -0.136844407393E+04    0.26153E-06   -0.14672E-06   992   0.455E-03
  47 F= -.13684441E+04 E0= -.13684441E+04  d E =0.250660E-02
       N       E                     dE             d eps       ncg     rms          rms(c)
DAV:   1    -0.136842062633E+04    0.23448E-01   -0.23388E+00  1376   0.215E+00    0.238E-01
DAV:   2    -0.136843258047E+04   -0.11954E-01   -0.12569E-01  2280   0.839E-01    0.119E-01
DAV:   3    -0.136843334055E+04   -0.76008E-03   -0.10094E-02  2552   0.164E-01    0.974E-02
DAV:   4    -0.136843325445E+04    0.86102E-04   -0.87544E-04  2600   0.684E-02    0.755E-02
DAV:   5    -0.136843309323E+04    0.16122E-03   -0.38937E-04  2392   0.447E-02    0.382E-02
DAV:   6    -0.136843307509E+04    0.18139E-04   -0.44871E-04  2192   0.421E-02    0.220E-02
DAV:   7    -0.136843308503E+04   -0.99414E-05   -0.25824E-04  2352   0.288E-02    0.225E-02
DAV:   8    -0.136843308334E+04    0.16894E-05   -0.54105E-05  2440   0.159E-02    0.160E-02
DAV:   9    -0.136843307946E+04    0.38876E-05   -0.27489E-05  2192   0.988E-03    0.738E-03
DAV:  10    -0.136843308018E+04   -0.72399E-06   -0.12587E-05  1784   0.700E-03    0.465E-03
DAV:  11    -0.136843308004E+04    0.14326E-06   -0.12011E-06   952   0.419E-03
  48 F= -.13684331E+04 E0= -.13684331E+04  d E =0.109939E-01
       N       E                     dE             d eps       ncg     rms          rms(c)
DAV:   1    -0.136843553097E+04   -0.24508E-02   -0.26208E-01  1376   0.719E-01    0.806E-02
DAV:   2    -0.136843688198E+04   -0.13510E-02   -0.14273E-02  2288   0.283E-01    0.402E-02
DAV:   3    -0.136843697090E+04   -0.88926E-04   -0.11769E-03  2552   0.555E-02    0.327E-02
DAV:   4    -0.136843695974E+04    0.11169E-04   -0.10023E-04  2552   0.236E-02    0.246E-02
DAV:   5    -0.136843694373E+04    0.16008E-04   -0.45016E-05  2288   0.148E-02    0.123E-02
DAV:   6    -0.136843694218E+04    0.15491E-05   -0.45775E-05  2184   0.138E-02    0.779E-03
DAV:   7    -0.136843694294E+04   -0.76050E-06   -0.26063E-05  2232   0.942E-03    0.763E-03
DAV:   8    -0.136843694237E+04    0.57108E-06   -0.29773E-06  1096   0.550E-03
  49 F= -.13684369E+04 E0= -.13684369E+04  d E =-.386233E-02
       N       E                     dE             d eps       ncg     rms          rms(c)
DAV:   1    -0.136841800561E+04    0.18937E-01   -0.73048E+00  1368   0.378E+00    0.421E-01
DAV:   2    -0.136845543645E+04   -0.37431E-01   -0.39353E-01  2296   0.148E+00    0.210E-01
DAV:   3    -0.136845780405E+04   -0.23676E-02   -0.31683E-02  2568   0.288E-01    0.171E-01
DAV:   4    -0.136845749859E+04    0.30546E-03   -0.26348E-03  2576   0.121E-01    0.131E-01
DAV:   5    -0.136845700606E+04    0.49252E-03   -0.12266E-03  2392   0.782E-02    0.637E-02
DAV:   6    -0.136845696202E+04    0.44047E-04   -0.13030E-03  2224   0.710E-02    0.375E-02
DAV:   7    -0.136845699038E+04   -0.28367E-04   -0.71933E-04  2416   0.478E-02    0.378E-02
DAV:   8    -0.136845698461E+04    0.57778E-05   -0.16058E-04  2472   0.267E-02    0.251E-02
DAV:   9    -0.136845697549E+04    0.91196E-05   -0.83018E-05  2464   0.169E-02    0.115E-02
DAV:  10    -0.136845697790E+04   -0.24129E-05   -0.32608E-05  2384   0.109E-02    0.882E-03
DAV:  11    -0.136845697712E+04    0.78158E-06   -0.38694E-06  1112   0.615E-03
  50 F= -.13684570E+04 E0= -.13684570E+04  d E =-.200347E-01
       N       E                     dE             d eps       ncg     rms          rms(c)
DAV:   1    -0.136845744200E+04   -0.46410E-03   -0.38187E-03  1464   0.868E-02    0.110E-02
DAV:   2    -0.136845746075E+04   -0.18751E-04   -0.20614E-04  2296   0.340E-02    0.575E-03
DAV:   3    -0.136845746188E+04   -0.11309E-05   -0.17694E-05  1936   0.722E-03    0.386E-03
DAV:   4    -0.136845746154E+04    0.33889E-06   -0.11367E-06   944   0.434E-03
  51 F= -.13684575E+04 E0= -.13684575E+04  d E =-.484421E-03
       N       E                     dE             d eps       ncg     rms          rms(c)
DAV:   1    -0.136843200694E+04    0.25455E-01   -0.26562E+00  1376   0.227E+00    0.252E-01
DAV:   2    -0.136844542149E+04   -0.13415E-01   -0.14073E-01  2288   0.885E-01    0.127E-01
DAV:   3    -0.136844623288E+04   -0.81139E-03   -0.11129E-02  2568   0.169E-01    0.103E-01
DAV:   4    -0.136844610776E+04    0.12513E-03   -0.91123E-04  2584   0.706E-02    0.779E-02
DAV:   5    -0.136844591478E+04    0.19297E-03   -0.48376E-04  2344   0.484E-02    0.360E-02
DAV:   6    -0.136844590861E+04    0.61746E-05   -0.48624E-04  2256   0.419E-02    0.244E-02
DAV:   7    -0.136844591450E+04   -0.58943E-05   -0.22907E-04  2344   0.273E-02    0.221E-02
DAV:   8    -0.136844591204E+04    0.24644E-05   -0.62422E-05  2456   0.162E-02    0.123E-02
DAV:   9    -0.136844590946E+04    0.25806E-05   -0.26538E-05  2208   0.998E-03    0.616E-03
DAV:  10    -0.136844591009E+04   -0.62597E-06   -0.74723E-06  1624   0.612E-03
  52 F= -.13684459E+04 E0= -.13684459E+04  d E =0.115515E-01
       N       E                     dE             d eps       ncg     rms          rms(c)
DAV:   1    -0.136843938395E+04    0.65255E-02   -0.52097E-01  1368   0.994E-01    0.109E-01
DAV:   2    -0.136844191161E+04   -0.25277E-02   -0.26214E-02  2288   0.388E-01    0.558E-02
DAV:   3    -0.136844204504E+04   -0.13343E-03   -0.19076E-03  2568   0.692E-02    0.452E-02
DAV:   4    -0.136844202259E+04    0.22451E-04   -0.15013E-04  2560   0.276E-02    0.355E-02
DAV:   5    -0.136844197487E+04    0.47718E-04   -0.10621E-04  2128   0.226E-02    0.151E-02
DAV:   6    -0.136844197701E+04   -0.21414E-05   -0.10891E-04  2152   0.183E-02    0.106E-02
DAV:   7    -0.136844197816E+04   -0.11454E-05   -0.28919E-05  2248   0.950E-03    0.986E-03
DAV:   8    -0.136844197855E+04   -0.39072E-06   -0.77645E-06  1648   0.587E-03
  53 F= -.13684420E+04 E0= -.13684420E+04  d E =0.393153E-02
       N       E                     dE             d eps       ncg     rms          rms(c)
DAV:   1    -0.136841221664E+04    0.29762E-01   -0.33108E+00  1376   0.253E+00    0.279E-01
DAV:   2    -0.136842882213E+04   -0.16605E-01   -0.17387E-01  2288   0.985E-01    0.140E-01
DAV:   3    -0.136842982817E+04   -0.10060E-02   -0.13644E-02  2560   0.187E-01    0.114E-01
DAV:   4    -0.136842969363E+04    0.13454E-03   -0.11310E-03  2592   0.772E-02    0.883E-02
DAV:   5    -0.136842945314E+04    0.24049E-03   -0.57318E-04  2336   0.529E-02    0.426E-02
DAV:   6    -0.136842943834E+04    0.14798E-04   -0.62291E-04  2224   0.478E-02    0.265E-02
DAV:   7    -0.136842944896E+04   -0.10619E-04   -0.32633E-04  2320   0.321E-02    0.257E-02
DAV:   8    -0.136842944548E+04    0.34765E-05   -0.75930E-05  2440   0.185E-02    0.157E-02
DAV:   9    -0.136842944163E+04    0.38572E-05   -0.38681E-05  2352   0.116E-02    0.725E-03
DAV:  10    -0.136842944258E+04   -0.95165E-06   -0.11403E-05  1824   0.734E-03    0.581E-03
DAV:  11    -0.136842944203E+04    0.54337E-06   -0.12837E-06   960   0.450E-03
  54 F= -.13684294E+04 E0= -.13684294E+04  d E =0.125365E-01
       N       E                     dE             d eps       ncg     rms          rms(c)
DAV:   1    -0.136836907274E+04    0.60370E-01   -0.16905E+01  1368   0.571E+00    0.631E-01
DAV:   2    -0.136845386835E+04   -0.84796E-01   -0.88746E-01  2296   0.223E+00    0.318E-01
DAV:   3    -0.136845889394E+04   -0.50256E-02   -0.69049E-02  2568   0.421E-01    0.259E-01
DAV:   4    -0.136845816509E+04    0.72885E-03   -0.55980E-03  2576   0.173E-01    0.200E-01
DAV:   5    -0.136845688056E+04    0.12845E-02   -0.30060E-03  2320   0.120E-01    0.940E-02
DAV:   6    -0.136845682301E+04    0.57552E-04   -0.32238E-03  2216   0.107E-01    0.599E-02
DAV:   7    -0.136845687060E+04   -0.47595E-04   -0.15352E-03  2400   0.695E-02    0.568E-02
DAV:   8    -0.136845685489E+04    0.15711E-04   -0.38126E-04  2440   0.406E-02    0.333E-02
DAV:   9    -0.136845683568E+04    0.19217E-04   -0.20075E-04  2448   0.262E-02    0.156E-02
DAV:  10    -0.136845684152E+04   -0.58436E-05   -0.62104E-05  2432   0.160E-02    0.149E-02
DAV:  11    -0.136845683841E+04    0.31090E-05   -0.24088E-05  1864   0.101E-02    0.681E-03
DAV:  12    -0.136845683889E+04   -0.48365E-06   -0.12079E-05  1800   0.794E-03    0.644E-03
DAV:  13    -0.136845683828E+04    0.61697E-06   -0.21978E-06   968   0.511E-03
  55 F= -.13684568E+04 E0= -.13684568E+04  d E =-.273962E-01
       N       E                     dE             d eps       ncg     rms          rms(c)
DAV:   1    -0.136845665872E+04    0.18017E-03   -0.19807E-03  1480   0.656E-02    0.111E-02
DAV:   2    -0.136845666957E+04   -0.10848E-04   -0.12614E-04  2336   0.270E-02    0.614E-03
DAV:   3    -0.136845666959E+04   -0.21508E-07   -0.78782E-06  1608   0.670E-03
  56 F= -.13684567E+04 E0= -.13684567E+04  d E =0.168684E-03
       N       E                     dE             d eps       ncg     rms          rms(c)
DAV:   1    -0.136845606500E+04    0.60457E-03   -0.11482E-02  1432   0.152E-01    0.170E-02
DAV:   2    -0.136845612324E+04   -0.58240E-04   -0.61193E-04  2288   0.604E-02    0.899E-03
DAV:   3    -0.136845612692E+04   -0.36726E-05   -0.50008E-05  2360   0.114E-02    0.747E-03
DAV:   4    -0.136845612610E+04    0.81057E-06   -0.24007E-06  1104   0.550E-03
  57 F= -.13684561E+04 E0= -.13684561E+04  d E =0.543488E-03
       N       E                     dE             d eps       ncg     rms          rms(c)
DAV:   1    -0.136845220355E+04    0.39234E-02   -0.30520E-01  1376   0.767E-01    0.824E-02
DAV:   2    -0.136845367309E+04   -0.14695E-02   -0.15265E-02  2288   0.298E-01    0.420E-02
DAV:   3    -0.136845375746E+04   -0.84368E-04   -0.11463E-03  2592   0.538E-02    0.348E-02
DAV:   4    -0.136845374737E+04    0.10088E-04   -0.87624E-05  2600   0.220E-02    0.284E-02
DAV:   5    -0.136845371864E+04    0.28736E-04   -0.63187E-05  2112   0.177E-02    0.133E-02
DAV:   6    -0.136845371870E+04   -0.61933E-07   -0.76066E-05  2144   0.164E-02    0.984E-03
DAV:   7    -0.136845371931E+04   -0.61170E-06   -0.29213E-05  2264   0.964E-03    0.841E-03
DAV:   8    -0.136845371925E+04    0.58993E-07   -0.47241E-06  1336   0.572E-03
  58 F= -.13684537E+04 E0= -.13684537E+04  d E =0.240685E-02
       N       E                     dE             d eps       ncg     rms          rms(c)
DAV:   1    -0.136845348961E+04    0.22970E-03   -0.19759E-01  1400   0.644E-01    0.732E-02
DAV:   2    -0.136845458749E+04   -0.10979E-02   -0.11521E-02  2296   0.275E-01    0.390E-02
DAV:   3    -0.136845465191E+04   -0.64416E-04   -0.85505E-04  2544   0.502E-02    0.335E-02
DAV:   4    -0.136845464605E+04    0.58610E-05   -0.84287E-05  2600   0.212E-02    0.277E-02
DAV:   5    -0.136845462911E+04    0.16938E-04   -0.38672E-05  2280   0.137E-02    0.156E-02
DAV:   6    -0.136845462643E+04    0.26800E-05   -0.66743E-05  2104   0.159E-02    0.835E-03
DAV:   7    -0.136845462791E+04   -0.14832E-05   -0.40768E-05  2304   0.116E-02    0.972E-03
DAV:   8    -0.136845462740E+04    0.51664E-06   -0.28806E-06  1072   0.600E-03
  59 F= -.13684546E+04 E0= -.13684546E+04  d E =-.908147E-03
       N       E                     dE             d eps       ncg     rms          rms(c)
DAV:   1    -0.136845742417E+04   -0.27963E-02   -0.34533E-01  1392   0.845E-01    0.103E-01
DAV:   2    -0.136845938974E+04   -0.19656E-02   -0.21117E-02  2312   0.351E-01    0.513E-02
DAV:   3    -0.136845951440E+04   -0.12466E-03   -0.17465E-03  2544   0.717E-02    0.414E-02
DAV:   4    -0.136845949399E+04    0.20417E-04   -0.18951E-04  2600   0.323E-02    0.292E-02
DAV:   5    -0.136845947653E+04    0.17452E-04   -0.76469E-05  2480   0.181E-02    0.136E-02
DAV:   6    -0.136845947579E+04    0.74414E-06   -0.47119E-05  2320   0.138E-02    0.825E-03
DAV:   7    -0.136845947670E+04   -0.91213E-06   -0.27844E-05  2352   0.984E-03    0.782E-03
DAV:   8    -0.136845947609E+04    0.60791E-06   -0.43561E-06  1240   0.594E-03
  60 F= -.13684595E+04 E0= -.13684595E+04  d E =-.484870E-02
       N       E                     dE             d eps       ncg     rms          rms(c)
DAV:   1    -0.136845339319E+04    0.60835E-02   -0.60637E-01  1376   0.109E+00    0.116E-01
DAV:   2    -0.136845632797E+04   -0.29348E-02   -0.30489E-02  2288   0.419E-01    0.593E-02
DAV:   3    -0.136845650239E+04   -0.17442E-03   -0.22940E-03  2568   0.768E-02    0.494E-02
DAV:   4    -0.136845648755E+04    0.14844E-04   -0.17787E-04  2608   0.307E-02    0.409E-02
DAV:   5    -0.136845643768E+04    0.49865E-04   -0.10546E-04  2184   0.225E-02    0.209E-02
DAV:   6    -0.136845643457E+04    0.31101E-05   -0.14479E-04  2144   0.221E-02    0.129E-02
DAV:   7    -0.136845643577E+04   -0.11975E-05   -0.63303E-05  2264   0.146E-02    0.116E-02
DAV:   8    -0.136845643546E+04    0.31087E-06   -0.12623E-05  2008   0.819E-03    0.779E-03
DAV:   9    -0.136845643390E+04    0.15552E-05   -0.82198E-06  1608   0.619E-03    0.326E-03
DAV:  10    -0.136845643420E+04   -0.29868E-06   -0.42230E-06  1248   0.541E-03
  61 F= -.13684564E+04 E0= -.13684564E+04  d E =0.304189E-02
       N       E                     dE             d eps       ncg     rms          rms(c)
DAV:   1    -0.136844264485E+04    0.13789E-01   -0.24275E+00  1384   0.221E+00    0.241E-01
DAV:   2    -0.136845510223E+04   -0.12457E-01   -0.12986E-01  2288   0.896E-01    0.126E-01
DAV:   3    -0.136845582035E+04   -0.71812E-03   -0.95976E-03  2560   0.163E-01    0.106E-01
DAV:   4    -0.136845575346E+04    0.66888E-04   -0.84974E-04  2624   0.670E-02    0.878E-02
DAV:   5    -0.136845555206E+04    0.20140E-03   -0.41386E-04  2312   0.444E-02    0.482E-02
DAV:   6    -0.136845552283E+04    0.29235E-04   -0.66371E-04  2136   0.481E-02    0.261E-02
DAV:   7    -0.136845553591E+04   -0.13088E-04   -0.38633E-04  2368   0.350E-02    0.281E-02
DAV:   8    -0.136845553420E+04    0.17105E-05   -0.62490E-05  2408   0.183E-02    0.229E-02
DAV:   9    -0.136845552579E+04    0.84167E-05   -0.32752E-05  2040   0.108E-02    0.125E-02
DAV:  10    -0.136845552596E+04   -0.17200E-06   -0.31702E-05  2120   0.960E-03    0.560E-03
DAV:  11    -0.136845552603E+04   -0.75190E-07   -0.59124E-06  1376   0.593E-03
  62 F= -.13684555E+04 E0= -.13684555E+04  d E =0.908168E-03
       N       E                     dE             d eps       ncg     rms          rms(c)
DAV:   1    -0.136845773446E+04   -0.22085E-02   -0.10818E-01  1392   0.476E-01    0.584E-02
DAV:   2    -0.136845834654E+04   -0.61208E-03   -0.66418E-03  2304   0.198E-01    0.296E-02
DAV:   3    -0.136845838692E+04   -0.40378E-04   -0.56953E-04  2536   0.411E-02    0.239E-02
DAV:   4    -0.136845838044E+04    0.64857E-05   -0.60543E-05  2504   0.186E-02    0.167E-02
DAV:   5    -0.136845837505E+04    0.53871E-05   -0.27082E-05  2360   0.106E-02    0.791E-03
DAV:   6    -0.136845837484E+04    0.20370E-06   -0.15033E-05  2128   0.823E-03    0.536E-03
DAV:   7    -0.136845837485E+04   -0.78435E-08   -0.80898E-06  1744   0.587E-03
  63 F= -.13684584E+04 E0= -.13684584E+04  d E =-.284882E-02
       N       E                     dE             d eps       ncg     rms          rms(c)
DAV:   1    -0.136845902627E+04   -0.65143E-03   -0.16005E-02  1416   0.180E-01    0.207E-02
DAV:   2    -0.136845910812E+04   -0.81845E-04   -0.86668E-04  2288   0.716E-02    0.101E-02
DAV:   3    -0.136845911334E+04   -0.52193E-05   -0.69673E-05  2480   0.138E-02    0.895E-03
DAV:   4    -0.136845911250E+04    0.83623E-06   -0.37800E-06  1256   0.613E-03
  64 F= -.13684591E+04 E0= -.13684591E+04  d E =-.737650E-03
       N       E                     dE             d eps       ncg     rms          rms(c)
DAV:   1    -0.136845850272E+04    0.61062E-03   -0.64788E-03  1424   0.112E-01    0.132E-02
DAV:   2    -0.136845853731E+04   -0.34591E-04   -0.35846E-04  2272   0.437E-02    0.721E-03
DAV:   3    -0.136845853847E+04   -0.11626E-05   -0.23668E-05  2032   0.895E-03    0.567E-03
DAV:   4    -0.136845853761E+04    0.86358E-06   -0.15015E-06   992   0.475E-03
  65 F= -.13684585E+04 E0= -.13684585E+04  d E =0.574897E-03
       N       E                     dE             d eps       ncg     rms          rms(c)
DAV:   1    -0.136845305690E+04    0.54816E-02   -0.53722E-01  1328   0.100E+00    0.108E-01
DAV:   2    -0.136845546859E+04   -0.24117E-02   -0.24799E-02  2264   0.382E-01    0.556E-02
DAV:   3    -0.136845557425E+04   -0.10566E-03   -0.16798E-03  2568   0.673E-02    0.443E-02
DAV:   4    -0.136845554302E+04    0.31236E-04   -0.13298E-04  2528   0.258E-02    0.336E-02
DAV:   5    -0.136845548793E+04    0.55085E-04   -0.16594E-04  2040   0.286E-02    0.964E-03
DAV:   6    -0.136845549751E+04   -0.95773E-05   -0.11218E-04  2456   0.187E-02    0.118E-02
DAV:   7    -0.136845549726E+04    0.24584E-06   -0.90339E-06  1800   0.726E-03
  66 F= -.13684555E+04 E0= -.13684555E+04  d E =0.304034E-02
       N       E                     dE             d eps       ncg     rms          rms(c)
DAV:   1    -0.136843684815E+04    0.18649E-01   -0.23063E+00  1312   0.207E+00    0.229E-01
DAV:   2    -0.136844727486E+04   -0.10427E-01   -0.10795E-01  2264   0.788E-01    0.115E-01
DAV:   3    -0.136844776560E+04   -0.49074E-03   -0.75547E-03  2568   0.144E-01    0.937E-02
DAV:   4    -0.136844765154E+04    0.11405E-03   -0.61156E-04  2592   0.547E-02    0.712E-02
DAV:   5    -0.136844743155E+04    0.21999E-03   -0.56383E-04  2088   0.525E-02    0.250E-02
DAV:   6    -0.136844746462E+04   -0.33071E-04   -0.50118E-04  2424   0.374E-02    0.275E-02
DAV:   7    -0.136844746512E+04   -0.49538E-06   -0.58334E-05  2456   0.156E-02    0.248E-02
DAV:   8    -0.136844745971E+04    0.54102E-05   -0.27337E-05  2232   0.942E-03    0.160E-02
DAV:   9    -0.136844745456E+04    0.51460E-05   -0.38034E-05  2032   0.119E-02    0.602E-03
DAV:  10    -0.136844745543E+04   -0.86716E-06   -0.12144E-05  1800   0.802E-03    0.564E-03
DAV:  11    -0.136844745499E+04    0.43536E-06   -0.17628E-06  1008   0.368E-03
  67 F= -.13684475E+04 E0= -.13684475E+04  d E =0.804227E-02
       N       E                     dE             d eps       ncg     rms          rms(c)
DAV:   1    -0.136842020112E+04    0.27254E-01   -0.33121E+00  1312   0.248E+00    0.275E-01
DAV:   2    -0.136843547264E+04   -0.15272E-01   -0.15864E-01  2280   0.944E-01    0.141E-01
DAV:   3    -0.136843612202E+04   -0.64937E-03   -0.10792E-02  2576   0.177E-01    0.111E-01
DAV:   4    -0.136843586563E+04    0.25638E-03   -0.10408E-03  2536   0.717E-02    0.753E-02
DAV:   5    -0.136843563563E+04    0.23001E-03   -0.72347E-04  2136   0.594E-02    0.244E-02
DAV:   6    -0.136843567259E+04   -0.36967E-04   -0.48971E-04  2448   0.374E-02    0.283E-02
DAV:   7    -0.136843567202E+04    0.57435E-06   -0.65557E-05  2560   0.165E-02    0.228E-02
DAV:   8    -0.136843566489E+04    0.71241E-05   -0.39955E-05  2488   0.120E-02    0.104E-02
DAV:   9    -0.136843566485E+04    0.45693E-07   -0.16567E-05  2112   0.808E-03    0.560E-03
DAV:  10    -0.136843566462E+04    0.23344E-06   -0.91746E-07   992   0.419E-03
  68 F= -.13684357E+04 E0= -.13684357E+04  d E =0.117904E-01
       N       E                     dE             d eps       ncg     rms          rms(c)
DAV:   1    -0.136839190242E+04    0.43762E-01   -0.14126E+01  1312   0.511E+00    0.561E-01
DAV:   2    -0.136845556009E+04   -0.63658E-01   -0.65786E-01  2264   0.194E+00    0.287E-01
DAV:   3    -0.136845838569E+04   -0.28256E-02   -0.45329E-02  2568   0.352E-01    0.229E-01
DAV:   4    -0.136845754600E+04    0.83969E-03   -0.37807E-03  2552   0.135E-01    0.169E-01
DAV:   5    -0.136845626962E+04    0.12764E-02   -0.32051E-03  2104   0.126E-01    0.568E-02
DAV:   6    -0.136845644505E+04   -0.17542E-03   -0.26710E-03  2432   0.861E-02    0.585E-02
DAV:   7    -0.136845645100E+04   -0.59577E-05   -0.30510E-04  2512   0.357E-02    0.523E-02
DAV:   8    -0.136845642524E+04    0.25760E-04   -0.15175E-04  2456   0.217E-02    0.311E-02
DAV:   9    -0.136845640870E+04    0.16547E-04   -0.13831E-04  2272   0.227E-02    0.129E-02
DAV:  10    -0.136845641088E+04   -0.21802E-05   -0.40801E-05  2176   0.140E-02    0.117E-02
DAV:  11    -0.136845641005E+04    0.83073E-06   -0.13161E-05  1792   0.654E-03    0.738E-03
DAV:  12    -0.136845640911E+04    0.93709E-06   -0.93987E-06  1584   0.755E-03
  69 F= -.13684564E+04 E0= -.13684564E+04  d E =-.207445E-01
       N       E                     dE             d eps       ncg     rms          rms(c)
DAV:   1    -0.136845583656E+04    0.57349E-03   -0.83066E-03  1456   0.135E-01    0.204E-02
DAV:   2    -0.136845588576E+04   -0.49196E-04   -0.55438E-04  2312   0.594E-02    0.102E-02
DAV:   3    -0.136845588885E+04   -0.30977E-05   -0.49327E-05  2432   0.133E-02    0.894E-03
DAV:   4    -0.136845588774E+04    0.11173E-05   -0.35412E-06  1184   0.628E-03    0.638E-03
DAV:   5    -0.136845588800E+04   -0.25917E-06   -0.18713E-05  1832   0.775E-03    0.544E-03
DAV:   6    -0.136845588752E+04    0.47975E-06   -0.18701E-06   992   0.551E-03
  70 F= -.13684559E+04 E0= -.13684559E+04  d E =0.521592E-03
       N       E                     dE             d eps       ncg     rms          rms(c)
DAV:   1    -0.136845562440E+04    0.26360E-03   -0.84253E-04  1544   0.411E-02    0.536E-03
DAV:   2    -0.136845562921E+04   -0.48078E-05   -0.52104E-05  2240   0.171E-02    0.397E-03
DAV:   3    -0.136845562912E+04    0.85609E-07   -0.24748E-06  1048   0.411E-03
  71 F= -.13684556E+04 E0= -.13684556E+04  d E =0.258397E-03
       N       E                     dE             d eps       ncg     rms          rms(c)
DAV:   1    -0.136845802455E+04   -0.23953E-02   -0.11683E-01  1312   0.455E-01    0.572E-02
DAV:   2    -0.136845852542E+04   -0.50088E-03   -0.52767E-03  2280   0.179E-01    0.295E-02
DAV:   3    -0.136845853327E+04   -0.78482E-05   -0.31775E-04  2536   0.343E-02    0.215E-02
DAV:   4    -0.136845851565E+04    0.17619E-04   -0.75046E-05  2128   0.189E-02    0.943E-03
DAV:   5    -0.136845851563E+04    0.18932E-07   -0.28455E-05  2232   0.111E-02    0.744E-03
DAV:   6    -0.136845851507E+04    0.56256E-06   -0.94784E-06  1576   0.589E-03
  72 F= -.13684585E+04 E0= -.13684585E+04  d E =-.288595E-02
       N       E                     dE             d eps       ncg     rms          rms(c)
DAV:   1    -0.136846193765E+04   -0.34220E-02   -0.35643E-01  1312   0.802E-01    0.101E-01
DAV:   2    -0.136846353618E+04   -0.15985E-02   -0.16925E-02  2312   0.319E-01    0.530E-02
DAV:   3    -0.136846356164E+04   -0.25458E-04   -0.10289E-03  2552   0.626E-02    0.383E-02
DAV:   4    -0.136846351043E+04    0.51206E-04   -0.23219E-04  2344   0.323E-02    0.179E-02
DAV:   5    -0.136846350813E+04    0.22999E-05   -0.83626E-05  2408   0.192E-02    0.128E-02
DAV:   6    -0.136846350714E+04    0.99224E-06   -0.33215E-05  2192   0.997E-03    0.498E-03
DAV:   7    -0.136846350686E+04    0.28031E-06   -0.36332E-06  1216   0.620E-03
  73 F= -.13684635E+04 E0= -.13684635E+04  d E =-.499179E-02
       N       E                     dE             d eps       ncg     rms          rms(c)
DAV:   1    -0.136846650943E+04   -0.30023E-02   -0.12428E+00  1312   0.152E+00    0.183E-01
DAV:   2    -0.136847252978E+04   -0.60203E-02   -0.63735E-02  2320   0.589E-01    0.952E-02
DAV:   3    -0.136847271320E+04   -0.18342E-03   -0.42264E-03  2576   0.122E-01    0.700E-02
DAV:   4    -0.136847255911E+04    0.15408E-03   -0.62718E-04  2480   0.557E-02    0.377E-02
DAV:   5    -0.136847252617E+04    0.32947E-04   -0.26988E-04  2440   0.340E-02    0.183E-02
DAV:   6    -0.136847252606E+04    0.10766E-06   -0.77066E-05  2488   0.171E-02    0.916E-03
DAV:   7    -0.136847252654E+04   -0.47863E-06   -0.20828E-05  2272   0.102E-02    0.654E-03
DAV:   8    -0.136847252682E+04   -0.28014E-06   -0.10124E-05  1776   0.567E-03    0.433E-03
DAV:   9    -0.136847252653E+04    0.29022E-06   -0.93310E-07   992   0.448E-03
  74 F= -.13684725E+04 E0= -.13684725E+04  d E =-.901967E-02
       N       E                     dE             d eps       ncg     rms          rms(c)
DAV:   1    -0.136844272183E+04    0.29805E-01   -0.32663E+00  1312   0.243E+00    0.301E-01
DAV:   2    -0.136845768184E+04   -0.14960E-01   -0.15823E-01  2312   0.955E-01    0.156E-01
DAV:   3    -0.136845803616E+04   -0.35432E-03   -0.10137E-02  2552   0.190E-01    0.114E-01
DAV:   4    -0.136845758731E+04    0.44885E-03   -0.19079E-03  2352   0.942E-02    0.553E-02
DAV:   5    -0.136845754740E+04    0.39914E-04   -0.73166E-04  2432   0.557E-02    0.341E-02
DAV:   6    -0.136845754145E+04    0.59500E-05   -0.22867E-04  2496   0.268E-02    0.134E-02
DAV:   7    -0.136845754176E+04   -0.30667E-06   -0.44737E-05  2448   0.158E-02    0.907E-03
DAV:   8    -0.136845754209E+04   -0.32996E-06   -0.19873E-05  2320   0.838E-03    0.512E-03
DAV:   9    -0.136845754153E+04    0.55575E-06   -0.20048E-06  1008   0.548E-03
  75 F= -.13684575E+04 E0= -.13684575E+04  d E =0.149850E-01
       N       E                     dE             d eps       ncg     rms          rms(c)
DAV:   1    -0.136845949941E+04   -0.19573E-02   -0.98202E-02  1368   0.438E-01    0.497E-02
DAV:   2    -0.136845999552E+04   -0.49611E-03   -0.52489E-03  2288   0.170E-01    0.258E-02
DAV:   3    -0.136846002406E+04   -0.28543E-04   -0.42335E-04  2536   0.336E-02    0.204E-02
DAV:   4    -0.136846001742E+04    0.66453E-05   -0.38315E-05  2384   0.146E-02    0.143E-02
DAV:   5    -0.136846001133E+04    0.60882E-05   -0.18530E-05  2120   0.936E-03    0.637E-03
DAV:   6    -0.136846001109E+04    0.23587E-06   -0.13835E-05  1992   0.778E-03    0.434E-03
DAV:   7    -0.136846001107E+04    0.24316E-07   -0.55627E-06  1448   0.558E-03
  76 F= -.13684600E+04 E0= -.13684600E+04  d E =-.246954E-02
       N       E                     dE             d eps       ncg     rms          rms(c)
DAV:   1    -0.136846016042E+04   -0.14933E-03   -0.37601E-04  1520   0.272E-02    0.407E-03
DAV:   2    -0.136846016238E+04   -0.19591E-05   -0.21789E-05  2024   0.105E-02    0.175E-03
DAV:   3    -0.136846016240E+04   -0.19907E-07   -0.91495E-07   856   0.339E-03
  77 F= -.13684602E+04 E0= -.13684602E+04  d E =-.151333E-03
       N       E                     dE             d eps       ncg     rms          rms(c)
DAV:   1    -0.136846370552E+04   -0.35431E-02   -0.29677E-01  1368   0.750E-01    0.911E-02
DAV:   2    -0.136846528450E+04   -0.15790E-02   -0.16738E-02  2304   0.304E-01    0.464E-02
DAV:   3    -0.136846536244E+04   -0.77946E-04   -0.13020E-03  2560   0.597E-02    0.358E-02
DAV:   4    -0.136846533148E+04    0.30962E-04   -0.13751E-04  2504   0.273E-02    0.229E-02
DAV:   5    -0.136846531379E+04    0.17686E-04   -0.75175E-05  2368   0.183E-02    0.884E-03
DAV:   6    -0.136846531551E+04   -0.17178E-05   -0.40264E-05  2328   0.120E-02    0.782E-03
DAV:   7    -0.136846531539E+04    0.11998E-06   -0.11854E-05  2024   0.732E-03    0.591E-03
DAV:   8    -0.136846531517E+04    0.22387E-06   -0.57640E-06  1472   0.497E-03
  78 F= -.13684653E+04 E0= -.13684653E+04  d E =-.515276E-02
       N       E                     dE             d eps       ncg     rms          rms(c)
DAV:   1    -0.136846782696E+04   -0.25116E-02   -0.11953E-01  1392   0.483E-01    0.567E-02
DAV:   2    -0.136846848869E+04   -0.66174E-03   -0.70104E-03  2296   0.201E-01    0.289E-02
DAV:   3    -0.136846852909E+04   -0.40400E-04   -0.57131E-04  2560   0.388E-02    0.234E-02
DAV:   4    -0.136846852147E+04    0.76235E-05   -0.54090E-05  2472   0.172E-02    0.168E-02
DAV:   5    -0.136846851357E+04    0.78975E-05   -0.25301E-05  2288   0.108E-02    0.763E-03
DAV:   6    -0.136846851341E+04    0.16608E-06   -0.19663E-05  2080   0.872E-03    0.496E-03
DAV:   7    -0.136846851364E+04   -0.23346E-06   -0.10843E-05  1976   0.652E-03    0.445E-03
DAV:   8    -0.136846851342E+04    0.21599E-06   -0.13163E-06   976   0.402E-03
  79 F= -.13684685E+04 E0= -.13684685E+04  d E =-.319826E-02
       N       E                     dE             d eps       ncg     rms          rms(c)
DAV:   1    -0.136846141936E+04    0.70943E-02   -0.36634E-01  1392   0.851E-01    0.977E-02
DAV:   2    -0.136846342906E+04   -0.20097E-02   -0.21254E-02  2296   0.352E-01    0.490E-02
DAV:   3    -0.136846355705E+04   -0.12799E-03   -0.17326E-03  2560   0.671E-02    0.401E-02
DAV:   4    -0.136846353740E+04    0.19653E-04   -0.14776E-04  2584   0.289E-02    0.304E-02
DAV:   5    -0.136846350905E+04    0.28351E-04   -0.86476E-05  2264   0.195E-02    0.130E-02
DAV:   6    -0.136846351062E+04   -0.15698E-05   -0.74608E-05  2216   0.159E-02    0.109E-02
DAV:   7    -0.136846351047E+04    0.14371E-06   -0.32380E-05  2296   0.105E-02    0.839E-03
DAV:   8    -0.136846350995E+04    0.52775E-06   -0.85916E-06  1688   0.667E-03
  80 F= -.13684635E+04 E0= -.13684635E+04  d E =0.500348E-02
       N       E                     dE             d eps       ncg     rms          rms(c)
DAV:   1    -0.136846314192E+04    0.36856E-03   -0.80996E-03  1440   0.128E-01    0.146E-02
DAV:   2    -0.136846318374E+04   -0.41820E-04   -0.43719E-04  2296   0.518E-02    0.781E-03
DAV:   3    -0.136846318591E+04   -0.21735E-05   -0.32521E-05  2152   0.947E-03    0.649E-03
DAV:   4    -0.136846318521E+04    0.69589E-06   -0.15158E-06  1008   0.488E-03
  81 F= -.13684632E+04 E0= -.13684632E+04  d E =0.324731E-03
       N       E                     dE             d eps       ncg     rms          rms(c)
DAV:   1    -0.136843921306E+04    0.23973E-01   -0.19358E+00  1376   0.193E+00    0.231E-01
DAV:   2    -0.136844971519E+04   -0.10502E-01   -0.11142E-01  2296   0.788E-01    0.116E-01
DAV:   3    -0.136845031811E+04   -0.60293E-03   -0.89911E-03  2544   0.154E-01    0.922E-02
DAV:   4    -0.136845016399E+04    0.15413E-03   -0.86691E-04  2544   0.684E-02    0.639E-02
DAV:   5    -0.136845002695E+04    0.13703E-03   -0.46497E-04  2336   0.455E-02    0.254E-02
DAV:   6    -0.136845003565E+04   -0.87033E-05   -0.31474E-04  2376   0.330E-02    0.216E-02
DAV:   7    -0.136845003593E+04   -0.27398E-06   -0.11904E-04  2400   0.208E-02    0.170E-02
[...]
       N       E                     dE             d eps       ncg     rms          rms(c)
DAV:   1    -0.136847085334E+04    0.29447E-03   -0.50053E-03  1384   0.101E-01    0.123E-02
DAV:   2    -0.136847088183E+04   -0.28481E-04   -0.30245E-04  2304   0.423E-02    0.661E-03
DAV:   3    -0.136847088338E+04   -0.15493E-05   -0.23147E-05  2200   0.842E-03    0.561E-03
DAV:   4    -0.136847088291E+04    0.46489E-06   -0.12712E-06   976   0.438E-03
 272 F= -.13684709E+04 E0= -.13684709E+04  d E =0.264514E-03
       N       E                     dE             d eps       ncg     rms          rms(c)
DAV:   1    -0.136847091979E+04   -0.36417E-04   -0.43689E-03  1392   0.924E-02    0.106E-02
DAV:   2    -0.136847093993E+04   -0.20136E-04   -0.21207E-04  2256   0.352E-02    0.613E-03
DAV:   3    -0.136847094068E+04   -0.75388E-06   -0.14743E-05  1752   0.687E-03    0.449E-03
DAV:   4    -0.136847094007E+04    0.61207E-06   -0.14276E-06  1008   0.456E-03
 273 F= -.13684709E+04 E0= -.13684709E+04  d E =-.571598E-04
       N       E                     dE             d eps       ncg     rms          rms(c)
DAV:   1    -0.136847070811E+04    0.23257E-03   -0.17109E-02  1328   0.180E-01    0.198E-02
DAV:   2    -0.136847078465E+04   -0.76540E-04   -0.79684E-04  2264   0.686E-02    0.102E-02
DAV:   3    -0.136847078874E+04   -0.40828E-05   -0.59350E-05  2448   0.128E-02    0.812E-03
DAV:   4    -0.136847078758E+04    0.11534E-05   -0.26612E-06  1152   0.539E-03    0.638E-03
DAV:   5    -0.136847078645E+04    0.11321E-05   -0.15538E-05  1752   0.776E-03    0.267E-03
DAV:   6    -0.136847078645E+04    0.36962E-08   -0.22201E-06  1032   0.554E-03
 274 F= -.13684708E+04 E0= -.13684708E+04  d E =0.153622E-03
       N       E                     dE             d eps       ncg     rms          rms(c)
DAV:   1    -0.136847065783E+04    0.12862E-03   -0.14260E-02  1328   0.166E-01    0.196E-02
DAV:   2    -0.136847072542E+04   -0.67592E-04   -0.71278E-04  2256   0.620E-02    0.977E-03
DAV:   3    -0.136847072932E+04   -0.38996E-05   -0.55883E-05  2440   0.127E-02    0.847E-03
DAV:   4    -0.136847072839E+04    0.92848E-06   -0.29594E-06  1192   0.540E-03
 275 F= -.13684707E+04 E0= -.13684707E+04  d E =0.580548E-04
       N       E                     dE             d eps       ncg     rms          rms(c)
DAV:   1    -0.136847068711E+04    0.42213E-04   -0.62916E-03  1384   0.110E-01    0.117E-02
DAV:   2    -0.136847071412E+04   -0.27014E-04   -0.28415E-04  2280   0.408E-02    0.697E-03
DAV:   3    -0.136847071532E+04   -0.11989E-05   -0.20733E-05  1920   0.787E-03    0.488E-03
DAV:   4    -0.136847071463E+04    0.69082E-06   -0.15650E-06  1000   0.463E-03
 276 F= -.13684707E+04 E0= -.13684707E+04  d E =0.137624E-04
       N       E                     dE             d eps       ncg     rms          rms(c)
DAV:   1    -0.136847070874E+04    0.65803E-05   -0.25694E-03  1408   0.692E-02    0.785E-03
DAV:   2    -0.136847072051E+04   -0.11766E-04   -0.12411E-04  2248   0.264E-02    0.453E-03
DAV:   3    -0.136847072064E+04   -0.12806E-06   -0.58090E-06  1352   0.488E-03
 277 F= -.13684707E+04 E0= -.13684707E+04  d E =-.600450E-05
       N       E                     dE             d eps       ncg     rms          rms(c)
DAV:   1    -0.136847069580E+04    0.24711E-04   -0.70879E-04  1472   0.379E-02    0.482E-03
DAV:   2    -0.136847069984E+04   -0.40441E-05   -0.41189E-05  2240   0.159E-02    0.210E-03
DAV:   3    -0.136847069986E+04   -0.14930E-07   -0.87330E-07   848   0.305E-03
 278 F= -.13684707E+04 E0= -.13684707E+04  d E =0.207796E-04
       N       E                     dE             d eps       ncg     rms          rms(c)
DAV:   1    -0.136847070652E+04   -0.66742E-05   -0.20504E-03  1360   0.609E-02    0.681E-03
DAV:   2    -0.136847071566E+04   -0.91454E-05   -0.93850E-05  2112   0.232E-02    0.365E-03
DAV:   3    -0.136847071574E+04   -0.77154E-07   -0.36131E-06  1200   0.460E-03
 279 F= -.13684707E+04 E0= -.13684707E+04  d E =-.158818E-04
       N       E                     dE             d eps       ncg     rms          rms(c)
DAV:   1    -0.136847076452E+04   -0.48864E-04   -0.16093E-01  1312   0.543E-01    0.604E-02
DAV:   2    -0.136847148790E+04   -0.72338E-03   -0.75388E-03  2280   0.208E-01    0.318E-02
DAV:   3    -0.136847151776E+04   -0.29859E-04   -0.51426E-04  2560   0.378E-02    0.248E-02
DAV:   4    -0.136847150384E+04    0.13924E-04   -0.47371E-05  2328   0.157E-02    0.169E-02
DAV:   5    -0.136847149186E+04    0.11980E-04   -0.39878E-05  2056   0.142E-02    0.503E-03
DAV:   6    -0.136847149414E+04   -0.22792E-05   -0.26345E-05  2248   0.880E-03    0.661E-03
DAV:   7    -0.136847149395E+04    0.18440E-06   -0.10107E-06   992   0.388E-03
 280 F= -.13684715E+04 E0= -.13684715E+04  d E =-.778215E-03
       N       E                     dE             d eps       ncg     rms          rms(c)
DAV:   1    -0.136847180843E+04   -0.31430E-03   -0.59311E-02  1328   0.334E-01    0.378E-02
DAV:   2    -0.136847208370E+04   -0.27527E-03   -0.28821E-03  2272   0.128E-01    0.195E-02
DAV:   3    -0.136847209546E+04   -0.11757E-04   -0.19701E-04  2544   0.247E-02    0.157E-02
DAV:   4    -0.136847209107E+04    0.43838E-05   -0.19706E-05  2072   0.100E-02    0.108E-02
DAV:   5    -0.136847208670E+04    0.43761E-05   -0.15343E-05  1912   0.889E-03    0.359E-03
DAV:   6    -0.136847208750E+04   -0.80556E-06   -0.10229E-05  1840   0.594E-03    0.421E-03
DAV:   7    -0.136847208739E+04    0.11257E-06   -0.75689E-07   992   0.335E-03
 281 F= -.13684721E+04 E0= -.13684721E+04  d E =-.593437E-03
       N       E                     dE             d eps       ncg     rms          rms(c)
DAV:   1    -0.136847236877E+04   -0.28127E-03   -0.32225E-03  1432   0.821E-02    0.102E-02
DAV:   2    -0.136847238917E+04   -0.20404E-04   -0.21788E-04  2312   0.371E-02    0.523E-03
DAV:   3    -0.136847239045E+04   -0.12785E-05   -0.16639E-05  1976   0.740E-03    0.422E-03
DAV:   4    -0.136847239019E+04    0.25694E-06   -0.11598E-06   944   0.433E-03
 282 F= -.13684724E+04 E0= -.13684724E+04  d E =-.302805E-03
       N       E                     dE             d eps       ncg     rms          rms(c)
DAV:   1    -0.136847163572E+04    0.75473E-03   -0.36868E-02  1344   0.263E-01    0.294E-02
DAV:   2    -0.136847181584E+04   -0.18011E-03   -0.18822E-03  2280   0.104E-01    0.156E-02
DAV:   3    -0.136847182398E+04   -0.81394E-05   -0.13232E-04  2480   0.188E-02    0.123E-02
DAV:   4    -0.136847182103E+04    0.29525E-05   -0.10430E-05  1728   0.783E-03    0.873E-03
DAV:   5    -0.136847181792E+04    0.31079E-05   -0.92236E-06  1792   0.702E-03    0.314E-03
DAV:   6    -0.136847181802E+04   -0.10413E-06   -0.45442E-06  1296   0.516E-03
 283 F= -.13684718E+04 E0= -.13684718E+04  d E =0.572173E-03
       N       E                     dE             d eps       ncg     rms          rms(c)
DAV:   1    -0.136847120606E+04    0.61186E-03   -0.23029E-02  1352   0.209E-01    0.243E-02
DAV:   2    -0.136847131951E+04   -0.11345E-03   -0.11946E-03  2288   0.831E-02    0.117E-02
DAV:   3    -0.136847132593E+04   -0.64265E-05   -0.90021E-05  2488   0.154E-02    0.963E-03
DAV:   4    -0.136847132460E+04    0.13359E-05   -0.57445E-06  1432   0.654E-03    0.739E-03
DAV:   5    -0.136847132257E+04    0.20241E-05   -0.12494E-05  1752   0.771E-03    0.211E-03
DAV:   6    -0.136847132281E+04   -0.23455E-06   -0.25600E-06  1056   0.545E-03
 284 F= -.13684713E+04 E0= -.13684713E+04  d E =0.495214E-03
       N       E                     dE             d eps       ncg     rms          rms(c)
DAV:   1    -0.136847190001E+04   -0.57744E-03   -0.79802E-02  1360   0.390E-01    0.426E-02
DAV:   2    -0.136847230061E+04   -0.40060E-03   -0.41864E-03  2288   0.155E-01    0.228E-02
DAV:   3    -0.136847232186E+04   -0.21248E-04   -0.31012E-04  2544   0.281E-02    0.181E-02
DAV:   4    -0.136847231697E+04    0.48891E-05   -0.24521E-05  2272   0.115E-02    0.134E-02
DAV:   5    -0.136847231068E+04    0.62871E-05   -0.14716E-05  1880   0.876E-03    0.571E-03
DAV:   6    -0.136847231086E+04   -0.17624E-06   -0.14680E-05  1992   0.740E-03    0.412E-03
DAV:   7    -0.136847231074E+04    0.12289E-06   -0.17833E-06   976   0.434E-03
 285 F= -.13684723E+04 E0= -.13684723E+04  d E =-.987929E-03
       N       E                     dE             d eps       ncg     rms          rms(c)
DAV:   1    -0.136847317540E+04   -0.86454E-03   -0.62567E-02  1368   0.351E-01    0.414E-02
DAV:   2    -0.136847351709E+04   -0.34169E-03   -0.36392E-03  2288   0.143E-01    0.202E-02
DAV:   3    -0.136847354061E+04   -0.23522E-04   -0.30411E-04  2552   0.287E-02    0.169E-02
DAV:   4    -0.136847353818E+04    0.24286E-05   -0.27594E-05  2400   0.123E-02    0.128E-02
DAV:   5    -0.136847353410E+04    0.40837E-05   -0.12309E-05  2000   0.806E-03    0.591E-03
DAV:   6    -0.136847353422E+04   -0.12133E-06   -0.12695E-05  1968   0.695E-03    0.418E-03
DAV:   7    -0.136847353397E+04    0.24471E-06   -0.34082E-06  1168   0.518E-03
 286 F= -.13684735E+04 E0= -.13684735E+04  d E =-.122324E-02
       N       E                     dE             d eps       ncg     rms          rms(c)
DAV:   1    -0.136847391647E+04   -0.38225E-03   -0.83165E-03  1368   0.128E-01    0.152E-02
DAV:   2    -0.136847396172E+04   -0.45254E-04   -0.47953E-04  2296   0.513E-02    0.727E-03
DAV:   3    -0.136847396458E+04   -0.28587E-05   -0.37780E-05  2344   0.105E-02    0.617E-03
DAV:   4    -0.136847396411E+04    0.47809E-06   -0.17011E-06  1032   0.480E-03
 287 F= -.13684740E+04 E0= -.13684740E+04  d E =-.430133E-03
       N       E                     dE             d eps       ncg     rms          rms(c)
DAV:   1    -0.136846992303E+04    0.40416E-02   -0.32168E-01  1368   0.787E-01    0.889E-02
DAV:   2    -0.136847158011E+04   -0.16571E-02   -0.17405E-02  2288   0.313E-01    0.459E-02
DAV:   3    -0.136847167163E+04   -0.91514E-04   -0.13254E-03  2568   0.590E-02    0.368E-02
DAV:   4    -0.136847165210E+04    0.19527E-04   -0.11326E-04  2576   0.245E-02    0.270E-02
DAV:   5    -0.136847162865E+04    0.23447E-04   -0.57198E-05  2304   0.167E-02    0.123E-02
DAV:   6    -0.136847162769E+04    0.96198E-06   -0.55156E-05  2216   0.141E-02    0.783E-03
DAV:   7    -0.136847162848E+04   -0.78844E-06   -0.25297E-05  2208   0.936E-03    0.733E-03
DAV:   8    -0.136847162797E+04    0.50940E-06   -0.41064E-06  1264   0.551E-03
 288 F= -.13684716E+04 E0= -.13684716E+04  d E =0.233614E-02
       N       E                     dE             d eps       ncg     rms          rms(c)
DAV:   1    -0.136846357474E+04    0.80537E-02   -0.82159E-01  1352   0.125E+00    0.141E-01
DAV:   2    -0.136846773932E+04   -0.41646E-02   -0.43743E-02  2288   0.496E-01    0.724E-02
DAV:   3    -0.136846797727E+04   -0.23795E-03   -0.33651E-03  2576   0.935E-02    0.581E-02
DAV:   4    -0.136846793282E+04    0.44451E-04   -0.28418E-04  2592   0.388E-02    0.430E-02
DAV:   5    -0.136846787478E+04    0.58045E-04   -0.14749E-04  2328   0.267E-02    0.191E-02
DAV:   6    -0.136846787448E+04    0.30131E-06   -0.14000E-04  2288   0.218E-02    0.129E-02
DAV:   7    -0.136846787592E+04   -0.14396E-05   -0.57078E-05  2328   0.140E-02    0.114E-02
DAV:   8    -0.136846787536E+04    0.55702E-06   -0.16722E-05  2192   0.837E-03    0.655E-03
DAV:   9    -0.136846787452E+04    0.83943E-06   -0.57159E-06  1528   0.534E-03
 289 F= -.13684679E+04 E0= -.13684679E+04  d E =0.375345E-02
       N       E                     dE             d eps       ncg     rms          rms(c)
DAV:   1    -0.136846548452E+04    0.23908E-02   -0.13890E+00  1368   0.163E+00    0.184E-01
DAV:   2    -0.136847255930E+04   -0.70748E-02   -0.74375E-02  2288   0.650E-01    0.934E-02
DAV:   3    -0.136847296602E+04   -0.40672E-03   -0.57410E-03  2576   0.121E-01    0.746E-02
DAV:   4    -0.136847288423E+04    0.81792E-04   -0.46984E-04  2592   0.507E-02    0.550E-02
DAV:   5    -0.136847278119E+04    0.10304E-03   -0.27336E-04  2296   0.363E-02    0.225E-02
DAV:   6    -0.136847278671E+04   -0.55202E-05   -0.24325E-04  2344   0.281E-02    0.177E-02
DAV:   7    -0.136847278784E+04   -0.11287E-05   -0.73335E-05  2328   0.160E-02    0.148E-02
DAV:   8    -0.136847278726E+04    0.57981E-06   -0.26285E-05  2352   0.968E-03    0.823E-03
DAV:   9    -0.136847278543E+04    0.18326E-05   -0.11732E-05  1912   0.703E-03    0.409E-03
DAV:  10    -0.136847278554E+04   -0.11332E-06   -0.17923E-06  1016   0.450E-03
 290 F= -.13684728E+04 E0= -.13684728E+04  d E =-.491102E-02
       N       E                     dE             d eps       ncg     rms          rms(c)
DAV:   1    -0.136847248230E+04    0.30312E-03   -0.83971E-03  1392   0.127E-01    0.156E-02
DAV:   2    -0.136847252293E+04   -0.40623E-04   -0.42880E-04  2272   0.491E-02    0.724E-03
DAV:   3    -0.136847252458E+04   -0.16567E-05   -0.29859E-05  2160   0.955E-03    0.582E-03
DAV:   4    -0.136847252356E+04    0.10227E-05   -0.15899E-06  1008   0.476E-03    0.410E-03
DAV:   5    -0.136847252318E+04    0.37940E-06   -0.11901E-05  1600   0.709E-03    0.297E-03
DAV:   6    -0.136847252309E+04    0.95926E-07   -0.18192E-06   992   0.559E-03
 291 F= -.13684725E+04 E0= -.13684725E+04  d E =0.262454E-03
       N       E                     dE             d eps       ncg     rms          rms(c)
DAV:   1    -0.136846997212E+04    0.25511E-02   -0.16114E-01  1368   0.560E-01    0.633E-02
DAV:   2    -0.136847080019E+04   -0.82808E-03   -0.87263E-03  2296   0.221E-01    0.319E-02
DAV:   3    -0.136847084819E+04   -0.47995E-04   -0.67043E-04  2576   0.429E-02    0.256E-02
DAV:   4    -0.136847083941E+04    0.87807E-05   -0.59023E-05  2488   0.179E-02    0.188E-02
DAV:   5    -0.136847082842E+04    0.10990E-04   -0.31543E-05  2288   0.124E-02    0.785E-03
DAV:   6    -0.136847082898E+04   -0.56448E-06   -0.27389E-05  2272   0.983E-03    0.605E-03
DAV:   7    -0.136847082901E+04   -0.34255E-07   -0.90281E-06  1912   0.617E-03
 292 F= -.13684708E+04 E0= -.13684708E+04  d E =0.169407E-02
       N       E                     dE             d eps       ncg     rms          rms(c)
DAV:   1    -0.136845710983E+04    0.13719E-01   -0.16077E+00  1360   0.176E+00    0.197E-01
DAV:   2    -0.136846526664E+04   -0.81568E-02   -0.85715E-02  2288   0.691E-01    0.994E-02
DAV:   3    -0.136846575989E+04   -0.49324E-03   -0.67235E-03  2576   0.132E-01    0.803E-02
DAV:   4    -0.136846568561E+04    0.74280E-04   -0.54930E-04  2592   0.546E-02    0.610E-02
DAV:   5    -0.136846557192E+04    0.11368E-03   -0.28278E-04  2336   0.368E-02    0.277E-02
DAV:   6    -0.136846556980E+04    0.21211E-05   -0.28313E-04  2296   0.309E-02    0.180E-02
DAV:   7    -0.136846557305E+04   -0.32467E-05   -0.12048E-04  2392   0.201E-02    0.160E-02
DAV:   8    -0.136846557213E+04    0.91897E-06   -0.33280E-05  2456   0.117E-02    0.943E-03
DAV:   9    -0.136846557065E+04    0.14753E-05   -0.12633E-05  1952   0.702E-03    0.502E-03
DAV:  10    -0.136846557077E+04   -0.11842E-06   -0.32800E-06  1184   0.474E-03
 293 F= -.13684656E+04 E0= -.13684656E+04  d E =0.525824E-02
       N       E                     dE             d eps       ncg     rms          rms(c)
DAV:   1    -0.136846442425E+04    0.11464E-02   -0.10033E+00  1368   0.140E+00    0.157E-01
DAV:   2    -0.136846953107E+04   -0.51068E-02   -0.53714E-02  2288   0.549E-01    0.788E-02
DAV:   3    -0.136846983450E+04   -0.30343E-03   -0.41910E-03  2576   0.105E-01    0.634E-02
DAV:   4    -0.136846978201E+04    0.52486E-04   -0.34445E-04  2584   0.436E-02    0.476E-02
DAV:   5    -0.136846970805E+04    0.73957E-04   -0.18816E-04  2312   0.303E-02    0.204E-02
DAV:   6    -0.136846970944E+04   -0.13927E-05   -0.17943E-04  2328   0.246E-02    0.144E-02
DAV:   7    -0.136846971103E+04   -0.15845E-05   -0.64328E-05  2376   0.148E-02    0.124E-02
DAV:   8    -0.136846971055E+04    0.47845E-06   -0.18625E-05  2272   0.858E-03    0.694E-03
DAV:   9    -0.136846970941E+04    0.11399E-05   -0.80844E-06  1728   0.586E-03    0.341E-03
DAV:  10    -0.136846970950E+04   -0.90193E-07   -0.14649E-06  1008   0.448E-03
 294 F= -.13684697E+04 E0= -.13684697E+04  d E =-.413873E-02
       N       E                     dE             d eps       ncg     rms          rms(c)
DAV:   1    -0.136847055919E+04   -0.84978E-03   -0.22251E-01  1360   0.656E-01    0.726E-02
DAV:   2    -0.136847169402E+04   -0.11348E-02   -0.11955E-02  2280   0.259E-01    0.378E-02
DAV:   3    -0.136847176482E+04   -0.70798E-04   -0.96065E-04  2568   0.502E-02    0.304E-02
DAV:   4    -0.136847175393E+04    0.10891E-04   -0.79886E-05  2536   0.210E-02    0.226E-02
DAV:   5    -0.136847173997E+04    0.13956E-04   -0.42681E-05  2320   0.138E-02    0.979E-03
DAV:   6    -0.136847174028E+04   -0.30926E-06   -0.34538E-05  2216   0.108E-02    0.706E-03
DAV:   7    -0.136847174040E+04   -0.11633E-06   -0.14658E-05  2136   0.751E-03    0.549E-03
DAV:   8    -0.136847173999E+04    0.40968E-06   -0.19398E-06  1008   0.479E-03
 295 F= -.13684717E+04 E0= -.13684717E+04  d E =-.203049E-02
       N       E                     dE             d eps       ncg     rms          rms(c)
DAV:   1    -0.136846748563E+04    0.42548E-02   -0.32659E-01  1368   0.795E-01    0.894E-02
DAV:   2    -0.136846915969E+04   -0.16741E-02   -0.17665E-02  2288   0.314E-01    0.450E-02
DAV:   3    -0.136846926330E+04   -0.10360E-03   -0.14071E-03  2560   0.605E-02    0.360E-02
DAV:   4    -0.136846924602E+04    0.17278E-04   -0.11444E-04  2552   0.252E-02    0.266E-02
DAV:   5    -0.136846922409E+04    0.21925E-04   -0.67425E-05  2296   0.172E-02    0.104E-02
DAV:   6    -0.136846922593E+04   -0.18320E-05   -0.51682E-05  2320   0.127E-02    0.899E-03
DAV:   7    -0.136846922583E+04    0.99579E-07   -0.15487E-05  2184   0.780E-03    0.671E-03
DAV:   8    -0.136846922528E+04    0.55005E-06   -0.30372E-06  1120   0.502E-03
 296 F= -.13684692E+04 E0= -.13684692E+04  d E =0.251471E-02
       N       E                     dE             d eps       ncg     rms          rms(c)
DAV:   1    -0.136847005806E+04   -0.83224E-03   -0.14494E-01  1368   0.532E-01    0.601E-02
DAV:   2    -0.136847080394E+04   -0.74588E-03   -0.78843E-03  2288   0.212E-01    0.303E-02
DAV:   3    -0.136847085002E+04   -0.46079E-04   -0.62725E-04  2552   0.405E-02    0.244E-02
DAV:   4    -0.136847084238E+04    0.76350E-05   -0.51204E-05  2432   0.170E-02    0.182E-02
DAV:   5    -0.136847083199E+04    0.10392E-04   -0.31418E-05  2208   0.120E-02    0.706E-03
DAV:   6    -0.136847083292E+04   -0.93271E-06   -0.24651E-05  2248   0.900E-03    0.633E-03
DAV:   7    -0.136847083251E+04    0.41389E-06   -0.40978E-06  1256   0.550E-03
 297 F= -.13684708E+04 E0= -.13684708E+04  d E =-.160723E-02
       N       E                     dE             d eps       ncg     rms          rms(c)
DAV:   1    -0.136847100847E+04   -0.17555E-03   -0.19232E-03  1424   0.638E-02    0.105E-02
DAV:   2    -0.136847101941E+04   -0.10938E-04   -0.12419E-04  2360   0.268E-02    0.577E-03
DAV:   3    -0.136847101948E+04   -0.74258E-07   -0.78843E-06  1648   0.645E-03
 298 F= -.13684710E+04 E0= -.13684710E+04  d E =-.186972E-03
       N       E                     dE             d eps       ncg     rms          rms(c)
DAV:   1    -0.136847105527E+04   -0.35860E-04   -0.64580E-05  1728   0.122E-02    0.228E-03
DAV:   2    -0.136847105543E+04   -0.16429E-06   -0.25992E-06  1104   0.532E-03
 299 F= -.13684711E+04 E0= -.13684711E+04  d E =-.359500E-04
       N       E                     dE             d eps       ncg     rms          rms(c)
DAV:   1    -0.136847136772E+04   -0.31245E-03   -0.33905E-03  1616   0.861E-02    0.128E-02
DAV:   2    -0.136847139030E+04   -0.22579E-04   -0.25611E-04  2560   0.396E-02    0.710E-03
DAV:   3    -0.136847139102E+04   -0.71964E-06   -0.14795E-05  2016   0.101E-02    0.546E-03
DAV:   4    -0.136847139053E+04    0.48862E-06   -0.15929E-06  1016   0.499E-03
 300 F= -.13684714E+04 E0= -.13684714E+04  d E =-.335096E-03
