unknown system                          
           1
    12.965200    0.000000    0.000000
     0.000000   12.965000    0.000000
     0.000000    0.000000   12.965000
   O    La   Zr   Li   Al
  96  24  16  50   2
Direct configuration=     1
   0.09760012  0.19629952  0.27607923
   0.89502161  0.81075982  0.71311762
   0.39535694  0.81895697  0.76694076
   0.60403857  0.20439204  0.20322192
   0.90581765  0.69515467  0.22094810
   0.10086796  0.30880788  0.77972937
   0.59987876  0.30643364  0.72198344
   0.40381789  0.69539479  0.28750265
   0.28140471  0.09812178  0.20043239
   0.71392167  0.90582456  0.80225106
   0.78325498  0.40521566  0.80884506
   0.21634595  0.59843202  0.20806763
   0.21303055  0.90881351  0.69726238
   0.77846314  0.09787302  0.30137603
   0.71393189  0.60160283  0.30083727
   0.28633568  0.39994571  0.69313217
   0.19356289  0.28175357  0.09987495
   0.80370473  0.71508934  0.89358906
   0.80029972  0.78551466  0.40004230
   0.19844011  0.20407959  0.60032978
   0.70218716  0.22247203  0.90890743
   0.30298949  0.77467492  0.10062782
   0.30558011  0.71416615  0.60115333
   0.68523280  0.27314035  0.39507667
   0.95020667  0.35074472  0.96664320
   0.04833931  0.65343121  0.03750071
   0.54578079  0.64893185  0.47077424
   0.44706746  0.34413729  0.53132840
   0.44553697  0.14211064  0.03190593
   0.55933387  0.84328378  0.97286763
   0.05005588  0.84914860  0.53234412
   0.93720847  0.14258049  0.46226840
   0.84783876  0.53653692  0.04796574
   0.15131798  0.47169500  0.94696631
   0.14982229  0.03468194  0.45138601
   0.84066606  0.97222691  0.55410360
   0.65083685  0.46091561  0.55282544
   0.34528601  0.52928606  0.45355023
   0.35756456  0.97685591  0.93101819
   0.65521969  0.02971834  0.04857846
   0.02430490  0.44606875  0.14990783
   0.96690607  0.54569804  0.84394231
   0.54508932  0.05323141  0.84594752
   0.47310086  0.94813786  0.14622110
   0.96610796  0.94182093  0.34722676
   0.02132898  0.05219402  0.64748311
   0.46759228  0.54277862  0.65398730
   0.52937506  0.44143406  0.35245183
   0.59749392  0.69925547  0.77833240
   0.39945809  0.30607148  0.22334742
   0.90227198  0.30774339  0.27888096
   0.09692727  0.70863647  0.72228685
   0.40576070  0.20181453  0.72293853
   0.60004940  0.79830167  0.28535014
   0.10479310  0.80210285  0.21347391
   0.89823905  0.19848544  0.78630330
   0.77298900  0.60233075  0.69285685
   0.21824948  0.39944779  0.30838958
   0.27193235  0.89653437  0.31893605
   0.70441231  0.09847022  0.70976917
   0.72051547  0.40321476  0.19477650
   0.27486144  0.60300721  0.80092206
   0.22089539  0.10094404  0.80814653
   0.77597134  0.90075537  0.19705780
   0.69481475  0.78382958  0.59237303
   0.29682626  0.21396709  0.40659495
   0.29930574  0.27942783  0.90336539
   0.70570726  0.71354087  0.09861047
   0.19549035  0.71331252  0.40175929
   0.80067183  0.26677072  0.60496312
   0.80892074  0.21570372  0.09981946
   0.19610753  0.78764679  0.90341144
   0.43867459  0.85883913  0.48275973
   0.55188640  0.15385284  0.53419414
   0.05317396  0.14751621  0.97492758
   0.93761318  0.84980612  0.03756431
   0.93667917  0.64739505  0.52124704
   0.05583537  0.34668786  0.46793855
   0.56017377  0.35000910  0.03413491
   0.45564867  0.65232878  0.97026372
   0.34535890  0.04885831  0.54650069
   0.64509101  0.96891482  0.43979320
   0.65090045  0.53810219  0.94461685
   0.35383965  0.48299480  0.06239610
   0.15244784  0.96584967  0.04832716
   0.84930557  0.03068912  0.94444307
   0.84334333  0.46978173  0.44428333
   0.14296703  0.52318102  0.56379439
   0.54642358  0.95549462  0.64861140
   0.47510883  0.06228515  0.34476011
   0.03555651  0.54367755  0.34922767
   0.95660696  0.43060799  0.64184643
   0.47577967  0.43595383  0.85723094
   0.53905599  0.54843140  0.15662845
   0.96683104  0.04585559  0.15251357
   0.02452148  0.93503138  0.84993279
   0.13035942  0.00041393  0.24656795
   0.87985708  0.00162764  0.75150624
   0.37238129  0.00159609  0.75117815
   0.62391365  0.00190826  0.24478842
   0.87735110  0.49484765  0.25526055
   0.12542373  0.50105153  0.74857686
   0.62010554  0.50186510  0.75119226
   0.37915259  0.49562457  0.24745784
   0.25111513  0.12276034  0.99983020
   0.75031201  0.87113187  0.00020074
   0.75283678  0.37971430  0.00152798
   0.25590699  0.62269931  0.99352936
   0.24722281  0.87136006  0.50316874
   0.75083103  0.13167736  0.49370153
   0.74856219  0.62180684  0.49964530
   0.24716926  0.37766694  0.50076808
   0.00170937  0.25124302  0.12465781
   0.99696696  0.74941578  0.87143875
   0.00319934  0.74901367  0.37937317
   0.99525156  0.24744026  0.61594516
   0.49735083  0.25549334  0.88544580
   0.49337698  0.75466306  0.12274770
   0.49759596  0.74891626  0.62969649
   0.50073155  0.25131314  0.36750766
   0.00153128  0.99808470  0.99836421
   0.49916168  0.00763867  0.49150724
   0.99603213  0.49707007  0.49973901
   0.50044097  0.50079169  0.00214584
   0.75580659  0.25004703  0.25130277
   0.24819773  0.75339798  0.75323062
   0.74780909  0.75021473  0.74350080
   0.24668230  0.24945117  0.24584839
   0.25282119  0.25241224  0.75656024
   0.75249089  0.74996697  0.25006704
   0.25429856  0.75171949  0.25256382
   0.75065419  0.25623106  0.75701109
   0.49821748  0.49691767  0.50119329
   0.00275881  0.49941699  0.00018726
   0.50315271  0.99220883  0.99672089
   0.99196181  0.99828886  0.50024447
   0.35235905  0.00817099  0.29874406
   0.06997488  0.87858262  0.68059861
   0.91871857  0.91051594  0.19025726
   0.70883511  0.40622599  0.42770694
   0.64915463  0.82155774  0.43240096
   0.32770907  0.56910508  0.63434876
   0.37533988  0.66902699  0.43442953
   0.60131531  0.68080773  0.92116393
   0.55894634  0.17074487  0.67871474
   0.16774427  0.94266959  0.84914640
   0.80856690  0.40480587  0.57748041
   0.15460706  0.05365882  0.68950471
   0.81590955  0.93165788  0.35802581
   0.41549854  0.20130045  0.57743534
   0.60527677  0.31626773  0.57353329
   0.82240628  0.56265976  0.86118557
   0.12448469  0.32874436  0.92916006
   0.41979010  0.08529869  0.16790001
   0.82159685  0.06813250  0.12016169
   0.56257787  0.65221570  0.32515277
   0.18120226  0.56711323  0.35368580
   0.07403723  0.38092670  0.32802571
   0.07469482  0.62557140  0.18607058
   0.67890394  0.57425962  0.13840624
   0.58233183  0.36563734  0.17278637
   0.43458329  0.36000027  0.67707209
   0.15156039  0.82242213  0.06715635
   0.88105959  0.67293416  0.07868277
   0.69015253  0.92623592  0.57386959
   0.86028042  0.17929232  0.94169165
   0.70553193  0.07935505  0.91663080
   0.93155637  0.37459976  0.82202450
   0.28673559  0.87258294  0.99076873
   0.62998293  0.49158238  0.27121973
   0.66310605  0.17658691  0.06439617
   0.47401730  0.76840422  0.87177870
   0.36921417  0.49495297  0.78726508
   0.15647064  0.46566159  0.19392203
   0.92125702  0.08114959  0.30047346
   0.02871822  0.19874690  0.84596350
   0.88889357  0.52610814  0.71509414
   0.27277719  0.37585401  0.01395972
   0.20412582  0.64355517  0.52639549
   0.48364270  0.24808460  0.11830493
   0.83680328  0.82837798  0.54578865
   0.46942685  0.81016376  0.35229116
   0.00122457  0.76360262  0.12773672
   0.99315514  0.24116286  0.37832551
   0.74805249  0.62759034  0.99313663
   0.99109568  0.73114442  0.62441645
   0.62497483  0.99501596  0.75291522
   0.24135930  0.12573985  0.49507094
Direct configuration=     2
   0.09760052  0.19602840  0.27611544
   0.89496000  0.81077651  0.71285937
   0.39537539  0.81894751  0.76683481
   0.60378197  0.20453205  0.20362238
   0.90578372  0.69504311  0.22091158
   0.10076752  0.30873553  0.77974957
   0.59984236  0.30630913  0.72192303
   0.40382489  0.69543581  0.28753581
   0.28139659  0.09809813  0.20027963
   0.71418097  0.90569283  0.80224130
   0.78329255  0.40509533  0.80881349
   0.21634844  0.59831609  0.20775345
   0.21295958  0.90875652  0.69721252
   0.77846318  0.09794859  0.30128160
   0.71393034  0.60173143  0.30100896
   0.28627143  0.39988595  0.69310177
   0.19348741  0.28192515  0.10000147
   0.80383017  0.71520212  0.89366121
   0.80052315  0.78549573  0.40000440
   0.19831886  0.20411743  0.60035904
   0.70193560  0.22254592  0.90870076
   0.30296610  0.77460280  0.10059171
   0.30549506  0.71413417  0.60104922
   0.68530545  0.27305858  0.39506539
   0.95007644  0.35075831  0.96680267
   0.04821842  0.65350624  0.03742213
   0.54593159  0.64885701  0.47087420
   0.44705229  0.34412353  0.53135936
   0.44564176  0.14210149  0.03191153
   0.55945655  0.84323833  0.97277507
   0.04988463  0.84917760  0.53234729
   0.93725518  0.14272827  0.46226840
   0.84777455  0.53655510  0.04797957
   0.15123206  0.47159799  0.94701337
   0.14985159  0.03459358  0.45144439
   0.84074993  0.97216075  0.55377516
   0.65087388  0.46085739  0.55286369
   0.34541475  0.52921658  0.45338440
   0.35754546  0.97683945  0.93106812
   0.65512667  0.02974308  0.04881516
   0.02453550  0.44645614  0.15007384
   0.96695900  0.54585870  0.84400268
   0.54507765  0.05315929  0.84582749
   0.47315880  0.94787948  0.14617892
   0.96628746  0.94198309  0.34706218
   0.02122158  0.05235237  0.64746009
   0.46753649  0.54277596  0.65395537
   0.52945189  0.44133063  0.35246236
   0.59749763  0.69930484  0.77838340
   0.39931033  0.30597365  0.22350057
   0.90237857  0.30769958  0.27873251
   0.09694314  0.70859374  0.72229677
   0.40567225  0.20178961  0.72293393
   0.60012901  0.79853839  0.28542300
   0.10480874  0.80224041  0.21351583
   0.89826531  0.19849458  0.78637649
   0.77293822  0.60225179  0.69315825
   0.21820396  0.39953478  0.30828747
   0.27204619  0.89641104  0.31890573
   0.70454365  0.09842625  0.70954231
   0.72052210  0.40331681  0.19492229
   0.27481415  0.60296055  0.80089109
   0.22083339  0.10089863  0.80806421
   0.77602747  0.90080626  0.19712401
   0.69488105  0.78365139  0.59247121
   0.29672845  0.21387463  0.40670627
   0.29921149  0.27934509  0.90336011
   0.70570387  0.71358127  0.09864841
   0.19535425  0.71320399  0.40170515
   0.80070245  0.26682240  0.60492089
   0.80876329  0.21599138  0.09968092
   0.19620040  0.78767229  0.90335278
   0.43863193  0.85876581  0.48279206
   0.55187769  0.15386158  0.53411629
   0.05335075  0.14755420  0.97483925
   0.93760451  0.84990759  0.03758700
   0.93660801  0.64738109  0.52146024
   0.05589180  0.34687319  0.46787724
   0.56010560  0.34999148  0.03418964
   0.45547988  0.65227957  0.97028059
   0.34536315  0.04887687  0.54666625
   0.64527562  0.96882938  0.43996420
   0.65083525  0.53811989  0.94458613
   0.35377621  0.48283973  0.06244714
   0.15238672  0.96575824  0.04823493
   0.84923840  0.03090132  0.94457729
   0.84337017  0.46969428  0.44434237
   0.14296912  0.52321989  0.56378136
   0.54663696  0.95557660  0.64876906
   0.47510706  0.06207873  0.34479348
   0.03530711  0.54395971  0.34939330
   0.95655416  0.43061116  0.64195640
   0.47573989  0.43593419  0.85721259
   0.53907621  0.54838399  0.15659619
   0.96676400  0.04617576  0.15230340
   0.02442573  0.93506524  0.84983411
   0.13042410  0.00034128  0.24659437
   0.87982599  0.00167030  0.75151884
   0.37243140  0.00158236  0.75107597
   0.62392885  0.00192256  0.24480281
   0.87724832  0.49490387  0.25534519
   0.12546598  0.50103274  0.74867501
   0.62008003  0.50183591  0.75120212
   0.37920260  0.49563148  0.24763906
   0.25112382  0.12273325  0.99980531
   0.75037128  0.87115428  0.00033375
   0.75278370  0.37963245  0.00156663
   0.25600300  0.62268865  0.99353511
   0.24724425  0.87134346  0.50308290
   0.75079183  0.13172510  0.49368357
   0.74853232  0.62184585  0.49967074
   0.24716178  0.37769536  0.50073883
   0.00180976  0.25119120  0.12473606
   0.99703973  0.74936614  0.87148704
   0.00309502  0.74895668  0.37933907
   0.99526034  0.24749242  0.61585711
   0.49744825  0.25545986  0.88533935
   0.49345665  0.75461568  0.12279533
   0.49767023  0.74891896  0.62959105
   0.50070654  0.25120069  0.36758023
   0.00154615  0.99812418  0.99843896
   0.49926296  0.00751299  0.49158565
   0.99595125  0.49715022  0.49985249
   0.50040947  0.50066877  0.00217184
   0.75576430  0.25005809  0.25130981
   0.24829078  0.75337766  0.75313467
   0.74775749  0.75007438  0.74349880
   0.24668805  0.24937345  0.24607388
   0.25285547  0.25239186  0.75654279
   0.75257086  0.75007130  0.25010096
   0.25417865  0.75158417  0.25257988
   0.75054701  0.25626909  0.75697718
   0.49827027  0.49682430  0.50116830
   0.00266804  0.49946129  0.00025501
   0.50314338  0.99215388  0.99671532
   0.99200718  0.99830059  0.50007470
   0.35259443  0.00788835  0.29827248
   0.06988491  0.87858262  0.68063836
   0.91868087  0.91098655  0.19049026
   0.70894310  0.40608727  0.42776510
   0.64934222  0.82162949  0.43215004
   0.32761289  0.56910671  0.63408075
   0.37514119  0.66908921  0.43451724
   0.60119604  0.68062772  0.92106918
   0.55886933  0.17058937  0.67861000
   0.16776942  0.94246103  0.84923341
   0.80866095  0.40492033  0.57776996
   0.15457794  0.05361729  0.68938630
   0.81598264  0.93170957  0.35864078
   0.41538162  0.20123389  0.57740926
   0.60529678  0.31623447  0.57359808
   0.82242502  0.56262619  0.86122380
   0.12431081  0.32860934  0.92909773
   0.41979202  0.08579566  0.16774693
   0.82142761  0.06848687  0.11994767
   0.56244805  0.65257074  0.32550384
   0.18084520  0.56682144  0.35372980
   0.07404723  0.38177944  0.32782621
   0.07450118  0.62475930  0.18599704
   0.67897721  0.57419953  0.13835443
   0.58242932  0.36554280  0.17289489
   0.43465182  0.35996372  0.67704316
   0.15153733  0.82227637  0.06717245
   0.88115040  0.67294995  0.07860414
   0.69064692  0.92618585  0.57386349
   0.86034527  0.17948747  0.94166842
   0.70549496  0.07970832  0.91726303
   0.93163661  0.37415532  0.82201954
   0.28679888  0.87256407  0.99088291
   0.62982224  0.49184945  0.27125668
   0.66273883  0.17645820  0.06441842
   0.47410669  0.76849657  0.87168312
   0.36928272  0.49501633  0.78708110
   0.15732576  0.46502114  0.19270274
   0.92118241  0.08115642  0.30042408
   0.02892725  0.19829380  0.84573641
   0.88900766  0.52624423  0.71518836
   0.27274594  0.37576273  0.01383183
   0.20376981  0.64376420  0.52649762
   0.48331416  0.24835796  0.11820803
   0.83717752  0.82836057  0.54640395
   0.46916258  0.81053911  0.35209883
   0.00118760  0.76363981  0.12791487
   0.99341199  0.24134299  0.37833124
   0.74799283  0.62763076  0.99314177
   0.99133411  0.73102711  0.62440791
   0.62469847  0.99512107  0.75274415
   0.24148360  0.12574660  0.49507321
Direct configuration=     3
   0.09763450  0.19583173  0.27613459
   0.89492292  0.81076295  0.71267718
   0.39541503  0.81895790  0.76674844
   0.60361985  0.20462122  0.20381212
   0.90575752  0.69497412  0.22089635
   0.10073191  0.30869266  0.77976076
   0.59977417  0.30624153  0.72188184
   0.40383726  0.69546116  0.28757562
   0.28141467  0.09808433  0.20019264
   0.71411462  0.90582880  0.80212511
   0.78329685  0.40503639  0.80880738
   0.21635834  0.59824710  0.20758519
   0.21294439  0.90871599  0.69716633
   0.77845226  0.09798488  0.30121343
   0.71391686  0.60182074  0.30112683
   0.28625054  0.39985689  0.69307003
   0.19345417  0.28203924  0.10014619
   0.80391298  0.71524789  0.89372475
   0.80066868  0.78549680  0.40002091
   0.19828532  0.20411597  0.60031228
   0.70172819  0.22259434  0.90863041
   0.30295260  0.77455323  0.10060614
   0.30545900  0.71411469  0.60096057
   0.68533760  0.27301400  0.39507407
   0.94998625  0.35077970  0.96692489
   0.04813597  0.65356163  0.03738514
   0.54602416  0.64880805  0.47095783
   0.44704050  0.34409859  0.53137813
   0.44572812  0.14211252  0.03190349
   0.55950405  0.84323972  0.97273583
   0.04979269  0.84917695  0.53232455
   0.93728409  0.14280455  0.46225051
   0.84771316  0.53655095  0.04799659
   0.15118019  0.47154127  0.94705504
   0.14994586  0.03456309  0.45148458
   0.84078232  0.97212012  0.55353640
   0.65088672  0.46081770  0.55289934
   0.34550329  0.52916368  0.45327497
   0.35755906  0.97684104  0.93108339
   0.65506505  0.02979294  0.04897629
   0.02467509  0.44673182  0.15020085
   0.96699387  0.54595857  0.84404888
   0.54499427  0.05316574  0.84584012
   0.47316330  0.94778148  0.14616240
   0.96638327  0.94208910  0.34693048
   0.02115220  0.05244151  0.64739833
   0.46749734  0.54277033  0.65393154
   0.52948747  0.44125106  0.35247379
   0.59744528  0.69931519  0.77839261
   0.39922262  0.30590596  0.22360713
   0.90241260  0.30767152  0.27863344
   0.09698801  0.70856281  0.72229945
   0.40566083  0.20175929  0.72291661
   0.60015444  0.79868499  0.28549127
   0.10482486  0.80234379  0.21355873
   0.89823198  0.19853033  0.78642312
   0.77290849  0.60212718  0.69332235
   0.21818988  0.39958141  0.30823152
   0.27213637  0.89634039  0.31889752
   0.70455278  0.09836484  0.70939202
   0.72050958  0.40337879  0.19501275
   0.27479754  0.60293423  0.80086392
   0.22082455  0.10086474  0.80800624
   0.77605058  0.90084712  0.19717252
   0.69489966  0.78356304  0.59247724
   0.29672477  0.21388331  0.40670444
   0.29917393  0.27928341  0.90337606
   0.70569193  0.71360231  0.09870075
   0.19527369  0.71313453  0.40167242
   0.80069735  0.26685562  0.60490473
   0.80860653  0.21615345  0.09959560
   0.19627163  0.78768626  0.90330215
   0.43862248  0.85874537  0.48282504
   0.55184763  0.15383537  0.53406519
   0.05348006  0.14758575  0.97480915
   0.93761404  0.84997609  0.03763198
   0.93655127  0.64737776  0.52159449
   0.05594486  0.34700150  0.46780825
   0.56006762  0.34995297  0.03423408
   0.45539007  0.65223371  0.97029284
   0.34542281  0.04887317  0.54677270
   0.64534471  0.96879728  0.44006815
   0.65078370  0.53811658  0.94456791
   0.35375863  0.48273134  0.06248966
   0.15237149  0.96570099  0.04819156
   0.84919536  0.03104245  0.94469086
   0.84337542  0.46965172  0.44438609
   0.14299429  0.52324539  0.56377239
   0.54657844  0.95554885  0.64862082
   0.47511102  0.06192471  0.34485720
   0.03513599  0.54415899  0.34950736
   0.95652599  0.43063078  0.64201383
   0.47571996  0.43589730  0.85719218
   0.53908443  0.54835549  0.15658044
   0.96672004  0.04639095  0.15221373
   0.02437476  0.93508813  0.84980385
   0.13045644  0.00030027  0.24659637
   0.87977693  0.00168149  0.75154487
   0.37237218  0.00157180  0.75105427
   0.62395537  0.00190436  0.24481190
   0.87717786  0.49492878  0.25539446
   0.12546979  0.50100834  0.74874702
   0.62007053  0.50183129  0.75120766
   0.37923523  0.49565249  0.24772552
   0.25108959  0.12271872  0.99977506
   0.75043209  0.87115839  0.00033726
   0.75278977  0.37961150  0.00158965
   0.25606058  0.62268334  0.99353653
   0.24722041  0.87134711  0.50304826
   0.75082874  0.13177116  0.49371097
   0.74852624  0.62185044  0.49968231
   0.24711695  0.37772423  0.50075421
   0.00187101  0.25117008  0.12477127
   0.99705622  0.74936100  0.87149346
   0.00302374  0.74890442  0.37931713
   0.99525715  0.24749739  0.61581899
   0.49748714  0.25544199  0.88527360
   0.49349897  0.75457045  0.12278610
   0.49773337  0.74888274  0.62954940
   0.50072374  0.25114016  0.36761719
   0.00152462  0.99814971  0.99840309
   0.49934597  0.00745746  0.49160390
   0.99589431  0.49718068  0.49995474
   0.50034392  0.50064394  0.00220706
   0.75578750  0.25011379  0.25132192
   0.24827824  0.75335530  0.75311167
   0.74780996  0.75011395  0.74360745
   0.24660742  0.24932474  0.24614531
   0.25278306  0.25237030  0.75653224
   0.75263118  0.75010986  0.25008746
   0.25409015  0.75145484  0.25251607
   0.75059488  0.25622540  0.75689611
   0.49832362  0.49677874  0.50116794
   0.00262434  0.49947181  0.00025971
   0.50312537  0.99205340  0.99671205
   0.99203968  0.99838343  0.50006630
   0.35275886  0.00767144  0.29792611
   0.06981088  0.87858538  0.68066897
   0.91865549  0.91130317  0.19063996
   0.70902555  0.40600077  0.42781645
   0.64947069  0.82167936  0.43200332
   0.32754901  0.56910225  0.63389572
   0.37500110  0.66912166  0.43457392
   0.60110990  0.68051785  0.92102000
   0.55882945  0.17050667  0.67853502
   0.16776975  0.94232077  0.84929049
   0.80872181  0.40499685  0.57796355
   0.15454610  0.05358827  0.68931168
   0.81602765  0.93173384  0.35906814
   0.41531084  0.20119330  0.57739862
   0.60531790  0.31621319  0.57363220
   0.82244030  0.56261080  0.86125192
   0.12417799  0.32851660  0.92905814
   0.41982601  0.08608358  0.16765130
   0.82133469  0.06871507  0.11978198
   0.56237237  0.65282392  0.32572336
   0.18062225  0.56663236  0.35370397
   0.07403355  0.38238178  0.32769331
   0.07436406  0.62416932  0.18594697
   0.67902741  0.57416521  0.13832149
   0.58249588  0.36548736  0.17298280
   0.43468400  0.35993890  0.67702707
   0.15151802  0.82218360  0.06717544
   0.88120922  0.67296246  0.07854187
   0.69098167  0.92614101  0.57386978
   0.86041748  0.17961885  0.94163474
   0.70549908  0.07987409  0.91762247
   0.93169488  0.37383890  0.82201592
   0.28682856  0.87254393  0.99095731
   0.62972720  0.49202641  0.27127719
   0.66246812  0.17642963  0.06448577
   0.47416954  0.76855193  0.87162618
   0.36932960  0.49506809  0.78695100
   0.15793782  0.46455562  0.19182654
   0.92115340  0.08119452  0.30038672
   0.02908285  0.19796685  0.84555576
   0.88909907  0.52633528  0.71525959
   0.27271695  0.37570334  0.01373628
   0.20350523  0.64390882  0.52657576
   0.48309951  0.24855783  0.11815047
   0.83746961  0.82830981  0.54683243
   0.46897971  0.81080210  0.35195219
   0.00116457  0.76366570  0.12803480
   0.99358436  0.24146252  0.37832198
   0.74796213  0.62767296  0.99313488
   0.99147565  0.73096528  0.62441375
   0.62511073  0.99504485  0.75291021
   0.24141380  0.12566301  0.49518135
Direct configuration=     4
   0.09771944  0.19473375  0.27621462
   0.89470033  0.81077574  0.71176632
   0.39553020  0.81894334  0.76632532
   0.60286548  0.20511162  0.20475434
   0.90560954  0.69459511  0.22077856
   0.10043755  0.30843624  0.77982575
   0.59955647  0.30586270  0.72166374
   0.40389816  0.69558642  0.28773950
   0.28148637  0.09800742  0.19968008
   0.71461041  0.90575591  0.80195068
   0.78337877  0.40464015  0.80876598
   0.21637101  0.59781954  0.20665464
   0.21274442  0.90848790  0.69694259
   0.77842316  0.09822704  0.30086312
   0.71383926  0.60230442  0.30174417
   0.28606568  0.39967718  0.69293465
   0.19317458  0.28275041  0.10079972
   0.80437396  0.71558464  0.89402635
   0.80145763  0.78547344  0.40009973
   0.19796541  0.20416337  0.60022763
   0.70069948  0.22283544  0.90818850
   0.30288882  0.77427130  0.10059270
   0.30522065  0.71400349  0.60052216
   0.68559033  0.27278457  0.39516370
   0.94954035  0.35088089  0.96756236
   0.04767639  0.65386386  0.03715189
   0.54655406  0.64850295  0.47141663
   0.44698337  0.34400406  0.53149087
   0.44616906  0.14214863  0.03184002
   0.55984183  0.84314473  0.97251173
   0.04926649  0.84923412  0.53225263
   0.93748099  0.14326726  0.46218316
   0.84740403  0.53656567  0.04807719
   0.15090072  0.47122176  0.94729226
   0.15021461  0.03426909  0.45169016
   0.84099036  0.97191889  0.55234490
   0.65101051  0.46060213  0.55311257
   0.34596378  0.52886117  0.45268173
   0.35754308  0.97680472  0.93122402
   0.65482430  0.02998468  0.04978490
   0.02542241  0.44826618  0.15085848
   0.96718267  0.54652083  0.84430247
   0.54494775  0.05296849  0.84564878
   0.47311551  0.94727094  0.14610088
   0.96687885  0.94271586  0.34632906
   0.02075582  0.05294872  0.64723324
   0.46727579  0.54272435  0.65383551
   0.52969231  0.44084098  0.35252253
   0.59735568  0.69944177  0.77849996
   0.39872634  0.30558068  0.22415717
   0.90266132  0.30755383  0.27810819
   0.09710656  0.70839211  0.72233178
   0.40546345  0.20163308  0.72285139
   0.60031678  0.79942502  0.28581827
   0.10488360  0.80291428  0.21375002
   0.89818955  0.19864614  0.78669170
   0.77274828  0.60175137  0.69431642
   0.21804915  0.39988038  0.30788806
   0.27259298  0.89587650  0.31879909
   0.70488280  0.09816443  0.70856165
   0.72046686  0.40375442  0.19549757
   0.27467251  0.60278138  0.80075919
   0.22064528  0.10070342  0.80769747
   0.77618185  0.90100167  0.19734314
   0.69515940  0.78309012  0.59270933
   0.29653600  0.21375958  0.40692461
   0.29887754  0.27893492  0.90341506
   0.70563237  0.71373206  0.09888759
   0.19481195  0.71273679  0.40145631
   0.80075038  0.26705186  0.60481528
   0.80777733  0.21700419  0.09912905
   0.19658937  0.78775688  0.90307816
   0.43850675  0.85855058  0.48294221
   0.55177217  0.15379522  0.53378733
   0.05415151  0.14776583  0.97460047
   0.93765427  0.85036010  0.03781710
   0.93625067  0.64735382  0.52237145
   0.05616674  0.34767823  0.46745741
   0.55987239  0.34983355  0.03448942
   0.45490695  0.65204790  0.97034313
   0.34556543  0.04891448  0.54735308
   0.64587760  0.96865408  0.44052779
   0.65054054  0.53815911  0.94448812
   0.35358474  0.48217040  0.06270516
   0.15220507  0.96538620  0.04789484
   0.84894562  0.03175550  0.94519062
   0.84341642  0.46941196  0.44464008
   0.14307980  0.52337777  0.56379610
   0.54690366  0.95562486  0.64871545
   0.47514154  0.06112679  0.34504365
   0.03416262  0.54523674  0.35016342
   0.95639786  0.43066942  0.64237382
   0.47559161  0.43576746  0.85712879
   0.53913097  0.54825135  0.15647292
   0.96649037  0.04757567  0.15165586
   0.02403449  0.93522073  0.84956151
   0.13070064  0.00004398  0.24662276
   0.87966084  0.00182579  0.75160015
   0.37236976  0.00150870  0.75080694
   0.62406307  0.00183636  0.24493876
   0.87676609  0.49509525  0.25567938
   0.12557657  0.50089427  0.74907446
   0.61997269  0.50173533  0.75122788
   0.37946033  0.49567971  0.24830198
   0.25103418  0.12261826  0.99966617
   0.75067941  0.87124118  0.00061731
   0.75268875  0.37946050  0.00167989
   0.25639144  0.62264397  0.99353995
   0.24726766  0.87133092  0.50281086
   0.75084958  0.13197464  0.49371431
   0.74843291  0.62191429  0.49976267
   0.24700740  0.37782797  0.50073517
   0.00216253  0.25103974  0.12502056
   0.99725498  0.74925484  0.87159308
   0.00266266  0.74864257  0.37918447
   0.99527797  0.24762135  0.61550099
   0.49771920  0.25526959  0.88491479
   0.49371580  0.75433517  0.12284860
   0.49801691  0.74882843  0.62924438
   0.50072709  0.25076280  0.36780250
   0.00152534  0.99832746  0.99845586
   0.49969931  0.00706000  0.49189834
   0.99562110  0.49741149  0.50042024
   0.50007636  0.50032071  0.00234863
   0.75572271  0.25031784  0.25139424
   0.24847992  0.75327294  0.75286457
   0.74781345  0.74987820  0.74385512
   0.24641242  0.24905112  0.24675071
   0.25269141  0.25224443  0.75647069
   0.75292224  0.75039077  0.25015348
   0.25363257  0.75083956  0.25236315
   0.75044906  0.25617861  0.75664478
   0.49854653  0.49649050  0.50114297
   0.00237421  0.49956734  0.00035173
   0.50295607  0.99176921  0.99666680
   0.99226185  0.99866495  0.49974331
   0.35371369  0.00644729  0.29599162
   0.06944540  0.87859151  0.68079837
   0.91850477  0.91304999  0.19148294
   0.70946234  0.40554437  0.42812461
   0.65014845  0.82197841  0.43126324
   0.32721486  0.56908162  0.63284328
   0.37421221  0.66930511  0.43489136
   0.60060195  0.67989441  0.92075862
   0.55858367  0.16997953  0.67814188
   0.16779398  0.94155240  0.84960547
   0.80901371  0.40544657  0.57902119
   0.15440071  0.05340281  0.68892389
   0.81626378  0.93184534  0.36143494
   0.41493734  0.20094838  0.57732079
   0.60539747  0.31609144  0.57380563
   0.82249767  0.56248899  0.86138723
   0.12343410  0.32800364  0.92886314
   0.42008028  0.08762113  0.16714466
   0.82083116  0.06995276  0.11886905
   0.56196261  0.65425121  0.32691744
   0.17945373  0.56560981  0.35346801
   0.07395977  0.38577549  0.32695201
   0.07359079  0.62082938  0.18569203
   0.67928372  0.57396288  0.13814255
   0.58283366  0.36516694  0.17347331
   0.43485137  0.35977319  0.67694035
   0.15139209  0.82170145  0.06719997
   0.88154522  0.67300979  0.07821831
   0.69267422  0.92589414  0.57381960
   0.86081048  0.18037874  0.94146405
   0.70550265  0.08080308  0.91961549
   0.93198594  0.37209846  0.82201069
   0.28699427  0.87246399  0.99135780
   0.62920111  0.49297462  0.27140893
   0.66089784  0.17639845  0.06493621
   0.47448492  0.76885711  0.87127157
   0.36962791  0.49535113  0.78621336
   0.16137344  0.46191244  0.18692892
   0.92101499  0.08143701  0.30016749
   0.02998827  0.19612114  0.84453732
   0.88960445  0.52682619  0.71566130
   0.27257761  0.37536839  0.01319501
   0.20203683  0.64473683  0.52700102
   0.48192972  0.24966586  0.11784877
   0.83912302  0.82794132  0.54914378
   0.46793350  0.81229659  0.35116283
   0.00106863  0.76379723  0.12874117
   0.99454831  0.24211938  0.37822611
   0.74776105  0.62787273  0.99311724
   0.99224595  0.73062244  0.62440800
   0.62521940  0.99519864  0.75290156
   0.24157273  0.12547090  0.49549473
Direct configuration=     5
   0.09776795  0.19412880  0.27619866
   0.89464591  0.81078924  0.71138184
   0.39555772  0.81893585  0.76613841
   0.60260197  0.20535053  0.20501701
   0.90551024  0.69441051  0.22073640
   0.10030971  0.30829706  0.77985291
   0.59945664  0.30569473  0.72154729
   0.40392203  0.69562923  0.28780960
   0.28158045  0.09800391  0.19940457
   0.71475098  0.90583331  0.80187674
   0.78340948  0.40444729  0.80877526
   0.21637920  0.59756182  0.20626391
   0.21265884  0.90838697  0.69683608
   0.77839939  0.09838957  0.30072469
   0.71377551  0.60253905  0.30203789
   0.28596512  0.39955739  0.69289683
   0.19301353  0.28323908  0.10112977
   0.80460054  0.71572478  0.89417556
   0.80179775  0.78543646  0.40015493
   0.19781487  0.20417050  0.60022412
   0.70020575  0.22295616  0.90800563
   0.30286964  0.77413355  0.10055354
   0.30512870  0.71395845  0.60031518
   0.68569757  0.27272354  0.39525142
   0.94935825  0.35093791  0.96788835
   0.04744334  0.65398924  0.03705071
   0.54683761  0.64834347  0.47170656
   0.44696132  0.34393594  0.53154873