       N       E                     dE             d eps       ncg     rms          rms(c)
DAV:   1     0.252020173078E+05    0.25202E+05   -0.42248E+05  1592   0.253E+03
DAV:   2     0.936956619690E+04   -0.15832E+05   -0.14560E+05  1424   0.706E+02
DAV:   3     0.265210838655E+04   -0.67175E+04   -0.61215E+04  1496   0.358E+02
DAV:   4    -0.393153695843E+03   -0.30453E+04   -0.28492E+04  2048   0.223E+02
DAV:   5    -0.143402369934E+04   -0.10409E+04   -0.10047E+04  2528   0.139E+02    0.117E+02
DAV:   6    -0.131455340617E+04    0.11947E+03   -0.14371E+03  2440   0.654E+01    0.504E+01
DAV:   7    -0.133665416638E+04   -0.22101E+02   -0.37253E+02  2552   0.332E+01    0.243E+01
DAV:   8    -0.134713455884E+04   -0.10480E+02   -0.26850E+02  2536   0.267E+01    0.270E+01
DAV:   9    -0.133885178231E+04    0.82828E+01   -0.62793E+01  2472   0.151E+01    0.752E+00
DAV:  10    -0.134016404693E+04   -0.13123E+01   -0.15309E+01  2592   0.851E+00    0.840E+00
DAV:  11    -0.134022254348E+04   -0.58497E-01   -0.78427E+00  2624   0.465E+00    0.419E+00
DAV:  12    -0.134009681077E+04    0.12573E+00   -0.26400E+00  2592   0.371E+00    0.278E+00
DAV:  13    -0.134018521634E+04   -0.88406E-01   -0.99105E-01  2592   0.178E+00    0.225E+00
DAV:  14    -0.134015687536E+04    0.28341E-01   -0.38626E-01  2592   0.123E+00    0.112E+00
DAV:  15    -0.134016875424E+04   -0.11879E-01   -0.11944E-01  2568   0.667E-01    0.990E-01
DAV:  16    -0.134016615350E+04    0.26007E-02   -0.43135E-02  2608   0.407E-01    0.633E-01
DAV:  17    -0.134016475154E+04    0.14020E-02   -0.25993E-02  2536   0.305E-01    0.294E-01
DAV:  18    -0.134016511160E+04   -0.36006E-03   -0.48135E-03  2576   0.151E-01    0.180E-01
DAV:  19    -0.134016499864E+04    0.11296E-03   -0.32378E-03  2464   0.103E-01    0.130E-01
DAV:  20    -0.134016505852E+04   -0.59879E-04   -0.74831E-04  2608   0.550E-02    0.355E-02
DAV:  21    -0.134016506384E+04   -0.53170E-05   -0.24652E-04  2600   0.307E-02    0.383E-02
DAV:  22    -0.134016508141E+04   -0.17567E-04   -0.83839E-05  2432   0.183E-02    0.143E-02
DAV:  23    -0.134016508000E+04    0.14025E-05   -0.34582E-05  2088   0.106E-02    0.993E-03
DAV:  24    -0.134016508400E+04   -0.39919E-05   -0.15294E-05  1792   0.912E-03    0.324E-03
DAV:  25    -0.134016508484E+04   -0.84823E-06   -0.39089E-06  1040   0.489E-03
   1 F= -.13401651E+04 E0= -.13401651E+04  d E =-.134017E+04
       N       E                     dE             d eps       ncg     rms          rms(c)
DAV:   1    -0.133044111547E+04    0.97240E+01   -0.42423E+03  1624   0.977E+01    0.186E+01
DAV:   2    -0.135847180828E+04   -0.28031E+02   -0.33244E+02  2576   0.430E+01    0.964E+00
DAV:   3    -0.135809973864E+04    0.37207E+00   -0.20487E+01  2584   0.114E+01    0.679E+00
DAV:   4    -0.135715234852E+04    0.94739E+00   -0.50590E+00  2528   0.465E+00    0.345E+00
DAV:   5    -0.135689581734E+04    0.25653E+00   -0.14341E+00  2464   0.300E+00    0.203E+00
DAV:   6    -0.135687058709E+04    0.25230E-01   -0.15834E+00  2520   0.245E+00    0.101E+00
DAV:   7    -0.135688960120E+04   -0.19014E-01   -0.38729E-01  2408   0.129E+00    0.932E-01
DAV:   8    -0.135688660743E+04    0.29938E-02   -0.11883E-01  2608   0.584E-01    0.460E-01
DAV:   9    -0.135688703980E+04   -0.43237E-03   -0.27677E-02  2624   0.359E-01    0.251E-01
DAV:  10    -0.135688633502E+04    0.70478E-03   -0.63734E-03  2512   0.226E-01    0.158E-01
DAV:  11    -0.135688688511E+04   -0.55010E-03   -0.11099E-02  2576   0.179E-01    0.132E-01
DAV:  12    -0.135688673472E+04    0.15040E-03   -0.24622E-03  2552   0.105E-01    0.395E-02
DAV:  13    -0.135688680104E+04   -0.66322E-04   -0.67629E-04  2600   0.523E-02    0.254E-02
DAV:  14    -0.135688680853E+04   -0.74902E-05   -0.11528E-04  2624   0.232E-02    0.194E-02
DAV:  15    -0.135688680581E+04    0.27237E-05   -0.69485E-05  2472   0.159E-02    0.984E-03
DAV:  16    -0.135688680740E+04   -0.15916E-05   -0.17427E-05  2200   0.927E-03    0.681E-03
DAV:  17    -0.135688680705E+04    0.34468E-06   -0.35255E-06  1168   0.564E-03
   2 F= -.13568868E+04 E0= -.13568868E+04  d E =-.167217E+02
       N       E                     dE             d eps       ncg     rms          rms(c)
DAV:   1    -0.135041861530E+04    0.64682E+01   -0.15178E+03  1384   0.522E+01    0.100E+01
DAV:   2    -0.136111298246E+04   -0.10694E+02   -0.12801E+02  2488   0.243E+01    0.997E+00
DAV:   3    -0.136150290888E+04   -0.38993E+00   -0.90453E+00  2560   0.678E+00    0.787E+00
DAV:   4    -0.136120499097E+04    0.29792E+00   -0.22973E+00  2496   0.308E+00    0.498E+00
DAV:   5    -0.136107711407E+04    0.12788E+00   -0.11058E+00  2112   0.246E+00    0.276E+00
DAV:   6    -0.136100949502E+04    0.67619E-01   -0.11299E+00  2504   0.189E+00    0.145E+00
DAV:   7    -0.136101506051E+04   -0.55655E-02   -0.28815E-01  2504   0.104E+00    0.913E-01
DAV:   8    -0.136101401243E+04    0.10481E-02   -0.42640E-02  2624   0.415E-01    0.747E-01
DAV:   9    -0.136101209110E+04    0.19213E-02   -0.28040E-02  2472   0.304E-01    0.613E-01
DAV:  10    -0.136100741640E+04    0.46747E-02   -0.19184E-02  2296   0.274E-01    0.350E-01
DAV:  11    -0.136100716187E+04    0.25454E-03   -0.15016E-02  2392   0.208E-01    0.117E-01
DAV:  12    -0.136100717668E+04   -0.14816E-04   -0.14842E-03  2608   0.853E-02    0.718E-02
DAV:  13    -0.136100719558E+04   -0.18893E-04   -0.40638E-04  2520   0.390E-02    0.406E-02
DAV:  14    -0.136100718715E+04    0.84322E-05   -0.11320E-04  2544   0.239E-02    0.203E-02
DAV:  15    -0.136100719053E+04   -0.33821E-05   -0.66590E-05  2432   0.149E-02    0.986E-03
DAV:  16    -0.136100718959E+04    0.94222E-06   -0.96690E-06  1632   0.777E-03
   3 F= -.13610072E+04 E0= -.13610072E+04  d E =-.412038E+01
       N       E                     dE             d eps       ncg     rms          rms(c)
DAV:   1    -0.136192770675E+04   -0.92052E+00   -0.34168E+02  1400   0.267E+01    0.513E+00
DAV:   2    -0.136362269932E+04   -0.16950E+01   -0.19319E+01  2296   0.102E+01    0.217E+00
DAV:   3    -0.136370060566E+04   -0.77906E-01   -0.17268E+00  2584   0.242E+00    0.189E+00
DAV:   4    -0.136365434258E+04    0.46263E-01   -0.30527E-01  2624   0.119E+00    0.106E+00
DAV:   5    -0.136364252453E+04    0.11818E-01   -0.16858E-01  2216   0.763E-01    0.622E-01
DAV:   6    -0.136364131937E+04    0.12052E-02   -0.62284E-02  2560   0.511E-01    0.463E-01
DAV:   7    -0.136364008188E+04    0.12375E-02   -0.44684E-02  2448   0.371E-01    0.246E-01
DAV:   8    -0.136363989058E+04    0.19130E-03   -0.79342E-03  2584   0.185E-01    0.135E-01
DAV:   9    -0.136363988280E+04    0.77758E-05   -0.22861E-03  2616   0.937E-02    0.813E-02
DAV:  10    -0.136363997074E+04   -0.87932E-04   -0.10619E-03  2304   0.596E-02    0.723E-02
DAV:  11    -0.136363990630E+04    0.64437E-04   -0.75641E-04  2360   0.523E-02    0.269E-02
DAV:  12    -0.136363993142E+04   -0.25120E-04   -0.40441E-04  2456   0.365E-02    0.343E-02
DAV:  13    -0.136363991765E+04    0.13769E-04   -0.87688E-05  2472   0.198E-02    0.188E-02
DAV:  14    -0.136363991724E+04    0.41364E-06   -0.52555E-05  2280   0.119E-02    0.500E-03
DAV:  15    -0.136363991789E+04   -0.65108E-06   -0.71566E-06  1584   0.630E-03
   4 F= -.13636399E+04 E0= -.13636399E+04  d E =-.263273E+01
       N       E                     dE             d eps       ncg     rms          rms(c)
DAV:   1    -0.136420496988E+04   -0.56505E+00   -0.16093E+02  1360   0.184E+01    0.266E+00
DAV:   2    -0.136498015778E+04   -0.77519E+00   -0.82732E+00  2288   0.687E+00    0.124E+00
DAV:   3    -0.136502167505E+04   -0.41517E-01   -0.66903E-01  2592   0.142E+00    0.105E+00
DAV:   4    -0.136500794415E+04    0.13731E-01   -0.91518E-02  2616   0.659E-01    0.654E-01
DAV:   5    -0.136500137796E+04    0.65662E-02   -0.49425E-02  2232   0.438E-01    0.288E-01
DAV:   6    -0.136500281328E+04   -0.14353E-02   -0.22406E-02  2600   0.298E-01    0.291E-01
DAV:   7    -0.136500202711E+04    0.78617E-03   -0.12754E-02  2456   0.204E-01    0.169E-01
DAV:   8    -0.136500190701E+04    0.12009E-03   -0.43684E-03  2568   0.127E-01    0.837E-02
DAV:   9    -0.136500190120E+04    0.58166E-05   -0.63318E-04  2560   0.553E-02    0.574E-02
DAV:  10    -0.136500192211E+04   -0.20917E-04   -0.44887E-04  2320   0.364E-02    0.368E-02
DAV:  11    -0.136500190782E+04    0.14294E-04   -0.13479E-04  2528   0.272E-02    0.167E-02
DAV:  12    -0.136500191537E+04   -0.75468E-05   -0.11787E-04  2456   0.188E-02    0.203E-02
DAV:  13    -0.136500190982E+04    0.55420E-05   -0.37117E-05  2136   0.121E-02    0.792E-03
DAV:  14    -0.136500191024E+04   -0.41552E-06   -0.91389E-06  1776   0.687E-03
   5 F= -.13650019E+04 E0= -.13650019E+04  d E =-.136199E+01
       N       E                     dE             d eps       ncg     rms          rms(c)
DAV:   1    -0.136543779573E+04   -0.43589E+00   -0.79810E+01  1368   0.130E+01    0.160E+00
DAV:   2    -0.136584448306E+04   -0.40669E+00   -0.43527E+00  2280   0.506E+00    0.801E-01
DAV:   3    -0.136587050514E+04   -0.26022E-01   -0.36641E-01  2576   0.104E+00    0.685E-01
DAV:   4    -0.136586580656E+04    0.46986E-02   -0.38039E-02  2592   0.459E-01    0.494E-01
DAV:   5    -0.136586095616E+04    0.48504E-02   -0.24824E-02  2272   0.299E-01    0.218E-01
DAV:   6    -0.136586150664E+04   -0.55048E-03   -0.14915E-02  2360   0.246E-01    0.221E-01
DAV:   7    -0.136586116234E+04    0.34430E-03   -0.10159E-02  2360   0.183E-01    0.146E-01
DAV:   8    -0.136586111562E+04    0.46715E-04   -0.41333E-03  2528   0.121E-01    0.858E-02
DAV:   9    -0.136586107361E+04    0.42011E-04   -0.64170E-04  2544   0.553E-02    0.570E-02
DAV:  10    -0.136586106736E+04    0.62545E-05   -0.32567E-04  2600   0.313E-02    0.260E-02
DAV:  11    -0.136586107742E+04   -0.10064E-04   -0.79852E-05  2456   0.212E-02    0.202E-02
DAV:  12    -0.136586107262E+04    0.48018E-05   -0.40355E-05  2400   0.155E-02    0.157E-02
DAV:  13    -0.136586107137E+04    0.12528E-05   -0.43738E-05  2280   0.114E-02    0.845E-03
DAV:  14    -0.136586107108E+04    0.28577E-06   -0.10704E-05  1760   0.644E-03    0.324E-03
DAV:  15    -0.136586107121E+04   -0.12688E-06   -0.13659E-06   984   0.406E-03
   6 F= -.13658611E+04 E0= -.13658611E+04  d E =-.859161E+00
       N       E                     dE             d eps       ncg     rms          rms(c)
DAV:   1    -0.136620071767E+04   -0.33965E+00   -0.94894E+01  1384   0.140E+01    0.170E+00
DAV:   2    -0.136669133883E+04   -0.49062E+00   -0.51832E+00  2312   0.552E+00    0.857E-01
DAV:   3    -0.136671996644E+04   -0.28628E-01   -0.40780E-01  2568   0.107E+00    0.699E-01
DAV:   4    -0.136671380580E+04    0.61606E-02   -0.43715E-02  2616   0.489E-01    0.484E-01
DAV:   5    -0.136670845210E+04    0.53537E-02   -0.23168E-02  2352   0.317E-01    0.205E-01
DAV:   6    -0.136670912768E+04   -0.67558E-03   -0.16034E-02  2424   0.254E-01    0.186E-01
DAV:   7    -0.136670900626E+04    0.12142E-03   -0.82196E-03  2400   0.167E-01    0.141E-01
DAV:   8    -0.136670892676E+04    0.79503E-04   -0.31682E-03  2576   0.106E-01    0.742E-02
DAV:   9    -0.136670888412E+04    0.42639E-04   -0.62400E-04  2512   0.522E-02    0.490E-02
DAV:  10    -0.136670889090E+04   -0.67769E-05   -0.35960E-04  2568   0.336E-02    0.295E-02
DAV:  11    -0.136670889222E+04   -0.13214E-05   -0.12790E-04  2496   0.246E-02    0.195E-02
DAV:  12    -0.136670889060E+04    0.16202E-05   -0.53854E-05  2336   0.170E-02    0.180E-02
DAV:  13    -0.136670888764E+04    0.29551E-05   -0.48932E-05  2112   0.121E-02    0.831E-03
DAV:  14    -0.136670888773E+04   -0.83193E-07   -0.13954E-05  1760   0.720E-03    0.308E-03
DAV:  15    -0.136670888798E+04   -0.25395E-06   -0.15524E-06   992   0.425E-03
   7 F= -.13667089E+04 E0= -.13667089E+04  d E =-.847817E+00
       N       E                     dE             d eps       ncg     rms          rms(c)
DAV:   1    -0.136699033438E+04   -0.28145E+00   -0.72438E+01  1384   0.121E+01    0.149E+00
DAV:   2    -0.136736972298E+04   -0.37939E+00   -0.40157E+00  2304   0.486E+00    0.738E-01
DAV:   3    -0.136739186749E+04   -0.22145E-01   -0.31492E-01  2576   0.920E-01    0.604E-01
DAV:   4    -0.136738716397E+04    0.47035E-02   -0.32954E-02  2616   0.422E-01    0.416E-01
DAV:   5    -0.136738319143E+04    0.39725E-02   -0.17528E-02  2328   0.271E-01    0.169E-01
DAV:   6    -0.136738377807E+04   -0.58665E-03   -0.10940E-02  2440   0.201E-01    0.153E-01
DAV:   7    -0.136738368041E+04    0.97666E-04   -0.49823E-03  2440   0.131E-01    0.111E-01
DAV:   8    -0.136738362816E+04    0.52247E-04   -0.20647E-03  2584   0.858E-02    0.586E-02
DAV:   9    -0.136738360557E+04    0.22584E-04   -0.39499E-04  2480   0.414E-02    0.397E-02
DAV:  10    -0.136738360936E+04   -0.37899E-05   -0.20198E-04  2544   0.257E-02    0.228E-02
DAV:  11    -0.136738361013E+04   -0.77087E-06   -0.64590E-05  2440   0.179E-02    0.143E-02
DAV:  12    -0.136738361014E+04   -0.88912E-08   -0.33711E-05  2320   0.125E-02    0.133E-02
DAV:  13    -0.136738360850E+04    0.16415E-05   -0.23004E-05  1976   0.872E-03    0.629E-03
DAV:  14    -0.136738360833E+04    0.16826E-06   -0.54424E-06  1376   0.577E-03
   8 F= -.13673836E+04 E0= -.13673836E+04  d E =-.674720E+00
       N       E                     dE             d eps       ncg     rms          rms(c)
DAV:   1    -0.136764798579E+04   -0.26438E+00   -0.52299E+01  1384   0.103E+01    0.128E+00
DAV:   2    -0.136792041270E+04   -0.27243E+00   -0.28860E+00  2304   0.414E+00    0.628E-01
DAV:   3    -0.136793578395E+04   -0.15371E-01   -0.22540E-01  2576   0.777E-01    0.509E-01
DAV:   4    -0.136793180852E+04    0.39754E-02   -0.23892E-02  2608   0.362E-01    0.338E-01
DAV:   5    -0.136792884438E+04    0.29641E-02   -0.12226E-02  2296   0.246E-01    0.130E-01
DAV:   6    -0.136792937519E+04   -0.53081E-03   -0.87084E-03  2496   0.181E-01    0.127E-01
DAV:   7    -0.136792932590E+04    0.49289E-04   -0.29483E-03  2448   0.103E-01    0.966E-02
DAV:   8    -0.136792927489E+04    0.51015E-04   -0.12748E-03  2584   0.655E-02    0.439E-02
DAV:   9    -0.136792925588E+04    0.19014E-04   -0.25419E-04  2312   0.345E-02    0.298E-02
DAV:  10    -0.136792925996E+04   -0.40803E-05   -0.11629E-04  2344   0.210E-02    0.196E-02
DAV:  11    -0.136792925780E+04    0.21603E-05   -0.33687E-05  2368   0.134E-02    0.102E-02
DAV:  12    -0.136792925941E+04   -0.16182E-05   -0.27345E-05  2176   0.974E-03    0.104E-02
DAV:  13    -0.136792925812E+04    0.12969E-05   -0.92366E-06  1696   0.677E-03    0.498E-03
DAV:  14    -0.136792925807E+04    0.45096E-07   -0.32199E-06  1144   0.522E-03
   9 F= -.13679293E+04 E0= -.13679293E+04  d E =-.545650E+00
       N       E                     dE             d eps       ncg     rms          rms(c)
DAV:   1    -0.136816691076E+04   -0.23765E+00   -0.46670E+01  1392   0.976E+00    0.119E+00
DAV:   2    -0.136842044560E+04   -0.25353E+00   -0.26925E+00  2312   0.402E+00    0.593E-01
DAV:   3    -0.136843517546E+04   -0.14730E-01   -0.21189E-01  2568   0.753E-01    0.479E-01
DAV:   4    -0.136843173013E+04    0.34453E-02   -0.21706E-02  2616   0.346E-01    0.331E-01
DAV:   5    -0.136842885632E+04    0.28738E-02   -0.11420E-02  2336   0.220E-01    0.128E-01
DAV:   6    -0.136842921388E+04   -0.35755E-03   -0.71522E-03  2448   0.158E-01    0.112E-01
DAV:   7    -0.136842920358E+04    0.10300E-04   -0.28579E-03  2440   0.989E-02    0.831E-02
DAV:   8    -0.136842917084E+04    0.32740E-04   -0.10879E-03  2616   0.639E-02    0.430E-02
DAV:   9    -0.136842915670E+04    0.14131E-04   -0.23212E-04  2344   0.320E-02    0.291E-02
DAV:  10    -0.136842916243E+04   -0.57283E-05   -0.13549E-04  2384   0.211E-02    0.180E-02
DAV:  11    -0.136842916102E+04    0.14132E-05   -0.41004E-05  2400   0.149E-02    0.998E-03
DAV:  12    -0.136842916244E+04   -0.14193E-05   -0.25703E-05  2232   0.101E-02    0.107E-02
DAV:  13    -0.136842916095E+04    0.14935E-05   -0.10560E-05  1728   0.691E-03    0.508E-03
DAV:  14    -0.136842916094E+04    0.85420E-08   -0.56639E-06  1440   0.540E-03
  10 F= -.13684292E+04 E0= -.13684292E+04  d E =-.499903E+00
       N       E                     dE             d eps       ncg     rms          rms(c)
DAV:   1    -0.136868513965E+04   -0.25598E+00   -0.27480E+01  1384   0.748E+00    0.906E-01
DAV:   2    -0.136883397085E+04   -0.14883E+00   -0.15798E+00  2312   0.308E+00    0.449E-01
DAV:   3    -0.136884269405E+04   -0.87232E-02   -0.12472E-01  2576   0.577E-01    0.365E-01
DAV:   4    -0.136884074230E+04    0.19518E-02   -0.12285E-02  2608   0.262E-01    0.253E-01
DAV:   5    -0.136883896423E+04    0.17781E-02   -0.62972E-03  2328   0.171E-01    0.951E-02
DAV:   6    -0.136883919428E+04   -0.23006E-03   -0.43984E-03  2432   0.123E-01    0.848E-02
DAV:   7    -0.136883918745E+04    0.68302E-05   -0.14405E-03  2456   0.717E-02    0.643E-02
DAV:   8    -0.136883916827E+04    0.19184E-04   -0.60129E-04  2576   0.464E-02    0.314E-02
DAV:   9    -0.136883915969E+04    0.85770E-05   -0.13256E-04  2248   0.244E-02    0.212E-02
DAV:  10    -0.136883916240E+04   -0.27093E-05   -0.54609E-05  2432   0.147E-02    0.134E-02
DAV:  11    -0.136883916141E+04    0.99539E-06   -0.16039E-05  2120   0.943E-03    0.669E-03
DAV:  12    -0.136883916207E+04   -0.65957E-06   -0.10697E-05  1776   0.687E-03    0.621E-03
DAV:  13    -0.136883916153E+04    0.54145E-06   -0.16036E-06   992   0.476E-03
  11 F= -.13688392E+04 E0= -.13688392E+04  d E =-.410001E+00
       N       E                     dE             d eps       ncg     rms          rms(c)
DAV:   1    -0.136908169233E+04   -0.24253E+00   -0.22327E+01  1384   0.676E+00    0.813E-01
DAV:   2    -0.136920351118E+04   -0.12182E+00   -0.12925E+00  2304   0.278E+00    0.406E-01
DAV:   3    -0.136921059636E+04   -0.70852E-02   -0.10215E-01  2576   0.525E-01    0.326E-01
DAV:   4    -0.136920883160E+04    0.17648E-02   -0.10257E-02  2600   0.239E-01    0.222E-01
DAV:   5    -0.136920743172E+04    0.13999E-02   -0.52818E-03  2304   0.150E-01    0.823E-02
DAV:   6    -0.136920761988E+04   -0.18816E-03   -0.32604E-03  2464   0.103E-01    0.726E-02
DAV:   7    -0.136920761278E+04    0.71051E-05   -0.10589E-03  2472   0.617E-02    0.527E-02
DAV:   8    -0.136920760098E+04    0.11799E-04   -0.43608E-04  2600   0.397E-02    0.266E-02
DAV:   9    -0.136920759632E+04    0.46554E-05   -0.87708E-05  2304   0.204E-02    0.186E-02
DAV:  10    -0.136920759810E+04   -0.17787E-05   -0.43665E-05  2416   0.129E-02    0.105E-02
DAV:  11    -0.136920759753E+04    0.56613E-06   -0.94766E-06  1688   0.822E-03
  12 F= -.13692076E+04 E0= -.13692076E+04  d E =-.368436E+00
       N       E                     dE             d eps       ncg     rms          rms(c)
DAV:   1    -0.136945376123E+04   -0.24616E+00   -0.21737E+01  1384   0.663E+00    0.779E-01
DAV:   2    -0.136957090809E+04   -0.11715E+00   -0.12411E+00  2296   0.271E+00    0.390E-01
DAV:   3    -0.136957784787E+04   -0.69398E-02   -0.98620E-02  2568   0.510E-01    0.313E-01
DAV:   4    -0.136957626605E+04    0.15818E-02   -0.93695E-03  2576   0.230E-01    0.217E-01
DAV:   5    -0.136957486750E+04    0.13986E-02   -0.49043E-03  2288   0.144E-01    0.788E-02
DAV:   6    -0.136957502850E+04   -0.16101E-03   -0.30770E-03  2416   0.101E-01    0.690E-02
DAV:   7    -0.136957502823E+04    0.27477E-06   -0.10307E-03  2464   0.593E-02    0.499E-02
DAV:   8    -0.136957501863E+04    0.95962E-05   -0.39290E-04  2560   0.380E-02    0.257E-02
DAV:   9    -0.136957501431E+04    0.43213E-05   -0.84677E-05  2264   0.200E-02    0.182E-02
DAV:  10    -0.136957501553E+04   -0.12155E-05   -0.40098E-05  2384   0.124E-02    0.100E-02
DAV:  11    -0.136957501508E+04    0.44584E-06   -0.91742E-06  1728   0.795E-03
  13 F= -.13695750E+04 E0= -.13695750E+04  d E =-.367418E+00
       N       E                     dE             d eps       ncg     rms          rms(c)
DAV:   1    -0.136981976435E+04   -0.24475E+00   -0.23301E+01  1368   0.682E+00    0.796E-01
DAV:   2    -0.136994336988E+04   -0.12361E+00   -0.13075E+00  2320   0.275E+00    0.400E-01
DAV:   3    -0.136994999936E+04   -0.66295E-02   -0.98255E-02  2568   0.527E-01    0.316E-01
DAV:   4    -0.136994811670E+04    0.18827E-02   -0.10191E-02  2568   0.233E-01    0.205E-01
DAV:   5    -0.136994693964E+04    0.11771E-02   -0.52372E-03  2312   0.145E-01    0.742E-02
DAV:   6    -0.136994713036E+04   -0.19072E-03   -0.26802E-03  2528   0.928E-02    0.663E-02
DAV:   7    -0.136994712082E+04    0.95457E-05   -0.80892E-04  2560   0.555E-02    0.447E-02
DAV:   8    -0.136994711693E+04    0.38848E-05   -0.32459E-04  2560   0.344E-02    0.235E-02
DAV:   9    -0.136994711579E+04    0.11417E-05   -0.55938E-05  2512   0.174E-02    0.178E-02
DAV:  10    -0.136994711640E+04   -0.61083E-06   -0.37696E-05  2512   0.116E-02    0.854E-03
DAV:  11    -0.136994711609E+04    0.31505E-06   -0.68497E-06  1472   0.736E-03
  14 F= -.13699471E+04 E0= -.13699471E+04  d E =-.372101E+00
       N       E                     dE             d eps       ncg     rms          rms(c)
DAV:   1    -0.137018800209E+04   -0.24089E+00   -0.28626E+01  1376   0.758E+00    0.875E-01
DAV:   2    -0.137033905574E+04   -0.15105E+00   -0.15943E+00  2320   0.304E+00    0.443E-01
DAV:   3    -0.137034706232E+04   -0.80066E-02   -0.11906E-01  2560   0.580E-01    0.346E-01
DAV:   4    -0.137034465027E+04    0.24121E-02   -0.12429E-02  2552   0.256E-01    0.224E-01
DAV:   5    -0.137034322901E+04    0.14213E-02   -0.63790E-03  2312   0.160E-01    0.799E-02
DAV:   6    -0.137034345026E+04   -0.22125E-03   -0.31782E-03  2528   0.101E-01    0.694E-02
DAV:   7    -0.137034344480E+04    0.54659E-05   -0.92105E-04  2544   0.599E-02    0.472E-02
DAV:   8    -0.137034343794E+04    0.68582E-05   -0.35779E-04  2560   0.361E-02    0.247E-02
DAV:   9    -0.137034343714E+04    0.79624E-06   -0.68811E-05  2512   0.189E-02    0.181E-02
DAV:  10    -0.137034343742E+04   -0.27231E-06   -0.42251E-05  2568   0.127E-02    0.900E-03
DAV:  11    -0.137034343727E+04    0.15016E-06   -0.10235E-05  1776   0.797E-03    0.441E-03
DAV:  12    -0.137034343793E+04   -0.66719E-06   -0.82124E-06  1616   0.581E-03
  15 F= -.13703434E+04 E0= -.13703434E+04  d E =-.396322E+00
       N       E                     dE             d eps       ncg     rms          rms(c)
DAV:   1    -0.137057820083E+04   -0.23476E+00   -0.54493E+01  1368   0.103E+01    0.118E+00
DAV:   2    -0.137085870783E+04   -0.28051E+00   -0.29614E+00  2312   0.411E+00    0.600E-01
DAV:   3    -0.137087393927E+04   -0.15231E-01   -0.22322E-01  2568   0.794E-01    0.474E-01
DAV:   4    -0.137087001545E+04    0.39238E-02   -0.22521E-02  2560   0.340E-01    0.312E-01
DAV:   5    -0.137086723113E+04    0.27843E-02   -0.10805E-02  2312   0.209E-01    0.115E-01
DAV:   6    -0.137086757017E+04   -0.33904E-03   -0.57456E-03  2464   0.132E-01    0.953E-02
DAV:   7    -0.137086755191E+04    0.18257E-04   -0.18011E-03  2488   0.822E-02    0.640E-02
DAV:   8    -0.137086755124E+04    0.67170E-06   -0.81985E-04  2592   0.537E-02    0.373E-02
DAV:   9    -0.137086754708E+04    0.41588E-05   -0.15376E-04  2512   0.280E-02    0.289E-02
DAV:  10    -0.137086754509E+04    0.19969E-05   -0.90842E-05  2576   0.181E-02    0.128E-02
DAV:  11    -0.137086754574E+04   -0.65000E-06   -0.23889E-05  2240   0.107E-02    0.593E-03
DAV:  12    -0.137086754621E+04   -0.47441E-06   -0.83650E-06  1776   0.666E-03
  16 F= -.13708675E+04 E0= -.13708675E+04  d E =-.524108E+00
       N       E                     dE             d eps       ncg     rms          rms(c)
DAV:   1    -0.137104517416E+04   -0.17763E+00   -0.60081E+01  1376   0.109E+01    0.125E+00
DAV:   2    -0.137135233465E+04   -0.30716E+00   -0.32437E+00  2312   0.433E+00    0.635E-01
DAV:   3    -0.137136939241E+04   -0.17058E-01   -0.25001E-01  2568   0.827E-01    0.499E-01
DAV:   4    -0.137136491242E+04    0.44800E-02   -0.24504E-02  2576   0.359E-01    0.336E-01
DAV:   5    -0.137136153295E+04    0.33795E-02   -0.12416E-02  2296   0.223E-01    0.126E-01
DAV:   6    -0.137136186477E+04   -0.33182E-03   -0.69842E-03  2432   0.149E-01    0.104E-01
DAV:   7    -0.137136185158E+04    0.13189E-04   -0.23768E-03  2432   0.927E-02    0.719E-02
DAV:   8    -0.137136183869E+04    0.12893E-04   -0.97987E-04  2624   0.591E-02    0.406E-02
DAV:   9    -0.137136183240E+04    0.62861E-05   -0.20686E-04  2496   0.313E-02    0.304E-02
DAV:  10    -0.137136183114E+04    0.12584E-05   -0.10801E-04  2536   0.199E-02    0.158E-02
DAV:  11    -0.137136183133E+04   -0.18447E-06   -0.37317E-05  2392   0.131E-02    0.719E-03
DAV:  12    -0.137136183206E+04   -0.73537E-06   -0.14039E-05  1912   0.843E-03    0.687E-03
DAV:  13    -0.137136183147E+04    0.59731E-06   -0.22306E-06  1040   0.496E-03
  17 F= -.13713618E+04 E0= -.13713618E+04  d E =-.494285E+00
       N       E                     dE             d eps       ncg     rms          rms(c)
DAV:   1    -0.137151565380E+04   -0.15382E+00   -0.40882E+01  1368   0.900E+00    0.101E+00
DAV:   2    -0.137171847267E+04   -0.20282E+00   -0.21388E+00  2304   0.351E+00    0.515E-01
DAV:   3    -0.137172977531E+04   -0.11303E-01   -0.16489E-01  2584   0.674E-01    0.407E-01
DAV:   4    -0.137172710406E+04    0.26713E-02   -0.15358E-02  2584   0.284E-01    0.282E-01
DAV:   5    -0.137172460105E+04    0.25030E-02   -0.76118E-03  2312   0.183E-01    0.111E-01
DAV:   6    -0.137172472727E+04   -0.12623E-03   -0.52085E-03  2344   0.134E-01    0.881E-02
DAV:   7    -0.137172474453E+04   -0.17257E-04   -0.20487E-03  2408   0.837E-02    0.671E-02
DAV:   8    -0.137172472778E+04    0.16751E-04   -0.73010E-04  2568   0.508E-02    0.379E-02
DAV:   9    -0.137172471685E+04    0.10928E-04   -0.21808E-04  2472   0.296E-02    0.247E-02
DAV:  10    -0.137172471957E+04   -0.27159E-05   -0.86612E-05  2488   0.184E-02    0.180E-02
DAV:  11    -0.137172471718E+04    0.23875E-05   -0.37324E-05  2320   0.131E-02    0.816E-03
DAV:  12    -0.137172471781E+04   -0.63387E-06   -0.15418E-05  1856   0.877E-03    0.762E-03
DAV:  13    -0.137172471718E+04    0.63550E-06   -0.53817E-06  1360   0.570E-03
  18 F= -.13717247E+04 E0= -.13717247E+04  d E =-.362886E+00
       N       E                     dE             d eps       ncg     rms          rms(c)
DAV:   1    -0.137182081730E+04   -0.96099E-01   -0.54512E+01  1360   0.103E+01    0.116E+00
DAV:   2    -0.137208804278E+04   -0.26723E+00   -0.28177E+00  2304   0.399E+00    0.594E-01
DAV:   3    -0.137210260688E+04   -0.14564E-01   -0.21480E-01  2576   0.768E-01    0.469E-01
DAV:   4    -0.137209912602E+04    0.34809E-02   -0.20646E-02  2600   0.324E-01    0.324E-01
DAV:   5    -0.137209590680E+04    0.32192E-02   -0.10004E-02  2320   0.206E-01    0.130E-01
DAV:   6    -0.137209605307E+04   -0.14627E-03   -0.66171E-03  2376   0.146E-01    0.101E-01
DAV:   7    -0.137209605492E+04   -0.18555E-05   -0.25107E-03  2408   0.936E-02    0.755E-02
DAV:   8    -0.137209603657E+04    0.18347E-04   -0.10246E-03  2600   0.602E-02    0.450E-02
DAV:   9    -0.137209602306E+04    0.13511E-04   -0.27258E-04  2448   0.329E-02    0.299E-02
DAV:  10    -0.137209602457E+04   -0.15045E-05   -0.11440E-04  2464   0.204E-02    0.195E-02
DAV:  11    -0.137209602264E+04    0.19300E-05   -0.43641E-05  2384   0.142E-02    0.936E-03
DAV:  12    -0.137209602304E+04   -0.40521E-06   -0.19864E-05  2088   0.951E-03    0.832E-03
DAV:  13    -0.137209602244E+04    0.60657E-06   -0.78836E-06  1584   0.609E-03
  19 F= -.13720960E+04 E0= -.13720960E+04  d E =-.371305E+00
       N       E                     dE             d eps       ncg     rms          rms(c)
DAV:   1    -0.137213811240E+04   -0.42089E-01   -0.55743E+01  1360   0.105E+01    0.116E+00
DAV:   2    -0.137240860151E+04   -0.27049E+00   -0.28390E+00  2304   0.402E+00    0.595E-01
DAV:   3    -0.137242257235E+04   -0.13971E-01   -0.21063E-01  2568   0.767E-01    0.465E-01
DAV:   4    -0.137241894353E+04    0.36288E-02   -0.20384E-02  2592   0.322E-01    0.327E-01
DAV:   5    -0.137241537362E+04    0.35699E-02   -0.95777E-03  2336   0.214E-01    0.135E-01
DAV:   6    -0.137241537890E+04   -0.52778E-05   -0.76223E-03  2304   0.167E-01    0.954E-02
DAV:   7    -0.137241547970E+04   -0.10080E-03   -0.32534E-03  2408   0.105E-01    0.845E-02
DAV:   8    -0.137241544716E+04    0.32538E-04   -0.92251E-04  2584   0.576E-02    0.497E-02
DAV:   9    -0.137241541649E+04    0.30666E-04   -0.39863E-04  2488   0.382E-02    0.260E-02
DAV:  10    -0.137241542765E+04   -0.11162E-04   -0.16163E-04  2456   0.248E-02    0.238E-02
DAV:  11    -0.137241542075E+04    0.68998E-05   -0.57746E-05  2384   0.164E-02    0.104E-02
DAV:  12    -0.137241542202E+04   -0.12696E-05   -0.27923E-05  2184   0.106E-02    0.100E-02
DAV:  13    -0.137241542101E+04    0.10095E-05   -0.11655E-05  1696   0.690E-03    0.480E-03
DAV:  14    -0.137241542085E+04    0.16543E-06   -0.37761E-06  1224   0.540E-03
  20 F= -.13724154E+04 E0= -.13724154E+04  d E =-.319398E+00
