 vasp.5.4.4.18Apr17-6-g9f103f2a35 (build May 01 2020 14:22:42) gamma-only       
  
 executed on             LinuxIFC date 2022.02.25  05:06:06
 running on  160 total cores
 distrk:  each k-point on  160 cores,    1 groups
 distr:  one band on NCORES_PER_BAND=  20 cores,    8 groups


--------------------------------------------------------------------------------------------------------


 INCAR:
 POTCAR:    PAW_PBE O 08Apr2002                   
 POTCAR:    PAW_PBE La 06Sep2000                  
 POTCAR:    PAW_PBE Zr_sv 04Jan2005               
 POTCAR:    PAW_PBE Li 17Jan2003                  
 POTCAR:    PAW_PBE Al 04Jan2001                  
 POTCAR:    PAW_PBE O 08Apr2002                   
   VRHFIN =O: s2p4                                                              
   LEXCH  = PE                                                                  
   EATOM  =   432.3788 eV,   31.7789 Ry                                         
                                                                                
   TITEL  = PAW_PBE O 08Apr2002                                                 
   LULTRA =        F    use ultrasoft PP ?                                      
   IUNSCR =        1    unscreen: 0-lin 1-nonlin 2-no                           
   RPACOR =    1.200    partial core radius                                     
   POMASS =   16.000; ZVAL   =    6.000    mass and valenz                      
   RCORE  =    1.520    outmost cutoff radius                                   
   RWIGS  =    1.550; RWIGS  =    0.820    wigner-seitz radius (au A)           
   ENMAX  =  400.000; ENMIN  =  300.000 eV                                      
   ICORE  =        2    local potential                                         
   LCOR   =        T    correct aug charges                                     
   LPAW   =        T    paw PP                                                  
   EAUG   =  605.392                                                            
   DEXC   =    0.000                                                            
   RMAX   =    1.553    core radius for proj-oper                               
   RAUG   =    1.300    factor for augmentation sphere                          
   RDEP   =    1.550    radius for radial grids                                 
   RDEPT  =    1.329    core radius for aug-charge                              
                                                                                
   Atomic configuration                                                         
    4 entries                                                                   
     n  l   j            E        occ.                                          
     1  0  0.50      -514.6923   2.0000                                         
     2  0  0.50       -23.9615   2.0000                                         
     2  1  0.50        -9.0305   4.0000                                         
     3  2  1.50        -9.5241   0.0000                                         
   Description                                                                  
     l       E           TYP  RCUT    TYP  RCUT                                 
     0    -23.9615318     23  1.200                                             
     0     -9.5240782     23  1.200                                             
     1     -9.0304911     23  1.520                                             
     1      8.1634956     23  1.520                                             
     2     -9.5240782      7  1.500                                             
  local pseudopotential read in
  partial core-charges read in
  partial kinetic energy density read in
  kinetic energy density of atom read in
  atomic valenz-charges read in
  non local Contribution for L=           0  read in
    real space projection operators read in
  non local Contribution for L=           0  read in
    real space projection operators read in
  non local Contribution for L=           1  read in
    real space projection operators read in
  non local Contribution for L=           1  read in
    real space projection operators read in
    PAW grid and wavefunctions read in
 
   number of l-projection  operators is LMAX  =           4
   number of lm-projection operators is LMMAX =           8
 
 POTCAR:    PAW_PBE La 06Sep2000                  
   VRHFIN =La : [core=Kr4d]                                                     
   LEXCH  = PE                                                                  
   EATOM  =   865.9763 eV,   63.6475 Ry                                         
                                                                                
   TITEL  = PAW_PBE La 06Sep2000                                                
   LULTRA =        F    use ultrasoft PP ?                                      
   IUNSCR =        1    unscreen: 0-lin 1-nonlin 2-no                           
   RPACOR =    2.300    partial core radius                                     
   POMASS =  138.900; ZVAL   =   11.000    mass and valenz                      
   RCORE  =    2.800    outmost cutoff radius                                   
   RWIGS  =    2.900; RWIGS  =    1.535    wigner-seitz radius (au A)           
   ENMAX  =  219.292; ENMIN  =  164.469 eV                                      
   RCLOC  =    1.601    cutoff for local pot                                    
   LCOR   =        T    correct aug charges                                     
   LPAW   =        T    paw PP                                                  
   EAUG   =  583.575                                                            
   DEXC   =    0.000                                                            
   RMAX   =    2.853    core radius for proj-oper                               
   RAUG   =    1.300    factor for augmentation sphere                          
   RDEP   =    2.802    radius for radial grids                                 
   RDEPT  =    2.156    core radius for aug-charge                              
                                                                                
   Atomic configuration                                                         
   14 entries                                                                   
     n  l   j            E        occ.                                          
     1  0  0.50    -38741.0879   2.0000                                         
     2  0  0.50     -6166.6801   2.0000                                         
     2  1  1.50     -5526.1593   6.0000                                         
     3  0  0.50     -1319.0200   2.0000                                         
     3  1  1.50     -1114.5963   6.0000                                         
     3  2  2.50      -821.1793  10.0000                                         
     4  0  0.50      -266.3851   2.0000                                         
     4  1  1.50      -199.9276   6.0000                                         
     4  2  2.50      -103.8239  10.0000                                         
     5  0  0.50       -38.9172   2.0000                                         
     6  0  0.50        -3.6792   2.0000                                         
     5  1  1.50       -22.3948   6.0000                                         
     5  2  2.50        -3.0911   0.9999                                         
     4  3  2.50        -4.3603   0.0001                                         
   Description                                                                  
     l       E           TYP  RCUT    TYP  RCUT                                 
     0    -38.9171645     23  2.800                                             
     0     -3.6792381     23  2.800                                             
     1    -22.3948300     23  2.500                                             
     1     27.2116520     23  2.500                                             
     2     -3.0910934     23  2.500                                             
     2      1.0119135     23  2.500                                             
     3     -4.3602911     23  2.800                                             
     3     -5.7208737     23  2.800                                             
  local pseudopotential read in
  partial core-charges read in
  partial kinetic energy density read in
  atomic valenz-charges read in
  non local Contribution for L=           0  read in
    real space projection operators read in
  non local Contribution for L=           0  read in
    real space projection operators read in
  non local Contribution for L=           1  read in
    real space projection operators read in
  non local Contribution for L=           1  read in
    real space projection operators read in
  non local Contribution for L=           2  read in
    real space projection operators read in
  non local Contribution for L=           2  read in
    real space projection operators read in
  non local Contribution for L=           3  read in
    real space projection operators read in
  non local Contribution for L=           3  read in
    real space projection operators read in
    PAW grid and wavefunctions read in
 
   number of l-projection  operators is LMAX  =           8
   number of lm-projection operators is LMMAX =          32
 
 POTCAR:    PAW_PBE Zr_sv 04Jan2005               
   VRHFIN =Zr: 4s4p5s4d                                                         
   LEXCH  = PE                                                                  
   EATOM  =  1284.2219 eV,   94.3876 Ry                                         
                                                                                
   TITEL  = PAW_PBE Zr_sv 04Jan2005                                             
   LULTRA =        F    use ultrasoft PP ?                                      
   IUNSCR =        1    unscreen: 0-lin 1-nonlin 2-no                           
   RPACOR =    2.200    partial core radius                                     
   POMASS =   91.224; ZVAL   =   12.000    mass and valenz                      
   RCORE  =    2.500    outmost cutoff radius                                   
   RWIGS  =    3.070; RWIGS  =    1.625    wigner-seitz radius (au A)           
   ENMAX  =  229.898; ENMIN  =  172.424 eV                                      
   ICORE  =        3    local potential                                         
   LCOR   =        T    correct aug charges                                     
   LPAW   =        T    paw PP                                                  
   EAUG   =  461.257                                                            
   DEXC   =    0.000                                                            
   RMAX   =    2.561    core radius for proj-oper                               
   RAUG   =    1.300    factor for augmentation sphere                          
   RDEP   =    2.597    radius for radial grids                                 
   RDEPT  =    2.007    core radius for aug-charge                              
                                                                                
   Atomic configuration                                                         
   11 entries                                                                   
     n  l   j            E        occ.                                          
     1  0  0.50    -17820.0161   2.0000                                         
     2  0  0.50     -2467.0882   2.0000                                         
     2  1  1.50     -2199.6095   6.0000                                         
     3  0  0.50      -402.4863   2.0000                                         
     3  1  1.50      -315.3675   6.0000                                         
     3  2  2.50      -172.4472  10.0000                                         
     4  0  0.50       -52.4146   2.0000                                         
     5  0  0.50        -3.8421   1.0000                                         
     4  1  1.50       -30.5054   6.0000                                         
     4  2  2.50        -2.3341   3.0000                                         
     4  3  2.50        -1.3606   0.0000                                         
   Description                                                                  
     l       E           TYP  RCUT    TYP  RCUT                                 
     0    -52.4145962     23  2.200                                             
     0     -3.8421270     23  2.500                                             
     1    -30.5053914     23  2.200                                             
     1     20.4087390     23  2.200                                             
     2     -2.3340816     23  2.500                                             
     2     -0.6120942     23  2.500                                             
     3     -4.0817478     23  2.500                                             
  local pseudopotential read in
  partial core-charges read in
  partial kinetic energy density read in
  atomic valenz-charges read in
  non local Contribution for L=           0  read in
    real space projection operators read in
  non local Contribution for L=           0  read in
    real space projection operators read in
  non local Contribution for L=           1  read in
    real space projection operators read in
  non local Contribution for L=           1  read in
    real space projection operators read in
  non local Contribution for L=           2  read in
    real space projection operators read in
  non local Contribution for L=           2  read in
    real space projection operators read in
    PAW grid and wavefunctions read in
 
   number of l-projection  operators is LMAX  =           6
   number of lm-projection operators is LMMAX =          18
 
 POTCAR:    PAW_PBE Li 17Jan2003                  
   VRHFIN =Li: s1p0                                                             
   LEXCH  = PE                                                                  
   EATOM  =     5.3001 eV,    0.3895 Ry                                         
                                                                                
   TITEL  = PAW_PBE Li 17Jan2003                                                
   LULTRA =        F    use ultrasoft PP ?                                      
   IUNSCR =        1    unscreen: 0-lin 1-nonlin 2-no                           
   RPACOR =    1.500    partial core radius                                     
   POMASS =    7.010; ZVAL   =    1.000    mass and valenz                      
   RCORE  =    2.050    outmost cutoff radius                                   
   RWIGS  =    2.600; RWIGS  =    1.376    wigner-seitz radius (au A)           
   ENMAX  =  140.000; ENMIN  =  100.000 eV                                      
   ICORE  =        2    local potential                                         
   LCOR   =        T    correct aug charges                                     
   LPAW   =        T    paw PP                                                  
   EAUG   =  331.638                                                            
   DEXC   =    0.000                                                            
   RMAX   =    2.098    core radius for proj-oper                               
   RAUG   =    1.300    factor for augmentation sphere                          
   RDEP   =    2.094    radius for radial grids                                 
   RDEPT  =    1.810    core radius for aug-charge                              
                                                                                
   Atomic configuration                                                         
    4 entries                                                                   
     n  l   j            E        occ.                                          
     1  0  0.50       -51.8549   2.0000                                         
     2  0  0.50        -2.8742   1.0000                                         
     2  1  0.50        -1.3606   0.0000                                         
     3  2  1.50        -1.3606   0.0000                                         
   Description                                                                  
     l       E           TYP  RCUT    TYP  RCUT                                 
     0     -2.8742052     23  2.050                                             
     0     27.2116520     23  2.050                                             
     1     -1.3605826     23  2.050                                             
     2     -1.3605826     23  2.050                                             
  local pseudopotential read in
  partial core-charges read in
  partial kinetic energy density read in
  atomic valenz-charges read in
  non local Contribution for L=           0  read in
    real space projection operators read in
  non local Contribution for L=           0  read in
    real space projection operators read in
  non local Contribution for L=           1  read in
    real space projection operators read in
    PAW grid and wavefunctions read in
 
   number of l-projection  operators is LMAX  =           3
   number of lm-projection operators is LMMAX =           5
 
 POTCAR:    PAW_PBE Al 04Jan2001                  
   VRHFIN =Al: s2p1                                                             
   LEXCH  = PE                                                                  
   EATOM  =    53.5387 eV,    3.9350 Ry                                         
                                                                                
   TITEL  = PAW_PBE Al 04Jan2001                                                
   LULTRA =        F    use ultrasoft PP ?                                      
   IUNSCR =        1    unscreen: 0-lin 1-nonlin 2-no                           
   RPACOR =    1.500    partial core radius                                     
   POMASS =   26.981; ZVAL   =    3.000    mass and valenz                      
   RCORE  =    1.900    outmost cutoff radius                                   
   RWIGS  =    2.650; RWIGS  =    1.402    wigner-seitz radius (au A)           
   ENMAX  =  240.300; ENMIN  =  180.225 eV                                      
   ICORE  =        2    local potential                                         
   LCOR   =        T    correct aug charges                                     
   LPAW   =        T    paw PP                                                  
   EAUG   =  291.052                                                            
   DEXC   =    0.000                                                            
   RMAX   =    1.939    core radius for proj-oper                               
   RAUG   =    1.300    factor for augmentation sphere                          
   RDEP   =    1.966    radius for radial grids                                 
   RDEPT  =    1.856    core radius for aug-charge                              
                                                                                
   Atomic configuration                                                         
    6 entries                                                                   
     n  l   j            E        occ.                                          
     1  0  0.50     -1511.1048   2.0000                                         
     2  0  0.50      -108.1629   2.0000                                         
     2  1  1.50       -69.6402   6.0000                                         
     3  0  0.50        -7.7528   2.0000                                         
     3  1  1.50        -2.7121   1.0000                                         
     3  2  2.50        -2.7212   0.0000                                         
   Description                                                                  
     l       E           TYP  RCUT    TYP  RCUT                                 
     0     -7.7528455     23  1.900                                             
     0     -3.3096929     23  1.900                                             
     1     -2.7120682     23  1.900                                             
     1     13.6058260     23  1.900                                             
     2     -2.7211652      7  1.900                                             
  local pseudopotential read in
  partial core-charges read in
  partial kinetic energy density read in
  atomic valenz-charges read in
  non local Contribution for L=           0  read in
    real space projection operators read in
  non local Contribution for L=           0  read in
    real space projection operators read in
  non local Contribution for L=           1  read in
    real space projection operators read in
  non local Contribution for L=           1  read in
    real space projection operators read in
    PAW grid and wavefunctions read in
 
   number of l-projection  operators is LMAX  =           4
   number of lm-projection operators is LMMAX =           8
 
 Optimization of the real space projectors (new method)

 maximal supplied QI-value         = 24.76
 optimisation between [QCUT,QGAM] = [ 11.39, 22.77] = [ 36.31,145.25] Ry 
 Optimized for a Real-space Cutoff    1.10 Angstroem

   l    n(q)    QCUT    max X(q) W(low)/X(q) W(high)/X(q)  e(spline) 
   0      7    11.387    20.381    0.22E-03    0.48E-03    0.18E-06
   0      7    11.387    15.268    0.22E-03    0.52E-03    0.19E-06
   1      7    11.387     5.964    0.22E-03    0.73E-03    0.24E-06
   1      7    11.387     5.382    0.19E-03    0.60E-03    0.21E-06
 Optimization of the real space projectors (new method)

 maximal supplied QI-value         = 13.42
 optimisation between [QCUT,QGAM] = [ 11.40, 22.81] = [ 36.42,145.68] Ry 
 Optimized for a Real-space Cutoff    1.66 Angstroem

   l    n(q)    QCUT    max X(q) W(low)/X(q) W(high)/X(q)  e(spline) 
   0     11    11.404    13.882    0.31E-04    0.82E-05    0.60E-07
   0     11    11.404    12.184    0.45E-04    0.14E-04    0.98E-07
   1     11    11.404     4.523    0.47E-05    0.18E-04    0.12E-06
   1     11    11.404     4.424    0.66E-05    0.26E-04    0.18E-06
   2     10    11.404    52.481    0.10E-03    0.52E-04    0.18E-06
   2     10    11.404    38.501    0.97E-04    0.49E-04    0.18E-06
   3     10    11.404    65.631    0.11E-03    0.47E-04    0.67E-06
   3     10    11.404    56.854    0.11E-03    0.44E-04    0.68E-06
 Optimization of the real space projectors (new method)

 maximal supplied QI-value         = 15.12
 optimisation between [QCUT,QGAM] = [ 11.34, 22.83] = [ 36.00,145.93] Ry 
 Optimized for a Real-space Cutoff    1.52 Angstroem

   l    n(q)    QCUT    max X(q) W(low)/X(q) W(high)/X(q)  e(spline) 
   0     10    11.338    12.107    0.25E-04    0.17E-04    0.51E-07
   0     10    11.338     9.948    0.49E-04    0.35E-04    0.12E-06
   1     10    11.338     3.563    0.20E-04    0.52E-05    0.48E-07
   1     10    11.338     4.524    0.21E-03    0.12E-03    0.44E-06
   2      9    11.338    87.261    0.14E-03    0.22E-04    0.23E-06
   2      9    11.338    70.950    0.14E-03    0.22E-04    0.23E-06
 Optimization of the real space projectors (new method)

 maximal supplied QI-value         = 18.33
 optimisation between [QCUT,QGAM] = [ 11.36, 22.73] = [ 36.17,144.67] Ry 
 Optimized for a Real-space Cutoff    1.23 Angstroem

   l    n(q)    QCUT    max X(q) W(low)/X(q) W(high)/X(q)  e(spline) 
   0      8    11.365    33.825    0.48E-04    0.18E-03    0.59E-07
   0      8    11.365     8.944    0.37E-04    0.13E-03    0.44E-07
   1      8    11.365     4.214    0.24E-03    0.13E-03    0.38E-07
 Optimization of the real space projectors (new method)

 maximal supplied QI-value         = 19.84
 optimisation between [QCUT,QGAM] = [ 11.31, 22.82] = [ 35.82,145.81] Ry 
 Optimized for a Real-space Cutoff    1.16 Angstroem

   l    n(q)    QCUT    max X(q) W(low)/X(q) W(high)/X(q)  e(spline) 
   0      8    11.310   176.870    0.22E-03    0.22E-03    0.34E-07
   0      8    11.310   105.762    0.21E-03    0.22E-03    0.33E-07
   1      7    11.310    55.370    0.19E-03    0.26E-03    0.72E-07
   1      7    11.310    20.208    0.18E-03    0.24E-03    0.66E-07
  PAW_PBE O 08Apr2002                   :
 energy of atom  1       EATOM= -432.3788
 kinetic energy error for atom=    0.0224 (will be added to EATOM!!)
  PAW_PBE La 06Sep2000                  :
 energy of atom  2       EATOM= -865.9763
 kinetic energy error for atom=    0.0011 (will be added to EATOM!!)
  PAW_PBE Zr_sv 04Jan2005               :
 energy of atom  3       EATOM=-1284.2219
 kinetic energy error for atom=    0.0049 (will be added to EATOM!!)
  PAW_PBE Li 17Jan2003                  :
 energy of atom  4       EATOM=   -5.3001
 kinetic energy error for atom=    0.0000 (will be added to EATOM!!)
  PAW_PBE Al 04Jan2001                  :
 energy of atom  5       EATOM=  -53.5387
 kinetic energy error for atom=    0.0003 (will be added to EATOM!!)
 
 
 POSCAR: LLZO_Ia3d_Al00_partial_99               
  positions in direct lattice
  velocities in cartesian coordinates
  No initial velocities read in
 exchange correlation table for  LEXCH =        8
   RHO(1)=    0.500       N(1)  =     2000
   RHO(2)=  100.500       N(2)  =     4000
 


--------------------------------------------------------------------------------------------------------


 ion  position               nearest neighbor table
   1  0.100  0.196  0.282- 145 1.87 174 1.91 128 2.11 168 2.25 113 2.51  97 2.59
   2  0.900  0.804  0.718- 181 1.91 127 2.11 152 2.12 141 2.14 114 2.51  98 2.59 155 2.61
   3  0.400  0.804  0.782- 179 1.91 126 2.11 166 2.25 119 2.51  99 2.59
   4  0.600  0.196  0.218- 165 1.87 187 1.91 125 2.11 151 2.12 138 2.25 120 2.51 100 2.59
   5  0.900  0.696  0.218- 190 1.91 130 2.11 154 2.12 158 2.14 164 2.25 115 2.51 101 2.59
   6  0.100  0.304  0.782- 182 1.91 129 2.11 156 2.25 116 2.51 102 2.59
   7  0.600  0.304  0.718- 173 1.91 132 2.11 153 2.25 117 2.51 103 2.59
   8  0.400  0.696  0.282- 169 1.91 131 2.11 163 2.12 143 2.14 118 2.51 104 2.59
   9  0.282  0.100  0.196- 188 1.91 128 2.11 138 2.14  97 2.51 105 2.59 148 2.61
  10  0.718  0.900  0.804- 177 1.91 127 2.11 150 2.12 166 2.14  98 2.51 106 2.59
  11  0.782  0.400  0.804- 184 1.91 132 2.11 161 2.12 156 2.14 103 2.51 107 2.59 167 2.61
  12  0.218  0.600  0.196- 176 1.91 131 2.11 142 2.12 164 2.14 104 2.51 108 2.59
  13  0.218  0.900  0.696- 155 1.88 186 1.91 126 2.11 149 2.25  99 2.51 109 2.59
  14  0.782  0.100  0.304- 170 1.91 125 2.11 168 2.14 100 2.51 110 2.59
  15  0.718  0.600  0.304- 171 1.91 130 2.11 159 2.12 101 2.51 111 2.59
  16  0.282  0.400  0.696- 192 1.91 129 2.11 153 2.14 102 2.51 112 2.59
  17  0.196  0.282  0.100- 189 1.91 128 2.11 105 2.51 113 2.59
  18  0.804  0.718  0.900- 167 1.87 180 1.91 127 2.11 158 2.25 106 2.51 114 2.59
  19  0.804  0.782  0.400- 178 1.91 130 2.11 141 2.25 111 2.51 115 2.59
  20  0.196  0.218  0.600- 172 1.91 129 2.11 149 2.14 112 2.51 116 2.59 145 2.61
  21  0.696  0.218  0.900- 185 1.91 132 2.11 157 2.12 107 2.51 117 2.59 165 2.61
  22  0.304  0.782  0.100- 148 1.87 175 1.91 131 2.11 108 2.51 118 2.59
  23  0.304  0.718  0.600- 183 1.91 126 2.11 139 2.12 143 2.25 109 2.51 119 2.59
  24  0.696  0.282  0.400- 191 1.91 125 2.11 162 2.12 110 2.51 120 2.59
  25  0.946  0.350  0.968- 156 1.87 182 1.91 134 2.11 113 2.51 107 2.59 157 2.61
  26  0.054  0.650  0.032- 164 1.87 190 1.91 134 2.11 114 2.51 108 2.59
  27  0.554  0.650  0.468- 169 1.91 133 2.11 160 2.25 119 2.51 111 2.59
  28  0.446  0.350  0.532- 153 1.87 173 1.91 133 2.11 120 2.51 112 2.59
  29  0.446  0.150  0.032- 138 1.87 187 1.91 135 2.11 165 2.12 117 2.51 105 2.59
  30  0.554  0.850  0.968- 166 1.87 179 1.91 135 2.11 147 2.25 118 2.51 106 2.59
  31  0.054  0.850  0.532- 181 1.91 136 2.11 155 2.14 115 2.51 109 2.59 139 2.61
  32  0.946  0.150  0.468- 168 1.87 174 1.91 136 2.11 145 2.12 116 2.51 110 2.59 162 2.61
  33  0.850  0.532  0.054- 158 1.87 180 1.91 134 2.11 167 2.12 107 2.51 101 2.59 159 2.61
  34  0.150  0.468  0.946- 189 1.91 134 2.11 108 2.51 102 2.59
  35  0.150  0.032  0.446- 172 1.91 136 2.11 145 2.14 140 2.25 109 2.51  97 2.59
  36  0.850  0.968  0.554- 141 1.87 178 1.91 136 2.11 110 2.51  98 2.59 150 2.61
  37  0.650  0.468  0.554- 191 1.91 133 2.11 111 2.51 103 2.59 161 2.61
  38  0.350  0.532  0.446- 143 1.87 183 1.91 133 2.11 112 2.51 104 2.59 142 2.61
  39  0.350  0.968  0.946- 175 1.91 135 2.11 148 2.12 137 2.25 105 2.51  99 2.59
  40  0.650  0.032  0.054- 185 1.91 135 2.11 165 2.14 106 2.51 100 2.59
  41  0.032  0.446  0.150- 176 1.91 134 2.11 146 2.25 101 2.51 113 2.59
  42  0.968  0.554  0.850- 184 1.91 134 2.11 167 2.14 102 2.51 114 2.59 152 2.61
  43  0.532  0.054  0.850- 177 1.91 135 2.11 144 2.25  99 2.51 117 2.59
  44  0.468  0.946  0.150- 188 1.91 135 2.11 148 2.14 100 2.51 118 2.59 163 2.61
  45  0.968  0.946  0.350- 170 1.91 136 2.11  97 2.51 115 2.59 154 2.61
  46  0.032  0.054  0.650- 149 1.88 186 1.91 136 2.11 155 2.12  98 2.51 116 2.59
  47  0.468  0.554  0.650- 192 1.91 133 2.11 103 2.51 119 2.59
  48  0.532  0.446  0.350- 171 1.91 133 2.11 104 2.51 120 2.59 151 2.61
  49  0.600  0.696  0.782- 147 1.87 179 1.91 127 2.11 166 2.12 119 2.51 103 2.59
  50  0.400  0.304  0.218- 187 1.91 128 2.11 138 2.12 151 2.25 120 2.51 104 2.59
  51  0.900  0.304  0.282- 174 1.91 125 2.11 168 2.12 162 2.14 113 2.51 101 2.59 146 2.61
  52  0.100  0.696  0.718- 181 1.91 126 2.11 139 2.14 152 2.25 114 2.51 102 2.59
  53  0.400  0.196  0.718- 173 1.91 129 2.11 153 2.12 117 2.51  99 2.59 144 2.61
  54  0.600  0.804  0.282- 160 1.87 169 1.91 130 2.11 163 2.25 118 2.51 100 2.59
  55  0.100  0.804  0.218- 190 1.91 131 2.11 164 2.12 154 2.25 115 2.51  97 2.59
  56  0.900  0.196  0.782- 182 1.91 132 2.11 156 2.12 157 2.14 116 2.51  98 2.59
  57  0.782  0.600  0.696- 184 1.91 127 2.11 152 2.14 161 2.25 103 2.51 111 2.59
  58  0.218  0.400  0.304- 146 1.88 176 1.91 128 2.11 142 2.25 104 2.51 112 2.59
  59  0.282  0.900  0.304- 188 1.91 131 2.11 163 2.14  97 2.51 109 2.59 140 2.61
  60  0.718  0.100  0.696- 144 1.88 177 1.91 132 2.11 150 2.25  98 2.51 110 2.59
  61  0.718  0.400  0.196- 171 1.91 125 2.11 151 2.14 159 2.25 101 2.51 107 2.59
  62  0.282  0.600  0.804- 192 1.91 126 2.11 102 2.51 108 2.59
  63  0.218  0.100  0.804- 186 1.91 129 2.11 149 2.12  99 2.51 105 2.59 137 2.61
  64  0.782  0.900  0.196- 170 1.91 130 2.11 154 2.14 100 2.51 106 2.59
  65  0.696  0.782  0.600- 178 1.91 127 2.11 141 2.12 150 2.14 111 2.51 119 2.59 160 2.61
  66  0.304  0.218  0.400- 140 1.87 172 1.91 128 2.11 112 2.51 120 2.59
  67  0.304  0.282  0.900- 189 1.91 129 2.11 105 2.51 117 2.59
  68  0.696  0.718  0.100- 180 1.91 130 2.11 158 2.12 159 2.14 106 2.51 118 2.59 147 2.61
  69  0.196  0.718  0.400- 183 1.91 131 2.11 143 2.12 142 2.14 139 2.25 109 2.51 115 2.59
  70  0.804  0.282  0.600- 191 1.91 132 2.11 161 2.14 162 2.25 110 2.51 116 2.59
  71  0.804  0.218  0.100- 185 1.91 125 2.11 157 2.25 107 2.51 113 2.59
  72  0.196  0.782  0.900- 137 1.87 175 1.91 126 2.11 108 2.51 114 2.59
  73  0.446  0.850  0.468- 163 1.87 169 1.91 122 2.11 160 2.12 119 2.51 109 2.59 143 2.61
  74  0.554  0.150  0.532- 173 1.91 122 2.11 144 2.14 120 2.51 110 2.59
  75  0.054  0.150  0.968- 182 1.91 121 2.11 113 2.51 105 2.59
  76  0.946  0.850  0.032- 154 1.87 190 1.91 121 2.11 114 2.51 106 2.59 158 2.61
  77  0.946  0.650  0.532- 152 1.87 181 1.91 123 2.11 115 2.51 111 2.59 141 2.61
  78  0.054  0.350  0.468- 174 1.91 123 2.11 146 2.14 145 2.25 116 2.51 112 2.59
  79  0.554  0.350  0.032- 151 1.87 187 1.91 124 2.11 165 2.25 117 2.51 107 2.59
  80  0.446  0.650  0.968- 179 1.91 124 2.11 147 2.12 118 2.51 108 2.59
  81  0.350  0.032  0.554- 172 1.91 122 2.11 140 2.12 109 2.51  99 2.59 149 2.61
  82  0.650  0.968  0.446- 178 1.91 122 2.11 160 2.14 110 2.51 100 2.59
  83  0.650  0.532  0.946- 180 1.91 124 2.11 147 2.14 167 2.25 107 2.51 103 2.59
  84  0.350  0.468  0.054- 189 1.91 124 2.11 108 2.51 104 2.59
  85  0.150  0.968  0.054- 175 1.91 121 2.11 137 2.12 148 2.25 105 2.51  97 2.59
  86  0.850  0.032  0.946- 157 1.87 185 1.91 121 2.11 106 2.51  98 2.59
  87  0.850  0.468  0.446- 162 1.87 191 1.91 123 2.11 111 2.51 101 2.59
  88  0.150  0.532  0.554- 139 1.87 183 1.91 123 2.11 112 2.51 102 2.59
  89  0.532  0.946  0.650- 150 1.88 177 1.91 122 2.11 144 2.12  99 2.51 119 2.59 166 2.61
  90  0.468  0.054  0.350- 188 1.91 122 2.11 140 2.14 100 2.51 120 2.59 138 2.61
  91  0.032  0.554  0.350- 142 1.88 176 1.91 123 2.11 146 2.12 101 2.51 115 2.59 164 2.61
  92  0.968  0.446  0.650- 161 1.88 184 1.91 123 2.11 102 2.51 116 2.59 156 2.61
  93  0.468  0.446  0.850- 192 1.91 124 2.11 103 2.51 117 2.59 153 2.61
  94  0.532  0.554  0.150- 159 1.88 171 1.91 124 2.11 104 2.51 118 2.59
  95  0.968  0.054  0.150- 170 1.91 121 2.11  97 2.51 113 2.59 168 2.61
  96  0.032  0.946  0.850- 186 1.91 121 2.11 137 2.14 155 2.25  98 2.51 114 2.59
  97  0.125  0.000  0.250-  45 2.51  95 2.51   9 2.51  59 2.51   1 2.59  85 2.59  35 2.59  55 2.59
                           170 3.24 188 3.24 154 3.26 168 3.26 148 3.26 140 3.26 145 3.35 136 3.62
  98  0.875  0.000  0.750-  60 2.51  10 2.51  96 2.51  46 2.51  56 2.59   2 2.59  86 2.59  36 2.59
                           150 2.99 155 2.99 177 3.24 186 3.24 141 3.35 157 3.35 132 3.62 136 3.62
  99  0.375  0.000  0.750-  63 2.51  13 2.51  89 2.51  43 2.51  53 2.59   3 2.59  81 2.59  39 2.59
                           144 2.99 149 2.99 177 3.24 186 3.24 166 3.26 137 3.26 129 3.62 135 3.62
 100  0.625  0.000  0.250-  44 2.51  90 2.51  14 2.51  64 2.51  40 2.59  82 2.59   4 2.59  54 2.59
                           170 3.24 188 3.24 138 3.26 163 3.26 165 3.35 160 3.35 130 3.62 135 3.62
 101  0.875  0.500  0.250-  91 2.51  61 2.51  41 2.51  15 2.51  33 2.59  87 2.59  51 2.59   5 2.59
                           159 2.99 146 2.99 171 3.24 176 3.24 164 3.26 162 3.35 158 3.35 134 3.62
 102  0.125  0.500  0.750-  16 2.51  42 2.51  62 2.51  92 2.51   6 2.59  52 2.59  88 2.59  34 2.59
                           184 3.24 192 3.24 152 3.26 156 3.26 139 3.35 126 3.62 129 3.62 134 3.62
 103  0.625  0.500  0.750-  11 2.51  47 2.51  57 2.51  93 2.51   7 2.59  37 2.59  83 2.59  49 2.59
                           161 2.99 184 3.24 192 3.24 167 3.26 153 3.26 147 3.35 132 3.62 133 3.62
 104  0.375  0.500  0.250-  94 2.51  58 2.51  48 2.51  12 2.51  38 2.59  84 2.59  50 2.59   8 2.59
                           142 2.99 171 3.24 176 3.24 151 3.26 143 3.35 128 3.62 131 3.62 133 3.62
 105  0.250  0.125  0.000-  17 2.51  67 2.51  39 2.51  85 2.51   9 2.59  63 2.59  75 2.59  29 2.59
                           137 2.99 148 2.99 175 3.24 189 3.24 138 3.35 129 3.62 128 3.62 135 3.62
 106  0.750  0.875  0.000-  68 2.51  18 2.51  86 2.51  40 2.51  64 2.59  10 2.59  76 2.59  30 2.59
                           158 2.99 180 3.24 185 3.24 147 3.26 154 3.35 166 3.35 127 3.62 130 3.62
 107  0.750  0.375  0.000-  71 2.51  21 2.51  83 2.51  33 2.51  61 2.59  11 2.59  79 2.59  25 2.59
                           167 2.99 157 2.99 180 3.24 185 3.24 159 3.26 165 3.26 151 3.35 156 3.35
 108  0.250  0.625  0.000-  22 2.51  72 2.51  34 2.51  84 2.51  12 2.59  62 2.59  80 2.59  26 2.59
                           175 3.24 189 3.24 164 3.35 131 3.62 126 3.62 134 3.62 124 3.62
 109  0.250  0.875  0.500-  69 2.51  23 2.51  81 2.51  35 2.51  59 2.59  13 2.59  73 2.59  31 2.59
                           140 2.99 139 2.99 143 2.99 172 3.24 183 3.24 149 3.26 155 3.35 163 3.35
 110  0.750  0.125  0.500-  24 2.51  70 2.51  36 2.51  82 2.51  14 2.59  60 2.59  74 2.59  32 2.59
                           162 2.99 178 3.24 191 3.24 150 3.26 144 3.35 168 3.35 125 3.62 132 3.62
 111  0.750  0.625  0.500-  19 2.51  65 2.51  37 2.51  87 2.51  15 2.59  57 2.59  77 2.59  27 2.59
                           141 2.99 178 3.24 191 3.24 161 3.26 160 3.26 152 3.35 127 3.62 130 3.62
 112  0.250  0.375  0.500-  66 2.51  20 2.51  88 2.51  38 2.51  58 2.59  16 2.59  78 2.59  28 2.59
                           172 3.24 183 3.24 142 3.26 145 3.26 146 3.35 153 3.35 128 3.62 129 3.62
 113  0.000  0.250  0.125-  25 2.51  75 2.51   1 2.51  51 2.51  41 2.59  95 2.59  17 2.59  71 2.59
                           168 2.99 174 3.24 182 3.24 146 3.26 157 3.26 134 3.62 121 3.62 125 3.62
 114  0.000  0.750  0.875-  76 2.51  26 2.51  52 2.51   2 2.51  42 2.59  96 2.59  72 2.59  18 2.59
                           152 2.99 181 3.24 190 3.24 155 3.26 158 3.26 137 3.35 167 3.35 134 3.62
 115  0.000  0.750  0.375-  77 2.51  31 2.51  55 2.51   5 2.51  45 2.59  91 2.59  69 2.59  19 2.59
                           154 2.99 164 2.99 181 3.24 190 3.24 139 3.26 141 3.26 142 3.35 136 3.62
 116  0.000  0.250  0.625-  32 2.51  78 2.51   6 2.51  56 2.51  46 2.59  92 2.59  20 2.59  70 2.59
                           156 2.99 145 2.99 174 3.24 182 3.24 162 3.26 161 3.35 149 3.35 136 3.62
 117  0.500  0.250  0.875-  79 2.51  29 2.51  53 2.51   7 2.51  43 2.59  93 2.59  67 2.59  21 2.59
                           153 2.99 165 2.99 173 3.24 187 3.24 144 3.26 135 3.62 124 3.62 129 3.62
 118  0.500  0.750  0.125-  30 2.51  80 2.51   8 2.51  54 2.51  44 2.59  94 2.59  22 2.59  68 2.59
                           163 2.99 147 2.99 169 3.24 179 3.24 159 3.35 148 3.35 124 3.62 135 3.62
 119  0.500  0.750  0.625-  27 2.51  73 2.51   3 2.51  49 2.51  47 2.59  89 2.59  23 2.59  65 2.59
                           166 2.99 160 2.99 169 3.24 179 3.24 143 3.26 150 3.35 122 3.62 133 3.62
 120  0.500  0.250  0.375-  74 2.51  28 2.51  50 2.51   4 2.51  48 2.59  90 2.59  66 2.59  24 2.59
                           151 2.99 138 2.99 173 3.24 187 3.24 140 3.35 133 3.62 122 3.62 125 3.62
 121  0.000  0.000  0.000-  96 2.11  95 2.11  76 2.11  75 2.11  86 2.11  85 2.11 137 2.91 154 3.11
                           157 3.11 114 3.62 113 3.62  98 3.62  97 3.62 106 3.62 105 3.62
 122  0.500  0.000  0.500-  89 2.11  90 2.11  73 2.11  74 2.11  82 2.11  81 2.11 144 2.91 160 2.91
                           140 2.91 163 3.11 150 3.11 120 3.62 119 3.62 100 3.62  99 3.62 110 3.62
 123  0.000  0.500  0.500-  92 2.11  91 2.11  77 2.11  78 2.11  87 2.11  88 2.11 146 2.91 152 3.11
                           139 3.11 162 3.11 142 3.11 161 3.11 115 3.62 116 3.62 101 3.62 102 3.62
 124  0.500  0.500  0.000-  93 2.11  94 2.11  80 2.11  79 2.11  83 2.11  84 2.11 147 2.91 151 3.11
                           159 3.11 118 3.62 117 3.62 104 3.62 103 3.62 108 3.62 107 3.62
 125  0.750  0.250  0.250-  14 2.11  61 2.11  71 2.11  24 2.11   4 2.11  51 2.11 162 2.91 151 2.91
                           168 2.91 165 3.11 107 3.62 110 3.62 100 3.62 101 3.62 113 3.62 120 3.62
 126  0.250  0.750  0.750-  13 2.11  62 2.11  23 2.11  72 2.11  52 2.11   3 2.11 139 2.91 137 3.11
                           155 3.11 109 3.62 108 3.62 102 3.62  99 3.62 119 3.62 114 3.62
 127  0.750  0.750  0.750-  10 2.11  57 2.11  18 2.11  65 2.11   2 2.11  49 2.11 150 2.91 141 2.91
                           152 2.91 166 2.91 167 3.11 147 3.11 106 3.62 111 3.62  98 3.62 103 3.62
 128  0.250  0.250  0.250-   9 2.11  58 2.11  17 2.11  66 2.11   1 2.11  50 2.11 138 2.91 140 3.11
                           145 3.11 146 3.11 105 3.62 112 3.62  97 3.62 104 3.62 113 3.62 120 3.62
 129  0.250  0.250  0.750-  63 2.11  16 2.11  20 2.11  67 2.11   6 2.11  53 2.11 149 2.91 153 2.91
                           105 3.62 112 3.62  99 3.62 102 3.62 116 3.62 117 3.62
 130  0.750  0.750  0.250-  15 2.11  64 2.11  68 2.11  19 2.11   5 2.11  54 2.11 159 2.91 158 2.91
                           154 2.91 160 3.11 106 3.62 111 3.62 100 3.62 101 3.62 115 3.62 118 3.62
 131  0.250  0.750  0.250-  12 2.11  59 2.11  22 2.11  69 2.11  55 2.11   8 2.11 142 2.91 143 2.91
                           163 2.91 164 2.91 148 3.11 109 3.62 108 3.62 104 3.62  97 3.62 118 3.62
 132  0.750  0.250  0.750-  60 2.11  11 2.11  21 2.11  70 2.11   7 2.11  56 2.11 161 2.91 157 2.91
                           156 2.91 144 3.11 107 3.62 110 3.62  98 3.62 103 3.62 116 3.62 117 3.62
 133  0.500  0.500  0.500-  47 2.11  48 2.11  27 2.11  28 2.11  37 2.11  38 2.11 153 3.11 143 3.11
                           119 3.62 120 3.62 103 3.62 104 3.62 111 3.62 112 3.62
 134  0.000  0.500  0.000-  42 2.11  41 2.11  26 2.11  25 2.11  33 2.11  34 2.11 167 2.91 156 3.11
                           164 3.11 158 3.11 113 3.62 114 3.62 101 3.62 102 3.62 107 3.62 108 3.62
 135  0.500  0.000  0.000-  43 2.11  44 2.11  30 2.11  29 2.11  40 2.11  39 2.11 165 2.91 148 2.91
                           166 3.11 138 3.11 117 3.62 118 3.62  99 3.62 100 3.62 105 3.62 106 3.62
 136  0.000  0.000  0.500-  46 2.11  45 2.11  31 2.11  32 2.11  36 2.11  35 2.11 155 2.91 145 2.91
                           168 3.11 141 3.11 149 3.11 116 3.62 115 3.62  98 3.62  97 3.62 110 3.62
 137  0.188  0.926  0.901- 175 1.66  72 1.87  85 2.12  96 2.14  39 2.25 186 2.33  63 2.61 121 2.91
                           105 2.99 148 3.04 126 3.11 155 3.15  99 3.26 114 3.35
 138  0.438  0.151  0.176- 187 1.66  29 1.87  50 2.12   9 2.14   4 2.25 188 2.33 165 2.52  90 2.61
                           128 2.91 120 2.99 151 3.04 135 3.11 100 3.26 105 3.35
 139  0.151  0.676  0.562- 183 1.66  88 1.87  23 2.12  52 2.14  69 2.25 181 2.33  31 2.61 126 2.91
                           109 2.99 143 3.04 123 3.11 142 3.15 152 3.15 115 3.26 102 3.35
 140  0.312  0.074  0.401- 172 1.66  66 1.87  81 2.12  90 2.14  35 2.25 188 2.33  59 2.61 122 2.91
                           109 2.99 128 3.11 145 3.15  97 3.26 120 3.35
 141  0.849  0.824  0.562- 178 1.66  36 1.87  65 2.12   2 2.14  19 2.25 181 2.33  77 2.61 127 2.91
                           152 2.92 150 2.92 111 2.99 136 3.11 115 3.26  98 3.35
 142  0.176  0.562  0.349- 176 1.66  91 1.88  12 2.12  69 2.14  58 2.25 183 2.33 146 2.52  38 2.61
                           131 2.91 164 2.92 143 2.92 104 2.99 123 3.11 139 3.15 112 3.26 115 3.35
 143  0.349  0.676  0.438- 183 1.66  38 1.87  69 2.12   8 2.14  23 2.25 169 2.33  73 2.61 131 2.91
                           163 2.92 142 2.92 109 2.99 139 3.04 133 3.11 119 3.26 104 3.35
 144  0.574  0.099  0.688- 177 1.66  60 1.88  89 2.12  74 2.14  43 2.25 173 2.33 150 2.52  53 2.61
                           122 2.91  99 2.99 132 3.11 117 3.26 110 3.35
 145  0.099  0.188  0.426- 174 1.66   1 1.87  32 2.12  35 2.14  78 2.25 172 2.33 168 2.52  20 2.61
                           136 2.91 116 2.99 128 3.11 146 3.15 140 3.15 112 3.26  97 3.35
 146  0.074  0.401  0.312- 176 1.66  58 1.88  91 2.12  78 2.14  41 2.25 174 2.33 142 2.52  51 2.61
                           123 2.91 101 2.99 128 3.11 145 3.15 113 3.26 112 3.35
 147  0.599  0.688  0.926- 179 1.66  49 1.87  80 2.12  83 2.14  30 2.25 180 2.33 166 2.52  68 2.61
                           124 2.91 118 2.99 127 3.11 167 3.15 106 3.26 103 3.35
 148  0.312  0.926  0.099- 175 1.66  22 1.87  39 2.12  44 2.14  85 2.25 188 2.33   9 2.61 135 2.91
                           105 2.99 137 3.04 131 3.11  97 3.26 118 3.35
 149  0.176  0.062  0.651- 186 1.66  46 1.88  63 2.12  20 2.14  13 2.25 172 2.33 155 2.52  81 2.61
                           129 2.91  99 2.99 136 3.11 109 3.26 116 3.35
 150  0.676  0.938  0.651- 177 1.66  89 1.88  10 2.12  65 2.14  60 2.25 178 2.33 144 2.52  36 2.61
                           127 2.91 166 2.92 141 2.92  98 2.99 122 3.11 110 3.26 119 3.35
 151  0.562  0.349  0.176- 187 1.66  79 1.87   4 2.12  61 2.14  50 2.25 171 2.33 165 2.52  48 2.61
                           125 2.91 120 2.99 138 3.04 124 3.11 159 3.15 104 3.26 107 3.35
 152  0.938  0.651  0.676- 181 1.66  77 1.87   2 2.12  57 2.14  52 2.25 184 2.33  42 2.61 127 2.91
                           141 2.92 114 2.99 123 3.11 161 3.15 139 3.15 102 3.26 111 3.35
 153  0.438  0.349  0.676- 173 1.66  28 1.87  53 2.12  16 2.14   7 2.25 192 2.33  93 2.61 129 2.91
                           117 2.99 133 3.11 103 3.26 112 3.35
 154  0.938  0.849  0.176- 190 1.66  76 1.87   5 2.12  64 2.14  55 2.25 170 2.33  45 2.61 130 2.91
                           158 2.92 115 2.99 164 3.04 121 3.11  97 3.26 106 3.35
 155  0.074  0.901  0.688- 186 1.66  13 1.88  46 2.12  31 2.14  96 2.25 181 2.33 149 2.52   2 2.61
                           136 2.91  98 2.99 126 3.11 137 3.15 114 3.26 109 3.35
 156  0.938  0.349  0.824- 182 1.66  25 1.87  56 2.12  11 2.14   6 2.25 184 2.33  92 2.61 132 2.91
                           157 2.92 161 2.92 116 2.99 134 3.11 102 3.26 107 3.35
 157  0.849  0.176  0.938- 185 1.66  86 1.87  21 2.12  56 2.14  71 2.25 182 2.33  25 2.61 132 2.91
                           156 2.92 107 2.99 121 3.11 113 3.26  98 3.35
 158  0.849  0.676  0.062- 180 1.66  33 1.87  68 2.12   5 2.14  18 2.25 190 2.33 167 2.52  76 2.61
                           130 2.91 154 2.92 159 2.92 106 2.99 134 3.11 164 3.15 114 3.26 101 3.35
 159  0.676  0.562  0.151- 171 1.66  94 1.88  15 2.12  68 2.14  61 2.25 180 2.33  33 2.61 130 2.91
                           158 2.92 101 2.99 124 3.11 151 3.15 107 3.26 118 3.35
 160  0.599  0.812  0.426- 169 1.66  54 1.87  73 2.12  82 2.14  27 2.25 178 2.33 163 2.52  65 2.61
                           122 2.91 119 2.99 130 3.11 111 3.26 100 3.35
 161  0.824  0.438  0.651- 184 1.66  92 1.88  11 2.12  70 2.14  57 2.25 191 2.33  37 2.61 132 2.91
                           156 2.92 103 2.99 123 3.11 162 3.15 152 3.15 111 3.26 116 3.35
 162  0.849  0.324  0.438- 191 1.66  87 1.87  24 2.12  51 2.14  70 2.25 174 2.33  32 2.61 125 2.91
                           168 2.92 110 2.99 123 3.11 161 3.15 116 3.26 101 3.35
 163  0.438  0.849  0.324- 169 1.66  73 1.87   8 2.12  59 2.14  54 2.25 188 2.33 160 2.52  44 2.61
                           131 2.91 143 2.92 118 2.99 122 3.11 100 3.26 109 3.35
 164  0.062  0.651  0.176- 190 1.66  26 1.87  55 2.12  12 2.14   5 2.25 176 2.33  91 2.61 131 2.91
                           142 2.92 115 2.99 154 3.04 134 3.11 158 3.15 101 3.26 108 3.35
 165  0.599  0.188  0.074- 187 1.66   4 1.87  29 2.12  40 2.14  79 2.25 185 2.33 151 2.52 138 2.52
                            21 2.61 135 2.91 117 2.99 125 3.11 107 3.26 100 3.35
 166  0.562  0.849  0.824- 179 1.66  30 1.87  49 2.12  10 2.14   3 2.25 177 2.33 147 2.52  89 2.61
                           127 2.91 150 2.92 119 2.99 135 3.11  99 3.26 106 3.35
 167  0.812  0.574  0.901- 180 1.66  18 1.87  33 2.12  42 2.14  83 2.25 184 2.33 158 2.52  11 2.61
                           134 2.91 107 2.99 127 3.11 147 3.15 103 3.26 114 3.35
 168  0.938  0.151  0.324- 174 1.66  32 1.87  51 2.12  14 2.14   1 2.25 170 2.33 145 2.52  95 2.61
                           125 2.91 162 2.92 113 2.99 136 3.11  97 3.26 110 3.35
 169  0.500  0.750  0.375- 163 1.66 160 1.66  27 1.91  73 1.91   8 1.91  54 1.91 143 2.33 119 3.24
                           118 3.24
 170  0.875  0.000  0.250-  45 1.91  95 1.91  14 1.91  64 1.91 154 2.33 168 2.33  97 3.24 100 3.24

 171  0.625  0.500  0.250- 159 1.66  94 1.91  48 1.91  61 1.91  15 1.91 151 2.33 101 3.24 104 3.24

 172  0.250  0.125  0.500- 140 1.66  66 1.91  20 1.91  81 1.91  35 1.91 149 2.33 145 2.33 112 3.24
                           109 3.24
 173  0.500  0.250  0.625- 153 1.66  74 1.91  28 1.91  53 1.91   7 1.91 144 2.33 117 3.24 120 3.24

 174  0.000  0.250  0.375- 168 1.66 145 1.66  32 1.91  78 1.91   1 1.91  51 1.91 146 2.33 162 2.33
                           113 3.24 116 3.24
 175  0.250  0.875  0.000- 137 1.66 148 1.66  22 1.91  72 1.91  39 1.91  85 1.91 105 3.24 108 3.24

 176  0.125  0.500  0.250- 142 1.66 146 1.66  91 1.91  58 1.91  41 1.91  12 1.91 164 2.33 104 3.24
                           101 3.24
 177  0.625  0.000  0.750- 150 1.66 144 1.66  60 1.91  10 1.91  89 1.91  43 1.91 166 2.33  99 3.24
                            98 3.24
 178  0.750  0.875  0.500- 141 1.66  19 1.91  65 1.91  36 1.91  82 1.91 150 2.33 160 2.33 111 3.24
                           110 3.24
 179  0.500  0.750  0.875- 166 1.66 147 1.66  30 1.91  80 1.91   3 1.91  49 1.91 118 3.24 119 3.24

 180  0.750  0.625  0.000- 167 1.66 158 1.66  68 1.91  18 1.91  83 1.91  33 1.91 159 2.33 147 2.33
                           106 3.24 107 3.24
 181  0.000  0.750  0.625- 152 1.66  77 1.91  31 1.91  52 1.91   2 1.91 155 2.33 139 2.33 141 2.33
                           114 3.24 115 3.24
 182  0.000  0.250  0.875- 156 1.66  25 1.91  75 1.91   6 1.91  56 1.91 157 2.33 113 3.24 116 3.24

 183  0.250  0.625  0.500- 139 1.66 143 1.66  69 1.91  23 1.91  88 1.91  38 1.91 142 2.33 112 3.24
                           109 3.24
 184  0.875  0.500  0.750- 161 1.66  11 1.91  57 1.91  42 1.91  92 1.91 156 2.33 152 2.33 167 2.33
                           102 3.24 103 3.24
 185  0.750  0.125  0.000- 157 1.66  71 1.91  21 1.91  86 1.91  40 1.91 165 2.33 106 3.24 107 3.24

 186  0.125  0.000  0.750- 155 1.66 149 1.66  63 1.91  13 1.91  96 1.91  46 1.91 137 2.33  99 3.24
                            98 3.24
 187  0.500  0.250  0.125- 151 1.66 138 1.66 165 1.66  79 1.91  29 1.91  50 1.91   4 1.91 120 3.24
                           117 3.24
 188  0.375  0.000  0.250-  44 1.91  90 1.91   9 1.91  59 1.91 148 2.33 140 2.33 138 2.33 163 2.33
                            97 3.24 100 3.24
 189  0.250  0.375  0.000-  17 1.91  67 1.91  34 1.91  84 1.91 105 3.24 108 3.24
 190  0.000  0.750  0.125- 154 1.66 164 1.66  76 1.91  26 1.91  55 1.91   5 1.91 158 2.33 115 3.24
                           114 3.24
 191  0.750  0.375  0.500- 162 1.66  24 1.91  70 1.91  37 1.91  87 1.91 161 2.33 110 3.24 111 3.24

 192  0.375  0.500  0.750-  16 1.91  47 1.91  62 1.91  93 1.91 153 2.33 103 3.24 102 3.24
 

IMPORTANT INFORMATION: All symmetrisations will be switched off!
NOSYMM: (Re-)initialisation of all symmetry stuff for point group C_1.

 
 
 KPOINTS: K-Points                                

Automatic generation of k-mesh.
Space group operators:
 irot       det(A)        alpha          n_x          n_y          n_z        tau_x        tau_y        tau_z
    1     1.000000     0.000000     1.000000     0.000000     0.000000     0.000000     0.000000     0.000000
 
 Subroutine IBZKPT returns following result:
 ===========================================
 
 Found      1 irreducible k-points:
 
 Following reciprocal coordinates:
            Coordinates               Weight
  0.000000  0.000000  0.000000      1.000000
 
 Following cartesian coordinates:
            Coordinates               Weight
  0.000000  0.000000  0.000000      1.000000
 


--------------------------------------------------------------------------------------------------------




 Dimension of arrays:
   k-points           NKPTS =      1   k-points in BZ     NKDIM =      1   number of bands    NBANDS=    656
   number of dos      NEDOS =    301   number of ions     NIONS =    192
   non local maximal  LDIM  =      8   non local SUM 2l+1 LMDIM =     32
   total plane-waves  NPLWV = 884736
   max r-space proj   IRMAX =   7820   max aug-charges    IRDMAX=  21410
   dimension x,y,z NGX =    96 NGY =   96 NGZ =   96
   dimension x,y,z NGXF=   192 NGYF=  192 NGZF=  192
   support grid    NGXF=   192 NGYF=  192 NGZF=  192
   ions per type =              96  24  16  56   0
   NGX,Y,Z   is equivalent  to a cutoff of  12.31, 12.31, 12.31 a.u.
   NGXF,Y,Z  is equivalent  to a cutoff of  24.62, 24.62, 24.62 a.u.

 SYSTEM =  unknown system                          
 POSCAR =  LLZO_Ia3d_Al00_partial_99               

 Startparameter for this run:
   NWRITE =      2    write-flag & timer
   PREC   = accura    normal or accurate (medium, high low for compatibility)
   ISTART =      0    job   : 0-new  1-cont  2-samecut
   ICHARG =      2    charge: 1-file 2-atom 10-const
   ISPIN  =      1    spin polarized calculation?
   LNONCOLLINEAR =      F non collinear calculations
   LSORBIT =      F    spin-orbit coupling
   INIWAV =      1    electr: 0-lowe 1-rand  2-diag
   LASPH  =      F    aspherical Exc in radial PAW
   METAGGA=      F    non-selfconsistent MetaGGA calc.

 Electronic Relaxation 1
   ENCUT  =  500.0 eV  36.75 Ry    6.06 a.u.  23.64 23.64 23.64*2*pi/ulx,y,z
   ENINI  =  500.0     initial cutoff
   ENAUG  =  605.4 eV  augmentation charge cutoff
   NELM   =     60;   NELMIN=  2; NELMDL=  0     # of ELM steps 
   EDIFF  = 0.1E-05   stopping-criterion for ELM
   LREAL  =      T    real-space projection
   NLSPLINE    = F    spline interpolate recip. space projectors
   LCOMPAT=      F    compatible to vasp.4.4
   GGA_COMPAT  = T    GGA compatible to vasp.4.4-vasp.4.6
   LMAXPAW     = -100 max onsite density
   LMAXMIX     =    2 max onsite mixed and CHGCAR
   VOSKOWN=      0    Vosko Wilk Nusair interpolation
   ROPT   =   -0.00025  -0.00025  -0.00025  -0.00025
   ROPT   =   -0.00025
 Ionic relaxation
   EDIFFG = -.1E-01   stopping-criterion for IOM
   NSW    =     20    number of steps for IOM
   NBLOCK =      1;   KBLOCK =     20    inner block; outer block 
   IBRION =      1    ionic relax: 0-MD 1-quasi-New 2-CG
   NFREE  =      0    steps in history (QN), initial steepest desc. (CG)
   ISIF   =      2    stress and relaxation
   IWAVPR =     11    prediction:  0-non 1-charg 2-wave 3-comb
   ISYM   =      0    0-nonsym 1-usesym 2-fastsym
   LCORR  =      T    Harris-Foulkes like correction to forces

   POTIM  = 0.5000    time-step for ionic-motion
   TEIN   =    0.0    initial temperature
   TEBEG  =    0.0;   TEEND  =   0.0 temperature during run
   SMASS  =  -3.00    Nose mass-parameter (am)
   estimated Nose-frequenzy (Omega)   =  0.10E-29 period in steps =****** mass=  -0.384E-26a.u.
   SCALEE = 1.0000    scale energy and forces
   NPACO  =    256;   APACO  = 16.0  distance and # of slots for P.C.
   PSTRESS=    0.0 pullay stress

  Mass of Ions in am
   POMASS =  16.00138.90 91.22  7.01 26.98
  Ionic Valenz
   ZVAL   =   6.00 11.00 12.00  1.00  3.00
  Atomic Wigner-Seitz radii
   RWIGS  =  -1.00 -1.00 -1.00 -1.00 -1.00
  virtual crystal weights 
   VCA    =   1.00  1.00  1.00  1.00  1.00
   NELECT =    1088.0000    total number of electrons
   NUPDOWN=      -1.0000    fix difference up-down

 DOS related values:
   EMIN   =  10.00;   EMAX   =-10.00  energy-range for DOS
   EFERMI =   0.00
   ISMEAR =     0;   SIGMA  =   0.20  broadening in eV -4-tet -1-fermi 0-gaus

 Electronic relaxation 2 (details)
   IALGO  =     38    algorithm
   LDIAG  =      T    sub-space diagonalisation (order eigenvalues)
   LSUBROT=      F    optimize rotation matrix (better conditioning)
   TURBO    =      0    0=normal 1=particle mesh
   IRESTART =      0    0=no restart 2=restart with 2 vectors
   NREBOOT  =      0    no. of reboots
   NMIN     =      0    reboot dimension
   EREF     =   0.00    reference energy to select bands
   IMIX   =      4    mixing-type and parameters
     AMIX     =   0.40;   BMIX     =  1.00
     AMIX_MAG =   1.60;   BMIX_MAG =  1.00
     AMIN     =   0.10
     WC   =   100.;   INIMIX=   1;  MIXPRE=   1;  MAXMIX= -45

 Intra band minimization:
   WEIMIN = 0.0010     energy-eigenvalue tresh-hold
   EBREAK =  0.38E-09  absolut break condition
   DEPER  =   0.30     relativ break condition  

   TIME   =   0.40     timestep for ELM

  volume/ion in A,a.u.               =      11.35        76.60
  Fermi-wavevector in a.u.,A,eV,Ry     =   1.298703  2.454192 22.947972  1.686628
  Thomas-Fermi vector in A             =   2.430014
 
 Write flags
   LWAVE        =      F    write WAVECAR
   LDOWNSAMPLE  =      F    k-point downsampling of WAVECAR
   LCHARG       =      F    write CHGCAR
   LVTOT        =      F    write LOCPOT, total local potential
   LVHAR        =      F    write LOCPOT, Hartree potential only
   LELF         =      F    write electronic localiz. function (ELF)
   LORBIT       =      0    0 simple, 1 ext, 2 COOP (PROOUT), +10 PAW based schemes


 Dipole corrections
   LMONO  =      F    monopole corrections only (constant potential shift)
   LDIPOL =      F    correct potential (dipole corrections)
   IDIPOL =      0    1-x, 2-y, 3-z, 4-all directions 
   EPSILON=  1.0000000 bulk dielectric constant

 Exchange correlation treatment:
   GGA     =    --    GGA type
   LEXCH   =     8    internal setting for exchange type
   VOSKOWN=      0    Vosko Wilk Nusair interpolation
   LHFCALC =     F    Hartree Fock is set to
   LHFONE  =     F    Hartree Fock one center treatment
   AEXX    =    0.0000 exact exchange contribution

 Linear response parameters
   LEPSILON=     F    determine dielectric tensor
   LRPA    =     F    only Hartree local field effects (RPA)
   LNABLA  =     F    use nabla operator in PAW spheres
   LVEL    =     F    velocity operator in full k-point grid
   LINTERFAST=   F  fast interpolation
   KINTER  =     0    interpolate to denser k-point grid
   CSHIFT  =0.1000    complex shift for real part using Kramers Kronig
   OMEGAMAX=  -1.0    maximum frequency
   DEG_THRESHOLD= 0.2000000E-02 threshold for treating states as degnerate
   RTIME   =   -0.100 relaxation time in fs
  (WPLASMAI=    0.000 imaginary part of plasma frequency in eV, 0.658/RTIME)
   DFIELD  = 0.0000000 0.0000000 0.0000000 field for delta impulse in time
 
 Orbital magnetization related:
   ORBITALMAG=     F  switch on orbital magnetization
   LCHIMAG   =     F  perturbation theory with respect to B field
   DQ        =  0.001000  dq finite difference perturbation B field
   LLRAUG    =     F  two centre corrections for induced B field



--------------------------------------------------------------------------------------------------------


 quasi-Newton-method for relaxation of ions
 charge density and potential will be updated during run
 non-spin polarized calculation
 Variant of blocked Davidson
 Davidson routine will perform the subspace rotation
 perform sub-space diagonalisation
    after iterative eigenvector-optimisation
 modified Broyden-mixing scheme, WC =      100.0
 initial mixing is a Kerker type mixing with AMIX =  0.4000 and BMIX =      1.0000
 Hartree-type preconditioning will be used
 using additional bands          112
 real space projection scheme for non local part
 use partial core corrections
 calculate Harris-corrections to forces 
   (improved forces if not selfconsistent)
 use gradient corrections 
 use of overlap-Matrix (Vanderbilt PP)
 Gauss-broadening in eV      SIGMA  =   0.20


--------------------------------------------------------------------------------------------------------


  energy-cutoff  :      500.00
  volume of cell :     2179.34
      direct lattice vectors                 reciprocal lattice vectors
    12.965200424  0.000000000  0.000000000     0.077129544  0.000000000  0.000000000
     0.000000000 12.965000153  0.000000000     0.000000000  0.077130736  0.000000000
     0.000000000  0.000000000 12.965000153     0.000000000  0.000000000  0.077130736

  length of vectors
    12.965200424 12.965000153 12.965000153     0.077129544  0.077130736  0.077130736


 
 k-points in units of 2pi/SCALE and weight: K-Points                                
   0.00000000  0.00000000  0.00000000       1.000
 
 k-points in reciprocal lattice and weights: K-Points                                
   0.00000000  0.00000000  0.00000000       1.000
 
 position of ions in fractional coordinates (direct lattice) 
   0.10000000  0.19560000  0.28160000
   0.89999998  0.80439997  0.71840000
   0.40000001  0.80439997  0.78160000
   0.60000002  0.19560000  0.21840000
   0.89999998  0.69560003  0.21840000
   0.10000000  0.30440000  0.78160000
   0.60000002  0.30440000  0.71840000
   0.40000001  0.69560003  0.28160000
   0.28160000  0.10000000  0.19560000
   0.71840000  0.89999998  0.80439997
   0.78160000  0.40000001  0.80439997
   0.21840000  0.60000002  0.19560000
   0.21840000  0.89999998  0.69560003
   0.78160000  0.10000000  0.30440000
   0.71840000  0.60000002  0.30440000
   0.28160000  0.40000001  0.69560003
   0.19560000  0.28160000  0.10000000
   0.80439997  0.71840000  0.89999998
   0.80439997  0.78160000  0.40000001
   0.19560000  0.21840000  0.60000002
   0.69560003  0.21840000  0.89999998
   0.30440000  0.78160000  0.10000000
   0.30440000  0.71840000  0.60000002
   0.69560003  0.28160000  0.40000001
   0.94560003  0.34999999  0.96840000
   0.05440000  0.64999998  0.03160000
   0.55439997  0.64999998  0.46840000
   0.44560000  0.34999999  0.53160000
   0.44560000  0.15000001  0.03160000
   0.55439997  0.85000002  0.96840000
   0.05440000  0.85000002  0.53160000
   0.94560003  0.15000001  0.46840000
   0.85000002  0.53160000  0.05440000
   0.15000001  0.46840000  0.94560003
   0.15000001  0.03160000  0.44560000
   0.85000002  0.96840000  0.55439997
   0.64999998  0.46840000  0.55439997
   0.34999999  0.53160000  0.44560000
   0.34999999  0.96840000  0.94560003
   0.64999998  0.03160000  0.05440000
   0.03160000  0.44560000  0.15000001
   0.96840000  0.55439997  0.85000002
   0.53160000  0.05440000  0.85000002
   0.46840000  0.94560003  0.15000001
   0.96840000  0.94560003  0.34999999
   0.03160000  0.05440000  0.64999998
   0.46840000  0.55439997  0.64999998
   0.53160000  0.44560000  0.34999999
   0.60000002  0.69560003  0.78160000
   0.40000001  0.30440000  0.21840000
   0.89999998  0.30440000  0.28160000
   0.10000000  0.69560003  0.71840000
   0.40000001  0.19560000  0.71840000
   0.60000002  0.80439997  0.28160000
   0.10000000  0.80439997  0.21840000
   0.89999998  0.19560000  0.78160000
   0.78160000  0.60000002  0.69560003
   0.21840000  0.40000001  0.30440000
   0.28160000  0.89999998  0.30440000
   0.71840000  0.10000000  0.69560003
   0.71840000  0.40000001  0.19560000
   0.28160000  0.60000002  0.80439997
   0.21840000  0.10000000  0.80439997
   0.78160000  0.89999998  0.19560000
   0.69560003  0.78160000  0.60000002
   0.30440000  0.21840000  0.40000001
   0.30440000  0.28160000  0.89999998
   0.69560003  0.71840000  0.10000000
   0.19560000  0.71840000  0.40000001
   0.80439997  0.28160000  0.60000002
   0.80439997  0.21840000  0.10000000
   0.19560000  0.78160000  0.89999998
   0.44560000  0.85000002  0.46840000
   0.55439997  0.15000001  0.53160000
   0.05440000  0.15000001  0.96840000
   0.94560003  0.85000002  0.03160000
   0.94560003  0.64999998  0.53160000
   0.05440000  0.34999999  0.46840000
   0.55439997  0.34999999  0.03160000
   0.44560000  0.64999998  0.96840000
   0.34999999  0.03160000  0.55439997
   0.64999998  0.96840000  0.44560000
   0.64999998  0.53160000  0.94560003
   0.34999999  0.46840000  0.05440000
   0.15000001  0.96840000  0.05440000
   0.85000002  0.03160000  0.94560003
   0.85000002  0.46840000  0.44560000
   0.15000001  0.53160000  0.55439997
   0.53160000  0.94560003  0.64999998
   0.46840000  0.05440000  0.34999999
   0.03160000  0.55439997  0.34999999
   0.96840000  0.44560000  0.64999998
   0.46840000  0.44560000  0.85000002
   0.53160000  0.55439997  0.15000001
   0.96840000  0.05440000  0.15000001
   0.03160000  0.94560003  0.85000002
   0.12500000  0.00000000  0.25000000
   0.87500000  0.00000000  0.75000000
   0.37500000  0.00000000  0.75000000
   0.62500000  0.00000000  0.25000000
   0.87500000  0.50000000  0.25000000
   0.12500000  0.50000000  0.75000000
   0.62500000  0.50000000  0.75000000
   0.37500000  0.50000000  0.25000000
   0.25000000  0.12500000  0.00000000
   0.75000000  0.87500000  0.00000000
   0.75000000  0.37500000  0.00000000
   0.25000000  0.62500000  0.00000000
   0.25000000  0.87500000  0.50000000
   0.75000000  0.12500000  0.50000000
   0.75000000  0.62500000  0.50000000
   0.25000000  0.37500000  0.50000000
   0.00000000  0.25000000  0.12500000
   0.00000000  0.75000000  0.87500000
   0.00000000  0.75000000  0.37500000
   0.00000000  0.25000000  0.62500000
   0.50000000  0.25000000  0.87500000
   0.50000000  0.75000000  0.12500000
   0.50000000  0.75000000  0.62500000
   0.50000000  0.25000000  0.37500000
   0.00000000  0.00000000  0.00000000
   0.50000000  0.00000000  0.50000000
   0.00000000  0.50000000  0.50000000
   0.50000000  0.50000000  0.00000000
   0.75000000  0.25000000  0.25000000
   0.25000000  0.75000000  0.75000000
   0.75000000  0.75000000  0.75000000
   0.25000000  0.25000000  0.25000000
   0.25000000  0.25000000  0.75000000
   0.75000000  0.75000000  0.25000000
   0.25000000  0.75000000  0.25000000
   0.75000000  0.25000000  0.75000000
   0.50000000  0.50000000  0.50000000
   0.00000000  0.50000000  0.00000000
   0.50000000  0.00000000  0.00000000
   0.00000000  0.00000000  0.50000000
   0.18770000  0.92600000  0.90090001
   0.43770000  0.15090001  0.17600000
   0.15090001  0.67600000  0.56229997
   0.31230000  0.07400000  0.40090001
   0.84909999  0.82400000  0.56229997
   0.17600000  0.56229997  0.34909999
   0.34909999  0.67600000  0.43770000
   0.57400000  0.09910000  0.68770003
   0.09910000  0.18770000  0.42600000
   0.07400000  0.40090001  0.31230000
   0.59909999  0.68770003  0.92600000
   0.31230000  0.92600000  0.09910000
   0.17600000  0.06230000  0.65090001
   0.67600000  0.93770003  0.65090001
   0.56229997  0.34909999  0.17600000
   0.93770003  0.65090001  0.67600000
   0.43770000  0.34909999  0.67600000
   0.93770003  0.84909999  0.17600000
   0.07400000  0.90090001  0.68770003
   0.93770003  0.34909999  0.82400000
   0.84909999  0.17600000  0.93770003
   0.84909999  0.67600000  0.06230000
   0.67600000  0.56229997  0.15090001
   0.59909999  0.81229997  0.42600000
   0.82400000  0.43770000  0.65090001
   0.84909999  0.32400000  0.43770000
   0.43770000  0.84909999  0.32400000
   0.06230000  0.65090001  0.17600000
   0.59909999  0.18770000  0.07400000
   0.56229997  0.84909999  0.82400000
   0.81229997  0.57400000  0.90090001
   0.93770003  0.15090001  0.32400000
   0.50000000  0.75000000  0.37500000
   0.87500000  0.00000000  0.25000000
   0.62500000  0.50000000  0.25000000
   0.25000000  0.12500000  0.50000000
   0.50000000  0.25000000  0.62500000
   0.00000000  0.25000000  0.37500000
   0.25000000  0.87500000  0.00000000
   0.12500000  0.50000000  0.25000000
   0.62500000  0.00000000  0.75000000
   0.75000000  0.87500000  0.50000000
   0.50000000  0.75000000  0.87500000
   0.75000000  0.62500000  0.00000000
   0.00000000  0.75000000  0.62500000
   0.00000000  0.25000000  0.87500000
   0.25000000  0.62500000  0.50000000
   0.87500000  0.50000000  0.75000000
   0.75000000  0.12500000  0.00000000
   0.12500000  0.00000000  0.75000000
   0.50000000  0.25000000  0.12500000
   0.37500000  0.00000000  0.25000000
   0.25000000  0.37500000  0.00000000
   0.00000000  0.75000000  0.12500000
   0.75000000  0.37500000  0.50000000
   0.37500000  0.50000000  0.75000000
 
 position of ions in cartesian coordinates  (Angst):
   1.29652006  2.53595407  3.65094402
  11.66868007 10.42904569  9.31405614
   5.18608025 10.42904569 10.13344409
   7.77912057  2.53595407  2.83155606
  11.66868007  9.01845453  2.83155606
   1.29652006  3.94654601 10.13344409
   7.77912057  3.94654601  9.31405614
   5.18608025  9.01845453  3.65094402
   3.65100041  1.29650003  2.53595407
   9.31420001 11.66849983 10.42904569
  10.13360063  5.18600014 10.42904569
   2.83159980  7.77900040  2.53595407
   2.83159980 11.66849983  9.01845453
  10.13360063  1.29650003  3.94654601
   9.31420001  7.77900040  3.94654601
   3.65100041  5.18600014  9.01845453
   2.53599324  3.65094402  1.29650003
  10.42920679  9.31405614 11.66849983
  10.42920679 10.13344409  5.18600014
   2.53599324  2.83155606  7.77900040
   9.01859384  2.83155606 11.66849983
   3.94660697 10.13344409  1.29650003
   3.94660697  9.31405614  7.77900040
   9.01859384  3.65094402  5.18600014
  12.25989395  4.53774998 12.55530617
   0.70530686  8.42724979  0.40969398
   7.18790669  8.42724979  6.07280610
   5.77729335  4.53774998  6.89219406
   5.77729335  1.94475010  0.40969398
   7.18790669 11.02025044 12.55530617
   0.70530686 11.02025044  6.89219406
  12.25989395  1.94475010  6.07280610
  11.02042067  6.89219406  0.70529597
   1.94478014  6.07280610 12.25970457
   1.94478014  0.40969398  5.77720411
  11.02042067 12.55530617  7.18779566
   8.42737996  6.07280610  7.18779566
   4.53782007  6.89219406  5.77720411
   4.53782007 12.55530617 12.25970457
   8.42737996  0.40969398  0.70529597
   0.40970031  5.77720411  1.94475010
  12.55550012  7.18779566 11.02025044
   6.89230052  0.70529597 11.02025044
   6.07289990 12.25970457  1.94475010
  12.55550012 12.25970457  4.53774998
   0.40970031  0.70529597  8.42724979
   6.07289990  7.18779566  8.42724979
   6.89230052  5.77720411  4.53774998
   7.77912057  9.01845453 10.13344409
   5.18608025  3.94654601  2.83155606
  11.66868007  3.94654601  3.65094402
   1.29652006  9.01845453  9.31405614
   5.18608025  2.53595407  9.31405614
   7.77912057 10.42904569  3.65094402
   1.29652006 10.42904569  2.83155606
  11.66868007  2.53595407 10.13344409
  10.13360063  7.77900040  9.01845453
   2.83159980  5.18600014  3.94654601
   3.65100041 11.66849983  3.94654601
   9.31420001  1.29650003  9.01845453
   9.31420001  5.18600014  2.53595407
   3.65100041  7.77900040 10.42904569
   2.83159980  1.29650003 10.42904569
  10.13360063 11.66849983  2.53595407
   9.01859384 10.13344409  7.77900040
   3.94660697  2.83155606  5.18600014
   3.94660697  3.65094402 11.66849983
   9.01859384  9.31405614  1.29650003
   2.53599324  9.31405614  5.18600014
  10.42920679  3.65094402  7.77900040
  10.42920679  2.83155606  1.29650003
   2.53599324 10.13344409 11.66849983
   5.77729335 11.02025044  6.07280610
   7.18790669  1.94475010  6.89219406
   0.70530686  1.94475010 12.55530617
  12.25989395 11.02025044  0.40969398
  12.25989395  8.42724979  6.89219406
   0.70530686  4.53774998  6.07280610
   7.18790669  4.53774998  0.40969398
   5.77729335  8.42724979 12.55530617
   4.53782007  0.40969398  7.18779566
   8.42737996 12.55530617  5.77720411
   8.42737996  6.89219406 12.25970457
   4.53782007  6.07280610  0.70529597
   1.94478014 12.55530617  0.70529597
  11.02042067  0.40969398 12.25970457
  11.02042067  6.07280610  5.77720411
   1.94478014  6.89219406  7.18779566
   6.89230052 12.25970457  8.42724979
   6.07289990  0.70529597  4.53774998
   0.40970031  7.18779566  4.53774998
  12.55550012  5.77720411  8.42724979
   6.07289990  5.77720411 11.02025044
   6.89230052  7.18779566  1.94475010
  12.55550012  0.70529597  1.94475010
   0.40970031 12.25970457 11.02025044
   1.62065005  0.00000000  3.24125004
  11.34455037  0.00000000  9.72375011
   4.86195016  0.00000000  9.72375011
   8.10325027  0.00000000  3.24125004
  11.34455037  6.48250008  3.24125004
   1.62065005  6.48250008  9.72375011
   8.10325027  6.48250008  9.72375011
   4.86195016  6.48250008  3.24125004
   3.24130011  1.62062502  0.00000000
   9.72390032 11.34437513  0.00000000
   9.72390032  4.86187506  0.00000000
   3.24130011  8.10312510  0.00000000
   3.24130011 11.34437513  6.48250008
   9.72390032  1.62062502  6.48250008
   9.72390032  8.10312510  6.48250008
   3.24130011  4.86187506  6.48250008
   0.00000000  3.24125004  1.62062502
   0.00000000  9.72375011 11.34437513
   0.00000000  9.72375011  4.86187506
   0.00000000  3.24125004  8.10312510
   6.48260021  3.24125004 11.34437513
   6.48260021  9.72375011  1.62062502
   6.48260021  9.72375011  8.10312510
   6.48260021  3.24125004  4.86187506
   0.00000000  0.00000000  0.00000000
   6.48260021  0.00000000  6.48250008
   0.00000000  6.48250008  6.48250008
   6.48260021  6.48250008  0.00000000
   9.72390032  3.24125004  3.24125004
   3.24130011  9.72375011  9.72375011
   9.72390032  9.72375011  9.72375011
   3.24130011  3.24125004  3.24125004
   3.24130011  3.24125004  9.72375011
   9.72390032  9.72375011  3.24125004
   3.24130011  9.72375011  3.24125004
   9.72390032  3.24125004  9.72375011
   6.48260021  6.48250008  6.48250008
   0.00000000  6.48250008  0.00000000
   6.48260021  0.00000000  0.00000000
   0.00000000  0.00000000  6.48250008
   2.43356816 12.00559013 11.68016872
   5.67486826  1.95641860  2.28184001
   1.95644882  8.76434009  7.29021916
   4.04903205  0.95941002  5.19766864
  11.00875160 10.68316014  7.29021916
   2.28187526  7.29021916  4.52608148
   4.52615139  8.76434009  5.67478061
   7.44202506  1.28483153  8.91603103
   1.28485138  2.43353057  5.52309005
   0.95942484  5.19766864  4.04896951
   7.76745150  8.91603103 12.00559013
   4.04903205 12.00559013  1.28483153
   2.28187526  0.80771947  8.43891868
   8.76447547 12.15728107  8.43891868
   7.29033177  4.52608148  2.28184001
  12.15746887  8.43891868  8.76434009
   5.67486826  4.52608148  8.76434009
  12.15746887 11.00858155  2.28184001
   0.95942484 11.68016872  8.91603103
  12.15746887  4.52608148 10.68316014
  11.00875160  2.28184001 12.15728107
  11.00875160  8.76434009  0.80771947
   8.76447547  7.29021916  1.95641860
   7.76745150 10.53146920  5.52309005
  10.68332516  5.67478061  8.43891868
  11.00875160  4.20066006  5.67478061
   5.67486826 11.00858155  4.20066006
   0.80773195  8.43891868  2.28184001
   7.76745150  2.43353057  0.95941002
   7.29033177 11.00858155 10.68316014
  10.53163188  7.44191010 11.68016872
  12.15746887  1.95641860  4.20066006
   6.48260021  9.72375011  4.86187506
  11.34455037  0.00000000  3.24125004
   8.10325027  6.48250008  3.24125004
   3.24130011  1.62062502  6.48250008
   6.48260021  3.24125004  8.10312510
   0.00000000  3.24125004  4.86187506
   3.24130011 11.34437513  0.00000000
   1.62065005  6.48250008  3.24125004
   8.10325027  0.00000000  9.72375011
   9.72390032 11.34437513  6.48250008
   6.48260021  9.72375011 11.34437513
   9.72390032  8.10312510  0.00000000
   0.00000000  9.72375011  8.10312510
   0.00000000  3.24125004 11.34437513
   3.24130011  8.10312510  6.48250008
  11.34455037  6.48250008  9.72375011
   9.72390032  1.62062502  0.00000000
   1.62065005  0.00000000  9.72375011
   6.48260021  3.24125004  1.62062502
   4.86195016  0.00000000  3.24125004
   3.24130011  4.86187506  0.00000000
   0.00000000  9.72375011  1.62062502
   9.72390032  4.86187506  6.48250008
   4.86195016  6.48250008  9.72375011
 


--------------------------------------------------------------------------------------------------------


 use parallel FFT for orbitals z direction half grid
 k-point  1 :   0.0000 0.0000 0.0000  plane waves:   27734

 maximum and minimum number of plane-waves per node :      1394     1380

 maximum number of plane-waves:     27734
 maximum index in each direction: 
   IXMAX=   23   IYMAX=   23   IZMAX=   23
   IXMIN=  -23   IYMIN=  -23   IZMIN=    0


 real space projection operators:
  total allocation   :      77700.81 KBytes
  max/ min on nodes  :       4379.07       2983.47


 parallel 3D FFT for wavefunctions:
    minimum data exchange during FFTs selected (reduces bandwidth)
 parallel 3D FFT for charge:
    minimum data exchange during FFTs selected (reduces bandwidth)


 total amount of memory used by VASP MPI-rank0    47981. kBytes
=======================================================================

   base      :      30000. kBytes
   nonlr-proj:       4789. kBytes
   fftplans  :       3250. kBytes
   grid      :       7798. kBytes
   one-center:        245. kBytes
   wavefun   :       1899. kBytes
 
     INWAV:  cpu time    0.0000: real time    0.0000
 Broyden mixing: mesh for mixing (old mesh)
   NGX = 47   NGY = 47   NGZ = 47
  (NGX  =192   NGY  =192   NGZ  =192)
  gives a total of 103823 points

 initial charge density was supplied:
 charge density of overlapping atoms calculated
 number of electron    1088.0000000 magnetization 
 keeping initial charge density in first step


--------------------------------------------------------------------------------------------------------


 Maximum index for non-local projection operator          465
 Maximum index for augmentation-charges          901 (set IRDMAX)


--------------------------------------------------------------------------------------------------------


 First call to EWALD:  gamma=   0.137
 Maximum number of real-space cells 3x 3x 3
 Maximum number of reciprocal cells 3x 3x 3

    FEWALD:  cpu time    0.0065: real time    0.0065


--------------------------------------- Iteration      1(   1)  ---------------------------------------


    POTLOK:  cpu time    0.0619: real time    0.0638
    SETDIJ:  cpu time    0.0169: real time    0.0171
     EDDAV:  cpu time    1.7552: real time    1.7741
       DOS:  cpu time    0.0007: real time    0.0007
    --------------------------------------------
      LOOP:  cpu time    1.8346: real time    1.8558

 eigenvalue-minimisations  :  1592
 total energy-change (2. order) : 0.2520202E+05  (-0.4224806E+05)
 number of electron    1088.0000000 magnetization 
 augmentation part     1088.0000000 magnetization 

 Free energy of the ion-electron system (eV)
  ---------------------------------------------------
  alpha Z        PSCENC =      3522.04392554
  Ewald energy   TEWEN  =    -65633.08768453
  -Hartree energ DENC   =    -19492.27736511
  -exchange      EXHF   =         0.00000000
  -V(xc)+E(xc)   XCENC  =      3996.17893466
  PAW double counting   =     65216.70259387   -64758.55430935
  entropy T*S    EENTRO =        -0.18400023
  eigenvalues    EBANDS =     19217.29498413
  atomic energy  EATOM  =     83133.90022879
  Solvation  Ediel_sol  =         0.00000000
  ---------------------------------------------------
  free energy    TOTEN  =     25202.01730776 eV

  energy without entropy =    25202.20130799  energy(sigma->0) =    25202.10930787


--------------------------------------------------------------------------------------------------------




--------------------------------------- Iteration      1(   2)  ---------------------------------------


     EDDAV:  cpu time    1.5581: real time    1.5713
       DOS:  cpu time    0.0008: real time    0.0008
    --------------------------------------------
      LOOP:  cpu time    1.5589: real time    1.5721

 eigenvalue-minimisations  :  1424
 total energy-change (2. order) :-0.1583245E+05  (-0.1456025E+05)
 number of electron    1088.0000000 magnetization 
 augmentation part     1088.0000000 magnetization 

 Free energy of the ion-electron system (eV)
  ---------------------------------------------------
  alpha Z        PSCENC =      3522.04392554
  Ewald energy   TEWEN  =    -65633.08768453
  -Hartree energ DENC   =    -19492.27736511
  -exchange      EXHF   =         0.00000000
  -V(xc)+E(xc)   XCENC  =      3996.17893466
  PAW double counting   =     65216.70259387   -64758.55430935
  entropy T*S    EENTRO =        -0.45596181
  eigenvalues    EBANDS =      3385.11583485
  atomic energy  EATOM  =     83133.90022879
  Solvation  Ediel_sol  =         0.00000000
  ---------------------------------------------------
  free energy    TOTEN  =      9369.56619690 eV

  energy without entropy =     9370.02215871  energy(sigma->0) =     9369.79417781


--------------------------------------------------------------------------------------------------------




--------------------------------------- Iteration      1(   3)  ---------------------------------------


     EDDAV:  cpu time    1.5979: real time    1.6113
       DOS:  cpu time    0.0007: real time    0.0007
    --------------------------------------------
      LOOP:  cpu time    1.5986: real time    1.6119

 eigenvalue-minimisations  :  1496
 total energy-change (2. order) :-0.6717458E+04  (-0.6121493E+04)
 number of electron    1088.0000000 magnetization 
 augmentation part     1088.0000000 magnetization 

 Free energy of the ion-electron system (eV)
  ---------------------------------------------------
  alpha Z        PSCENC =      3522.04392554
  Ewald energy   TEWEN  =    -65633.08768453
  -Hartree energ DENC   =    -19492.27736511
  -exchange      EXHF   =         0.00000000
  -V(xc)+E(xc)   XCENC  =      3996.17893466
  PAW double counting   =     65216.70259387   -64758.55430935
  entropy T*S    EENTRO =        -1.82648669
  eigenvalues    EBANDS =     -3330.97145062
  atomic energy  EATOM  =     83133.90022879
[...]
   0.765E+01 0.153E+01 0.389E+01   -.685E+01 -.157E+01 -.282E+01   -.933E+00 0.169E+00 -.106E+01   -.507E-04 0.479E-04 -.106E-04
   0.548E+00 -.190E+00 0.261E+01   -.429E+00 0.233E+00 -.231E+01   -.144E+00 -.211E-02 -.260E+00   0.151E-04 0.142E-04 -.172E-04
   0.159E+01 0.650E+00 0.619E+00   -.152E+01 -.551E+00 -.765E+00   -.110E+00 -.936E-01 0.550E-01   0.218E-04 0.350E-04 -.141E-05
   -.680E+01 0.264E+01 0.366E+01   0.588E+01 -.285E+01 -.264E+01   0.102E+01 0.331E+00 -.106E+01   0.729E-04 0.643E-05 -.297E-04
   0.861E+00 -.678E+00 0.201E+00   -.938E+00 0.845E+00 -.472E+00   -.301E-01 -.284E+00 0.419E+00   -.520E-04 -.309E-04 0.144E-04
   -.236E+00 0.312E-01 -.337E+01   0.123E+00 0.408E+00 0.351E+01   0.127E+00 -.459E+00 -.548E-01   -.199E-04 -.242E-04 -.859E-05
 -----------------------------------------------------------------------------------------------
   -.183E+02 -.131E+02 -.168E+02   -.137E-12 0.466E-12 0.306E-13   0.184E+02 0.131E+02 0.169E+02   0.345E-02 0.679E-03 -.344E-03
 
 
 POSITION                                       TOTAL-FORCE (eV/Angst)
 -----------------------------------------------------------------------------------
      1.26626      2.47621      3.72239         0.028551      0.013729      0.018417
     11.65998     10.40140      9.26896        -0.023256      0.009801     -0.032529
      5.12555     10.57979      9.99588        -0.021389     -0.018556     -0.001522
      7.74615      2.51096      2.84963        -0.004679      0.045131     -0.039294
     11.65723      9.04400      2.86054        -0.039297     -0.047207      0.002547
      1.27546      4.05540     10.03766        -0.020749     -0.038417      0.009348
      7.74605      3.92885      9.33473         0.033832      0.030791      0.020521
      5.19790      9.03883      3.67499        -0.044863     -0.073051      0.006110
      3.69663      1.26866      2.60613        -0.025904     -0.013139     -0.048069
      9.29088     11.69604     10.39336         0.015783      0.017296      0.018621
     10.14968      5.17060     10.41521         0.000624     -0.005066      0.054084
      2.76512      7.75891      2.59885         0.060010     -0.019187     -0.014010
      2.77759     11.73708      9.06849        -0.000048     -0.004010     -0.028645
     10.12714      1.28434      3.95592        -0.009152     -0.038242     -0.007176
      9.28064      7.76731      3.90340        -0.092030     -0.020009     -0.006733
      3.62551      5.22808      9.00559        -0.012368     -0.007208      0.004902
      2.47072      3.66988      1.36352         0.028010      0.018390      0.004126
     10.38394      9.32601     11.71794        -0.007999      0.003088      0.020818
     10.44833     10.04352      5.22806        -0.070776      0.018960      0.001821
      2.46925      2.77030      7.79980         0.019931      0.048236     -0.035664
      9.12353      2.76512     11.63370        -0.034987     -0.077376     -0.009245
      3.92501     10.09658      1.29658        -0.070888      0.022003      0.000908
      3.86711      9.33597      7.74523        -0.014204     -0.048711     -0.015197
      9.04477      3.58273      5.14408         0.017160      0.001537      0.014818
     12.24773      4.47392     12.50793         0.021090      0.026324      0.028683
      0.62243      8.41363      0.48406         0.144308     -0.002776     -0.043839
      7.23460      8.41942      6.14471        -0.029430     -0.012342     -0.010727
      5.70038      4.54233      6.93303         0.048673     -0.031712     -0.000005
      5.79979      1.94494      0.46985        -0.031888     -0.027527     -0.043779
      7.16794     10.97710     12.46810        -0.001369      0.008609      0.019609
      0.72986     11.05714      6.91478        -0.000814      0.022339     -0.018491
     12.27136      1.96366      6.03821         0.021900      0.015564     -0.002261
     10.98318      6.96678      0.59044         0.024258      0.012270      0.053710
      1.92876      6.17029     12.28200        -0.037837     -0.026946      0.007598
      1.92790      0.34801      5.77439         0.031548      0.008332     -0.023751
     10.97084     12.54946      7.20268        -0.000791      0.001490     -0.038921
      8.41231      6.17795      7.33924         0.001450      0.008701     -0.012175
      4.55022      6.92573      5.76220        -0.039877     -0.049843      0.058416
      4.42850     12.55164     12.41816         0.011392     -0.001125     -0.023986
      8.32442      0.40486      0.73762         0.002700     -0.010304     -0.003516
      0.31000      5.79274      1.99165         0.014349      0.015562      0.025029
     12.51264      7.20355     10.99408        -0.020728     -0.002615      0.024778
      6.76908      0.70306     10.98982         0.032556     -0.046507     -0.021202
      6.04103     12.16258      1.93854        -0.010022      0.010647      0.018835
     12.46836     12.28491      4.52400        -0.038513      0.009660     -0.002673
      0.39723      0.65281      8.43846         0.025717      0.058837     -0.037678
      5.95041      7.13039      8.42675        -0.074031     -0.031997     -0.019344
      6.79643      5.64150      4.61500        -0.028329      0.000712     -0.015971
      7.71774      9.14182     10.10776         0.022056     -0.050469     -0.008215
      5.18852      3.85484      2.89037         0.000803      0.024044     -0.032712
     11.63810      3.92443      3.73825         0.010627     -0.010788     -0.021889
      1.26512      9.01897      9.21699        -0.035231      0.002854      0.017386
      5.13733      2.62844      9.20850        -0.019221     -0.044276     -0.062397
      7.73736     10.43606      3.73298        -0.049037     -0.042856     -0.009002
      1.25347     10.45770      2.92456        -0.053852     -0.063951     -0.029893
     11.70587      2.62457     10.11698        -0.013146     -0.000765     -0.017424
     10.18349      7.76997      9.10621         0.003548      0.012050      0.033639
      2.83573      5.21435      3.94264         0.010621     -0.010978     -0.003139
      3.73656     11.63800      3.96897        -0.015905     -0.043608     -0.025238
      9.31108      1.27067      8.99920         0.011061      0.002104      0.014077
      9.27829      5.21056      2.50158        -0.000429     -0.040319     -0.023230
      3.54603      7.88282     10.52148        -0.035378     -0.004896     -0.034427
      2.84662      1.31681     10.49548        -0.025302     -0.029582     -0.047266
     10.10298     11.59489      2.47352         0.009151     -0.045902      0.007782
      9.06702     10.15027      7.79596        -0.046462     -0.013132      0.001202
      3.81907      2.80230      5.26802         0.134318      0.060507     -0.025853
      4.00755      3.54354     11.71187        -0.008026     -0.019847     -0.036307
      8.88617      9.26793      1.36522        -0.016849     -0.014277     -0.001841
      2.54802      9.28992      5.19552        -0.036071     -0.017137      0.025032
     10.41076      3.66791      7.68367        -0.019159      0.011082      0.012811
     10.45729      2.91411      1.25522         0.008192     -0.008037     -0.004752
      2.38031     10.14452     11.62912        -0.009311      0.052432     -0.051828
      5.81867     10.97470      6.12133        -0.047604     -0.017092     -0.007430
      7.21606      1.90065      6.90278         0.006454     -0.053177      0.045340
      0.66003      1.86938     12.62966         0.000131     -0.015677     -0.063038
     12.22188     10.94280      0.43045         0.016196     -0.008211     -0.016440
     12.31358      8.47159      6.95659        -0.061557      0.022915     -0.031975
      0.73988      4.59811      6.03817        -0.002117      0.026328     -0.010066
      7.19066      4.44944      0.37837        -0.004167     -0.014030     -0.028651
      5.82817      8.38614     12.63236        -0.019962      0.008894      0.008150
      4.47551      0.35292      7.16533        -0.005268      0.060895     -0.073786
      8.37983     12.52747      5.74703         0.013497     -0.021543     -0.020406
      8.39371      6.96277     12.22534         0.021656     -0.001445      0.047689
      4.53566      6.01494      0.77596        -0.001894     -0.059245     -0.034197
      1.90336     12.43544      0.72035        -0.026798     -0.026284      0.024435
     11.00323      0.39542     12.21760        -0.013681     -0.008935      0.001093
     10.99461      6.07269      5.90448         0.035919      0.049645     -0.087166
      1.98371      6.88436      7.16831        -0.036921     -0.019630      0.081426
      6.90338     12.34132      8.41640        -0.022080     -0.076792      0.005810
      6.00468      0.75061      4.52529         0.024667     -0.000465      0.021633
      0.36203      7.19025      4.54699         0.058660      0.020983     -0.027682
     12.48460      5.80984      8.44030        -0.017224      0.017765     -0.025810
      6.12809      5.68824     10.98231         0.020604      0.005649      0.005851
      6.91032      6.95172      1.99350        -0.051712     -0.004723     -0.018073
     12.58120      0.65675      2.01612         0.031959      0.074440     -0.028065
      0.37236     12.23882     10.99751        -0.026477      0.060111     -0.040039
      1.60505     -0.03918      3.22673         0.017862      0.015458     -0.002837
     11.31780      0.01257      9.74789        -0.017802     -0.018957     -0.024884
      4.79992      0.01269      9.68604        -0.004461     -0.001527      0.003831
      8.10211     -0.00134      3.21661        -0.038150      0.011110     -0.011350
     11.27373      6.44073      3.29740        -0.000203      0.022455     -0.018911
      1.68673      6.46759      9.78617        -0.015333     -0.007625     -0.006352
      8.04385      6.46290      9.72742        -0.017031      0.003825      0.016557
      4.92209      6.44916      3.25685        -0.051888     -0.009194     -0.036706
      3.19330      1.64262     -0.00132         0.009812     -0.004441     -0.001075
      9.69024     11.36930      0.02292        -0.029369     -0.002333      0.004274
      9.69938      4.84227     -0.03062        -0.012268     -0.018333      0.018634
      3.26596      8.05311     -0.03902        -0.033957     -0.009620     -0.009277
      3.22166     11.34550      6.46360        -0.000269      0.007936     -0.004314
      9.67539      1.62690      6.46110        -0.036503     -0.002363      0.018938
      9.65647      8.08350      6.48210        -0.019841     -0.035461      0.016256
      3.23027      4.87543      6.49528         0.009879      0.011527     -0.011280
     -0.00941      3.22968      1.62883         0.017577     -0.020989      0.007000
     -0.00303      9.73035     11.30264         0.024489     -0.009513      0.005149
     -0.04793      9.73412      4.89390        -0.011929     -0.010023      0.009169
      0.02650      3.22622      8.09132         0.000424      0.023640     -0.011150
      6.44354      3.21483     11.27046        -0.035153      0.022696     -0.006024
      6.45149      9.73351      1.58507        -0.046203     -0.021953      0.014375
      6.38204      9.65194      8.13426         0.012560     -0.001675      0.037303
      6.50970      3.26082      4.92694        -0.057071     -0.016755      0.007478
     -0.04378     -0.03285      0.08607         0.024151      0.026387     -0.024525
      6.43742     -0.01584      6.46563         0.004238      0.010624     -0.003830
      0.01474      6.51876      6.52902         0.033331      0.000313     -0.003670
      6.41974      6.41102     -0.04007        -0.033197     -0.004052     -0.004359
      9.69773      3.19265      3.18152        -0.017090     -0.024428      0.004830
      3.20524      9.74968      9.71154         0.003718     -0.061634      0.036626
      9.68014      9.70868      9.75059        -0.040487     -0.004626      0.025475
      3.20124      3.24615      3.25026         0.030665     -0.015927      0.005911
      3.22905      3.29449      9.79640         0.007218      0.013505     -0.015505
      9.69097      9.72097      3.28951        -0.072179     -0.002326     -0.009185
      3.19221      9.71079      3.22092         0.000848     -0.021658     -0.041944
      9.65785      3.24400      9.66936        -0.028645      0.018243      0.024745
      6.48446      6.46733      6.51238        -0.025355     -0.035488     -0.003821
      0.01466      6.42356     -0.01042         0.075262      0.019754     -0.020719
      6.41488     -0.02709     -0.04061        -0.013002      0.002245      0.004340
     -0.05764     -0.01231      6.42765         0.022623      0.026515      0.007397
      2.23798     12.04793     11.16520        -0.016006      0.073679     -0.235158
      5.65730      1.97766      2.38391        -0.041291      0.046714     -0.089856
      1.91851      8.75421      7.22870         0.222626     -0.069533     -0.009558
      4.03498      0.95376      5.00011         0.078002      0.030333      0.265328
     10.93694     10.68556      7.46004        -0.076347     -0.016372     -0.092481
      2.32631      7.40896      4.73787         0.014887      0.009977      0.012275
      4.60207      8.79447      5.53659        -0.048390     -0.057714      0.086099
      7.44944      1.23856      8.74257        -0.012391     -0.105784      0.115724
      1.99569      2.19330      5.66360         0.027538     -0.001887      0.121786
      0.99061      5.36010      4.14170         0.022766      0.033849     -0.137742
      7.70428      8.77805     11.91988        -0.020334      0.013615      0.021425
      4.19609     12.01878      1.44607        -0.022320     -0.022319      0.067122
      2.28054      0.85212      7.99330         0.091486      0.102754     -0.031885
      8.77069     12.04362      8.19779        -0.017240     -0.046396     -0.023916
      7.39354      4.80100      2.21482        -0.081519     -0.109100      0.018137
     12.06180      8.13250      8.81312        -0.014552      0.017071     -0.013482
      5.45071      4.95841      8.81381        -0.014624      0.056601     -0.054848
     12.02123     10.99162      2.29962         0.096183     -0.143187      0.001494
      0.96689     11.75641      8.87721         0.016174      0.111199      0.014750
     12.00171      4.54680     10.64101        -0.006041      0.016510      0.013892
     11.35531      2.33681     11.96194         0.023643     -0.049952     -0.029851
     11.77902      8.84044      0.99573        -0.031579      0.059666      0.053949
      8.69312      7.37008      1.91813        -0.091782     -0.018195      0.008822
      7.85643     10.63143      5.66725         0.058800     -0.022737     -0.014606
     10.65146      5.52776      7.81275         0.023563     -0.015235     -0.023974
     10.98237      4.21319      5.57905        -0.023701      0.035803     -0.025902
      5.66496     10.88196      4.27318         0.016256     -0.103391      0.008802
      0.81413      7.96780      2.43796         0.164995     -0.060382     -0.045520
      7.62672      2.40882      0.98585        -0.049733      0.069738     -0.029636
      7.39648     11.28834     10.52774         0.005307      0.180465      0.001625
     10.70370      7.47191     11.48458        -0.031010     -0.015221     -0.015140
     12.02535      1.58517      4.16771        -0.022307     -0.036447      0.030773
      7.01948      8.74935      4.35193         0.053753     -0.104602     -0.001856
     11.17394     -0.03287      3.12506         0.024096     -0.000332     -0.108215
      8.23043      6.27249      3.76232         0.049765     -0.137963      0.082270
      4.20765      2.19358      7.16762         0.166740      0.069377      0.204936
      6.54531      3.24316      8.00133         0.098420      0.013967      0.043526
      0.06919      3.32711      4.90023         0.028555      0.018685     -0.012246
      3.17237     11.14478     -0.05074         0.052884      0.084686     -0.110213
      2.22898      5.84133      2.12635        -0.006744     -0.131040     -0.069146
      8.60266      0.55367     10.69467         0.080406      0.201668      0.204763
     10.11568     11.79933      5.65044         0.117145      0.087388     -0.195693
      5.79251      9.86546     11.50968        -0.030229      0.087826      0.062282
      9.61624      8.19257      0.09001         0.021177     -0.002178      0.030972
      0.05180      9.83697      8.06897         0.029881      0.004958     -0.025574
      0.52079      3.24617     11.47562         0.065410      0.187682      0.164273
      3.89786      7.49010      7.50241         0.181000     -0.067821      0.224286
     11.32105      6.40875      9.74563        -0.019896      0.001482     -0.007392
      9.70941      1.50596      0.16461        -0.003773      0.005444      0.036545
      1.09291      0.89482     10.24262        -0.085144      0.197329      0.097324
      5.34778      3.90942      0.99851        -0.140501      0.120886      0.006866
      4.92886     -0.05759      3.25976        -0.025517      0.040278      0.045010
      3.19612      4.85261     -0.10947        -0.036433      0.005424     -0.091433
      1.00574     10.27121      1.08351         0.097328      0.115731     -0.042016
      9.01376      4.65671      6.59923        -0.106721     -0.117111      0.147998
      4.85856      6.73872      9.99259         0.013167     -0.019975      0.085299
 -----------------------------------------------------------------------------------
    total drift:                                0.022717      0.004784      0.040916


--------------------------------------------------------------------------------------------------------



  FREE ENERGIE OF THE ION-ELECTRON SYSTEM (eV)
  ---------------------------------------------------
  free  energy   TOTEN  =     -1372.41542085 eV

  energy  without entropy=    -1372.41542085  energy(sigma->0) =    -1372.41542085
 
 d Force = 0.3188598E+00[ 0.291E+00, 0.347E+00]  d Energy = 0.3193984E+00-0.539E-03
 d Force = 0.1196583E+02[ 0.113E+02, 0.126E+02]  d Ewald  = 0.1197252E+02-0.669E-02


--------------------------------------------------------------------------------------------------------


    POTLOK:  cpu time    0.0742: real time    0.0762


--------------------------------------------------------------------------------------------------------


 Quasi-Newton relaxation of ions (Broydens 2nd method)
  g(Force)  = 0.760E-01   g(Stress)= 0.000E+00

 retain information from N=  1 steps
 eigenvalues of (default step * inverse Hessian matrix)
  average eigenvalue of G=   6.1084
 eigenvalue spectrum of G is  6.1084


--------------------------------------------------------------------------------------------------------


     LOOP+:  cpu time   34.2461: real time   34.5599
    4ORBIT:  cpu time    0.0000: real time    0.0000

 total amount of memory used by VASP MPI-rank0    47981. kBytes
=======================================================================

   base      :      30000. kBytes
   nonlr-proj:       4789. kBytes
   fftplans  :       3250. kBytes
   grid      :       7798. kBytes
   one-center:        245. kBytes
   wavefun   :       1899. kBytes
 
  
  
 General timing and accounting informations for this job:
 ========================================================
  
                  Total CPU time used (sec):      720.422
                            User time (sec):      718.393
                          System time (sec):        2.029
                         Elapsed time (sec):      728.295
  
                   Maximum memory used (kb):      346600.
                   Average memory used (kb):           0.
  
                          Minor page faults:       196172
                          Major page faults:            0
                 Voluntary context switches:         8801
