<?xml version="1.0" encoding="ISO-8859-1"?>
<modeling>
 <generator>
  <i name="program" type="string">vasp </i>
  <i name="version" type="string">5.4.4.18Apr17-6-g9f103f2a35  </i>
  <i name="subversion" type="string">(build May 01 2020 14:22:42) gamma-only         parallel </i>
  <i name="platform" type="string">LinuxIFC </i>
  <i name="date" type="string">2022 02 25 </i>
  <i name="time" type="string">05:06:06 </i>
 </generator>
 <incar>
  <i type="string" name="PREC">accurate</i>
  <i type="int" name="IBRION">     1</i>
  <i name="EDIFF">      0.00000100</i>
  <i name="EDIFFG">     -0.01000000</i>
  <i type="int" name="NSW">    20</i>
  <i type="int" name="ISIF">     2</i>
  <i type="int" name="ISYM">     0</i>
  <i name="ENCUT">    500.00000000</i>
  <i type="string" name="LREAL"> Auto</i>
  <i type="int" name="ISMEAR">     0</i>
  <i name="SIGMA">      0.20000000</i>
  <i type="logical" name="LWAVE"> F  </i>
  <i type="logical" name="LCHARG"> F  </i>
  <v type="int" name="KPOINT_BSE">    -1     0     0     0</v>
 </incar>
 <structure name="primitive_cell" >
  <crystal>
   <varray name="basis" >
    <v>      12.96520042       0.00000000       0.00000000 </v>
    <v>       0.00000000      12.96500015       0.00000000 </v>
    <v>       0.00000000       0.00000000      12.96500015 </v>
   </varray>
   <i name="volume">   2179.33647298 </i>
   <varray name="rec_basis" >
    <v>       0.07712954       0.00000000       0.00000000 </v>
    <v>       0.00000000       0.07713074       0.00000000 </v>
    <v>       0.00000000       0.00000000       0.07713074 </v>
   </varray>
  </crystal>
  <varray name="positions" >
   <v>       0.10000000       0.19560000       0.28160000 </v>
   <v>       0.09910000       0.18770000       0.42600000 </v>
   <v>       0.00000000       0.25000000       0.37500000 </v>
   <v>       0.25000000       0.25000000       0.25000000 </v>
   <v>      -0.06229997       0.15090001       0.32400000 </v>
   <v>       0.00000000       0.25000000       0.12500000 </v>
   <v>       0.12500000       0.00000000       0.25000000 </v>
   <v>       0.07400000       0.40090001       0.31230000 </v>
   <v>       0.19560000       0.28160000       0.10000000 </v>
   <v>       0.28160000       0.10000000       0.19560000 </v>
   <v>      -0.10000002       0.30440000       0.28160000 </v>
   <v>      -0.03160000       0.05440000       0.15000001 </v>
   <v>       0.15000001       0.03160000       0.44560000 </v>
   <v>       0.21840000       0.40000001       0.30440000 </v>
   <v>       0.30440000       0.21840000       0.40000001 </v>
   <v>       0.05440000       0.34999999       0.46840000 </v>
   <v>      -0.05439997       0.15000001       0.46840000 </v>
   <v>       0.31230000       0.07400000       0.40090001 </v>
   <v>       0.25000000       0.12500000      -0.50000000 </v>
   <v>       0.03160000       0.44560000       0.15000001 </v>
   <v>      -0.03160000      -0.05439997       0.34999999 </v>
   <v>      -0.12500000       0.00000000       0.25000000 </v>
   <v>       0.12500000      -0.50000000       0.25000000 </v>
   <v>       0.00000000       0.00000000      -0.50000000 </v>
   <v>       0.05440000       0.15000001      -0.03160000 </v>
   <v>       0.25000000       0.37500000      -0.50000000 </v>
   <v>      -0.15090001       0.32400000       0.43770000 </v>
   <v>       0.15000001      -0.03160000       0.05440000 </v>
   <v>       0.40000001       0.30440000       0.21840000 </v>
   <v>       0.25000000       0.12500000       0.00000000 </v>
   <v>       0.19560000       0.21840000      -0.39999998 </v>
   <v>      -0.21840000       0.10000000       0.30440000 </v>
   <v>       0.37500000       0.00000000       0.25000000 </v>
   <v>       0.28160000      -0.10000002       0.30440000 </v>
   <v>      -0.19560003       0.21840000       0.10000000 </v>
   <v>      -0.25000000       0.25000000       0.25000000 </v>
   <v>       0.43770000       0.15090001       0.17600000 </v>
   <v>       0.00000000       0.00000000       0.00000000 </v>
   <v>       0.00000000       0.25000000      -0.37500000 </v>
   <v>       0.25000000       0.37500000       0.00000000 </v>
   <v>       0.03160000      -0.44560003       0.34999999 </v>
   <v>      -0.12500000      -0.50000000       0.25000000 </v>
   <v>       0.17600000      -0.43770003       0.34909999 </v>
   <v>      -0.05439997       0.34999999      -0.03160000 </v>
   <v>       0.00000000      -0.50000000      -0.50000000 </v>
   <v>       0.31230000      -0.07400000       0.09910000 </v>
   <v>       0.10000000      -0.19560003       0.21840000 </v>
   <v>      -0.06229997      -0.15090001       0.17600000 </v>
   <v>       0.17600000       0.06230000      -0.34909999 </v>
   <v>       0.03160000       0.05440000      -0.35000002 </v>
   <v>       0.46840000       0.05440000       0.34999999 </v>
   <v>       0.34999999       0.03160000      -0.44560003 </v>
   <v>      -0.14999998       0.46840000       0.44560000 </v>
   <v>       0.37500000      -0.50000000       0.25000000 </v>
   <v>      -0.50000000       0.25000000       0.37500000 </v>
   <v>       0.25000000      -0.12500000      -0.50000000 </v>
   <v>      -0.25000000       0.12500000      -0.50000000 </v>
   <v>       0.00000000       0.25000000      -0.12500000 </v>
   <v>      -0.15090001       0.17600000      -0.06229997 </v>
   <v>       0.00000000      -0.50000000       0.00000000 </v>
   <v>       0.05440000      -0.14999998      -0.46840000 </v>
   <v>       0.44560000       0.15000001       0.03160000 </v>
   <v>       0.21840000      -0.39999998       0.19560000 </v>
   <v>      -0.30439997       0.28160000       0.40000001 </v>
   <v>      -0.50000000       0.25000000       0.12500000 </v>
   <v>      -0.14999998      -0.03160000      -0.44560003 </v>
   <v>       0.34999999       0.46840000       0.05440000 </v>
   <v>       0.15000001       0.46840000      -0.05439997 </v>
   <v>       0.15000001      -0.46840000      -0.44560003 </v>
   <v>       0.30440000       0.28160000      -0.10000002 </v>
   <v>      -0.28160000       0.40000001       0.19560000 </v>
   <v>      -0.19560003       0.28160000      -0.39999998 </v>
   <v>      -0.21840000      -0.10000002       0.19560000 </v>
   <v>      -0.14999998       0.03160000      -0.05439997 </v>
   <v>       0.34999999      -0.46840000       0.44560000 </v>
   <v>      -0.25000000       0.37500000      -0.50000000 </v>
   <v>       0.25000000      -0.12500000       0.00000000 </v>
   <v>      -0.05439997      -0.14999998       0.03160000 </v>
   <v>       0.44560000       0.34999999      -0.46840000 </v>
   <v>      -0.25000000       0.12500000       0.00000000 </v>
   <v>      -0.03160000       0.44560000      -0.35000002 </v>
   <v>       0.46840000      -0.05439997       0.15000001 </v>
   <v>       0.00000000      -0.25000000       0.37500000 </v>
   <v>       0.06230000      -0.34909999       0.17600000 </v>
   <v>       0.25000000      -0.25000000       0.25000000 </v>
   <v>       0.18770000      -0.07400000      -0.09909999 </v>
   <v>       0.34999999      -0.03160000      -0.05439997 </v>
   <v>      -0.14999998      -0.46840000       0.05440000 </v>
   <v>       0.00000000      -0.25000000       0.12500000 </v>
   <v>      -0.25000000       0.37500000       0.00000000 </v>
   <v>       0.43770000      -0.15090001       0.32400000 </v>
   <v>       0.25000000       0.25000000      -0.25000000 </v>
   <v>      -0.50000000       0.00000000      -0.50000000 </v>
   <v>       0.28160000       0.40000001      -0.30439997 </v>
   <v>       0.30440000      -0.21840000       0.10000000 </v>
   <v>      -0.43770003       0.34909999       0.17600000 </v>
   <v>       0.19560000      -0.28160000       0.40000001 </v>
   <v>       0.21840000       0.10000000      -0.19560003 </v>
   <v>       0.07400000      -0.09909999      -0.31229997 </v>
   <v>       0.03160000      -0.05439997      -0.14999998 </v>
   <v>      -0.46840000       0.44560000       0.34999999 </v>
   <v>      -0.39999998       0.19560000       0.21840000 </v>
   <v>       0.25000000      -0.37500000      -0.50000000 </v>
   <v>       0.12500000       0.00000000      -0.25000000 </v>
   <v>      -0.06229997       0.34909999      -0.17600000 </v>
   <v>       0.10000000       0.30440000      -0.21840000 </v>
   <v>      -0.37500000       0.00000000       0.25000000 </v>
   <v>       0.05440000      -0.35000002       0.03160000 </v>
   <v>      -0.44560003       0.15000001      -0.46840000 </v>
   <v>      -0.17600000       0.43770000      -0.34909999 </v>
   <v>       0.21840000      -0.10000002      -0.30439997 </v>
   <v>      -0.19560003      -0.21840000       0.40000001 </v>
   <v>      -0.25000000      -0.12500000      -0.50000000 </v>
   <v>       0.44560000      -0.14999998       0.46840000 </v>
   <v>      -0.50000000       0.00000000       0.00000000 </v>
   <v>      -0.15090001      -0.17600000      -0.43770003 </v>
   <v>       0.40000001       0.19560000      -0.28160000 </v>
   <v>      -0.50000000       0.25000000      -0.37500000 </v>
   <v>      -0.35000002       0.03160000       0.05440000 </v>
   <v>      -0.35000002      -0.03160000       0.44560000 </v>
   <v>       0.25000000      -0.37500000       0.00000000 </v>
   <v>      -0.10000002       0.19560000      -0.21840000 </v>
   <v>      -0.40090001       0.18770000       0.07400000 </v>
   <v>      -0.05439997      -0.35000002      -0.46840000 </v>
   <v>      -0.44560003       0.34999999       0.03160000 </v>
   <v>       0.43770000       0.34909999      -0.32400000 </v>
   <v>      -0.10000002      -0.30439997       0.21840000 </v>
   <v>      -0.50000000      -0.50000000      -0.50000000 </v>
   <v>      -0.25000000      -0.12500000       0.00000000 </v>
   <v>      -0.12500000       0.00000000      -0.25000000 </v>
   <v>      -0.28160000      -0.39999998       0.30440000 </v>
   <v>      -0.30439997       0.21840000      -0.10000002 </v>
   <v>       0.15090001      -0.32400000      -0.43770003 </v>
   <v>       0.12500000      -0.50000000      -0.25000000 </v>
   <v>       0.34909999      -0.32400000       0.43770000 </v>
   <v>      -0.37500000      -0.50000000       0.25000000 </v>
   <v>      -0.25000000      -0.25000000       0.25000000 </v>
   <v>       0.19560000      -0.21840000      -0.10000002 </v>
   <v>      -0.28160000       0.10000000      -0.30439997 </v>
   <v>       0.00000000      -0.25000000      -0.37500000 </v>
   <v>      -0.50000000       0.25000000      -0.12500000 </v>
   <v>      -0.32400000      -0.43770003       0.15090001 </v>
   <v>      -0.50000000      -0.50000000       0.00000000 </v>
   <v>      -0.03160000      -0.44560003      -0.14999998 </v>
   <v>      -0.46840000      -0.44560003       0.15000001 </v>
   <v>       0.37500000       0.00000000      -0.25000000 </v>
   <v>       0.40000001      -0.30439997       0.28160000 </v>
   <v>      -0.15090001      -0.32400000       0.06230000 </v>
   <v>      -0.25000000       0.25000000      -0.25000000 </v>
   <v>      -0.35000002       0.46840000      -0.44560003 </v>
   <v>      -0.25000000      -0.37500000      -0.50000000 </v>
   <v>      -0.12500000      -0.50000000      -0.25000000 </v>
   <v>      -0.50000000      -0.25000000       0.37500000 </v>
   <v>       0.30440000      -0.28160000      -0.39999998 </v>
   <v>      -0.21840000       0.40000001      -0.19560003 </v>
   <v>      -0.18770003      -0.42600000      -0.09909999 </v>
   <v>       0.00000000      -0.25000000      -0.12500000 </v>
   <v>      -0.32400000      -0.06229997      -0.34909999 </v>
   <v>      -0.50000000      -0.25000000       0.12500000 </v>
   <v>      -0.10000002      -0.19560003      -0.28160000 </v>
   <v>       0.46840000       0.44560000      -0.14999998 </v>
   <v>      -0.46840000      -0.05439997      -0.35000002 </v>
   <v>      -0.25000000      -0.37500000       0.00000000 </v>
   <v>       0.37500000      -0.50000000      -0.25000000 </v>
   <v>      -0.06229997      -0.34909999      -0.32400000 </v>
   <v>      -0.46840000       0.05440000      -0.14999998 </v>
   <v>      -0.42600000       0.09910000      -0.31229997 </v>
   <v>       0.46840000      -0.44560003      -0.35000002 </v>
   <v>      -0.39999998      -0.19560003       0.28160000 </v>
   <v>      -0.40090001      -0.18770003       0.42600000 </v>
   <v>       0.44560000      -0.35000002      -0.03160000 </v>
   <v>      -0.44560003      -0.14999998      -0.03160000 </v>
   <v>       0.28160000      -0.39999998      -0.19560003 </v>
   <v>      -0.30439997      -0.28160000       0.10000000 </v>
   <v>      -0.35000002      -0.46840000      -0.05439997 </v>
   <v>      -0.21840000      -0.39999998      -0.30439997 </v>
   <v>      -0.30439997      -0.21840000      -0.39999998 </v>
   <v>       0.25000000      -0.25000000      -0.25000000 </v>
   <v>       0.10000000      -0.30439997      -0.28160000 </v>
   <v>      -0.44560003      -0.35000002       0.46840000 </v>
   <v>      -0.39999998       0.30440000      -0.28160000 </v>
   <v>      -0.19560003      -0.28160000      -0.10000002 </v>
   <v>      -0.28160000      -0.10000002      -0.19560003 </v>
   <v>      -0.50000000      -0.25000000      -0.37500000 </v>
   <v>      -0.37500000       0.00000000      -0.25000000 </v>
   <v>       0.40000001      -0.19560003      -0.21840000 </v>
   <v>      -0.50000000      -0.25000000      -0.12500000 </v>
   <v>      -0.37500000      -0.50000000      -0.25000000 </v>
   <v>      -0.25000000      -0.25000000      -0.25000000 </v>
   <v>      -0.43770003      -0.15090001      -0.17600000 </v>
   <v>      -0.40090001      -0.31229997      -0.07400000 </v>
   <v>      -0.39999998      -0.30439997      -0.21840000 </v>
  </varray>
 </structure>
 <varray name="primitive_index" >
  <v type="int" >        1 </v>
  <v type="int" >      145 </v>
  <v type="int" >      174 </v>
  <v type="int" >      128 </v>
  <v type="int" >      168 </v>
  <v type="int" >      113 </v>
  <v type="int" >       97 </v>
  <v type="int" >      146 </v>
  <v type="int" >       17 </v>
  <v type="int" >        9 </v>
  <v type="int" >       51 </v>
  <v type="int" >       95 </v>
  <v type="int" >       35 </v>
  <v type="int" >       58 </v>
  <v type="int" >       66 </v>
  <v type="int" >       78 </v>
  <v type="int" >       32 </v>
  <v type="int" >      140 </v>
  <v type="int" >      172 </v>
  <v type="int" >       41 </v>
  <v type="int" >       45 </v>
  <v type="int" >      170 </v>
  <v type="int" >      176 </v>
  <v type="int" >      136 </v>
  <v type="int" >       75 </v>
  <v type="int" >      112 </v>
  <v type="int" >      162 </v>
  <v type="int" >       85 </v>
  <v type="int" >       50 </v>
  <v type="int" >      105 </v>
  <v type="int" >       20 </v>
  <v type="int" >       14 </v>
  <v type="int" >      188 </v>
  <v type="int" >       59 </v>
  <v type="int" >       71 </v>
  <v type="int" >      125 </v>
  <v type="int" >      138 </v>
  <v type="int" >      121 </v>
  <v type="int" >      116 </v>
  <v type="int" >      189 </v>
  <v type="int" >       91 </v>
  <v type="int" >      101 </v>
  <v type="int" >      142 </v>
  <v type="int" >       25 </v>
  <v type="int" >      123 </v>
  <v type="int" >      148 </v>
  <v type="int" >       55 </v>
  <v type="int" >      154 </v>
  <v type="int" >      149 </v>
  <v type="int" >       46 </v>
  <v type="int" >       90 </v>
  <v type="int" >       81 </v>
  <v type="int" >       87 </v>
  <v type="int" >      104 </v>
  <v type="int" >      120 </v>
  <v type="int" >      109 </v>
  <v type="int" >      110 </v>
  <v type="int" >      182 </v>
  <v type="int" >      157 </v>
  <v type="int" >      134 </v>
  <v type="int" >       31 </v>
  <v type="int" >       29 </v>
  <v type="int" >       12 </v>
  <v type="int" >       24 </v>
  <v type="int" >      187 </v>
  <v type="int" >       36 </v>
  <v type="int" >       84 </v>
  <v type="int" >       34 </v>
  <v type="int" >       88 </v>
  <v type="int" >       67 </v>
  <v type="int" >       61 </v>
  <v type="int" >       70 </v>
  <v type="int" >       64 </v>
  <v type="int" >       86 </v>
  <v type="int" >       38 </v>
  <v type="int" >      191 </v>
  <v type="int" >      175 </v>
  <v type="int" >       76 </v>
  <v type="int" >       28 </v>
  <v type="int" >      185 </v>
  <v type="int" >       92 </v>
  <v type="int" >       44 </v>
  <v type="int" >      115 </v>
  <v type="int" >      164 </v>
  <v type="int" >      131 </v>
  <v type="int" >      137 </v>
  <v type="int" >       39 </v>
  <v type="int" >       33 </v>
  <v type="int" >      190 </v>
  <v type="int" >      107 </v>
  <v type="int" >      163 </v>
  <v type="int" >      129 </v>
  <v type="int" >      122 </v>
  <v type="int" >       16 </v>
  <v type="int" >       22 </v>
  <v type="int" >      151 </v>
  <v type="int" >       69 </v>
  <v type="int" >       63 </v>
  <v type="int" >      155 </v>
  <v type="int" >       96 </v>
  <v type="int" >       48 </v>
  <v type="int" >        4 </v>
  <v type="int" >      183 </v>
  <v type="int" >      186 </v>
  <v type="int" >      156 </v>
  <v type="int" >        6 </v>
  <v type="int" >      100 </v>
  <v type="int" >       26 </v>
  <v type="int" >       74 </v>
  <v type="int" >      161 </v>
  <v type="int" >       13 </v>
  <v type="int" >       19 </v>
  <v type="int" >      178 </v>
  <v type="int" >       73 </v>
  <v type="int" >      135 </v>
  <v type="int" >      141 </v>
  <v type="int" >       53 </v>
  <v type="int" >      173 </v>
  <v type="int" >       40 </v>
  <v type="int" >       82 </v>
  <v type="int" >      108 </v>
  <v type="int" >       56 </v>
  <v type="int" >      165 </v>
  <v type="int" >       77 </v>
  <v type="int" >       79 </v>
  <v type="int" >      153 </v>
  <v type="int" >        5 </v>
  <v type="int" >      133 </v>
  <v type="int" >      106 </v>
  <v type="int" >       98 </v>
  <v type="int" >       15 </v>
  <v type="int" >       21 </v>
  <v type="int" >      139 </v>
  <v type="int" >      102 </v>
  <v type="int" >      143 </v>
  <v type="int" >      171 </v>
  <v type="int" >      130 </v>
  <v type="int" >       72 </v>
  <v type="int" >       60 </v>
  <v type="int" >      181 </v>
  <v type="int" >      117 </v>
  <v type="int" >      159 </v>
  <v type="int" >      124 </v>
  <v type="int" >       42 </v>
  <v type="int" >       94 </v>
  <v type="int" >       99 </v>
  <v type="int" >        8 </v>
  <v type="int" >      158 </v>
  <v type="int" >      132 </v>
  <v type="int" >       37 </v>
  <v type="int" >      111 </v>
  <v type="int" >      184 </v>
  <v type="int" >      169 </v>
  <v type="int" >       23 </v>
  <v type="int" >       11 </v>
  <v type="int" >      167 </v>
  <v type="int" >      114 </v>
  <v type="int" >      150 </v>
  <v type="int" >      118 </v>
  <v type="int" >        2 </v>
  <v type="int" >       93 </v>
  <v type="int" >       89 </v>
  <v type="int" >      180 </v>
  <v type="int" >      192 </v>
  <v type="int" >      152 </v>
  <v type="int" >       43 </v>
  <v type="int" >      144 </v>
  <v type="int" >       47 </v>
  <v type="int" >       54 </v>
  <v type="int" >      160 </v>
  <v type="int" >       80 </v>
  <v type="int" >       30 </v>
  <v type="int" >       62 </v>
  <v type="int" >       68 </v>
  <v type="int" >       83 </v>
  <v type="int" >       57 </v>
  <v type="int" >       65 </v>
  <v type="int" >      126 </v>
  <v type="int" >       52 </v>
  <v type="int" >       27 </v>
  <v type="int" >        7 </v>
  <v type="int" >       18 </v>
  <v type="int" >       10 </v>
  <v type="int" >      119 </v>
  <v type="int" >      177 </v>
  <v type="int" >        3 </v>
  <v type="int" >      179 </v>
  <v type="int" >      103 </v>
  <v type="int" >      127 </v>
  <v type="int" >      166 </v>
  <v type="int" >      147 </v>
  <v type="int" >       49 </v>
 </varray>
 <kpoints>
  <generation param="Gamma">
   <v type="int" name="divisions">       1        1        1 </v>
   <v name="usershift">      0.00000000       0.00000000       0.00000000 </v>
   <v name="genvec1">      1.00000000       0.00000000       0.00000000 </v>
   <v name="genvec2">      0.00000000       1.00000000       0.00000000 </v>
   <v name="genvec3">      0.00000000       0.00000000       1.00000000 </v>
   <v name="shift">      0.00000000       0.00000000       0.00000000 </v>
  </generation>
  <varray name="kpointlist" >
   <v>       0.00000000       0.00000000       0.00000000 </v>
  </varray>
  <varray name="weights" >
   <v>       1.00000000 </v>
  </varray>
 </kpoints>
 <parameters>
  <separator name="general" >
   <i type="string" name="SYSTEM">unknown system</i>
   <i type="logical" name="LCOMPAT"> F  </i>
  </separator>
  <separator name="electronic" >
   <i type="string" name="PREC">accura</i>
   <i name="ENMAX">    500.00000000</i>
   <i name="ENAUG">    605.39200000</i>
   <i name="EDIFF">      0.00000100</i>
   <i type="int" name="IALGO">    38</i>
   <i type="int" name="IWAVPR">    11</i>
   <i type="int" name="NBANDS">   656</i>
   <i name="NELECT">   1088.00000000</i>
   <i type="int" name="TURBO">     0</i>
   <i type="int" name="IRESTART">     0</i>
   <i type="int" name="NREBOOT">     0</i>
   <i type="int" name="NMIN">     0</i>
   <i name="EREF">      0.00000000</i>
   <separator name="electronic smearing" >
    <i type="int" name="ISMEAR">     0</i>
    <i name="SIGMA">      0.20000000</i>
    <i name="KSPACING">      0.50000000</i>
    <i type="logical" name="KGAMMA"> T  </i>
   </separator>
   <separator name="electronic projectors" >
    <i type="logical" name="LREAL"> T  </i>
    <v name="ROPT">     -0.00025000     -0.00025000     -0.00025000     -0.00025000     -0.00025000</v>
    <i type="int" name="LMAXPAW">  -100</i>
    <i type="int" name="LMAXMIX">     2</i>
    <i type="logical" name="NLSPLINE"> F  </i>
   </separator>
   <separator name="electronic startup" >
    <i type="int" name="ISTART">     0</i>
    <i type="int" name="ICHARG">     2</i>
    <i type="int" name="INIWAV">     1</i>
   </separator>
   <separator name="electronic spin" >
    <i type="int" name="ISPIN">     1</i>
    <i type="logical" name="LNONCOLLINEAR"> F  </i>
    <v name="MAGMOM">      1.00000000      1.00000000      1.00000000      1.00000000      1.00000000      1.00000000      1.00000000      1.00000000      1.00000000      1.00000000      1.00000000      1.00000000      1.00000000      1.00000000      1.00000000      1.00000000      1.00000000      1.00000000      1.00000000      1.00000000
      1.00000000      1.00000000      1.00000000      1.00000000      1.00000000      1.00000000      1.00000000      1.00000000      1.00000000      1.00000000      1.00000000      1.00000000      1.00000000      1.00000000      1.00000000      1.00000000      1.00000000      1.00000000      1.00000000      1.00000000
      1.00000000      1.00000000      1.00000000      1.00000000      1.00000000      1.00000000      1.00000000      1.00000000      1.00000000      1.00000000      1.00000000      1.00000000      1.00000000      1.00000000      1.00000000      1.00000000      1.00000000      1.00000000      1.00000000      1.00000000
      1.00000000      1.00000000      1.00000000      1.00000000      1.00000000      1.00000000      1.00000000      1.00000000      1.00000000      1.00000000      1.00000000      1.00000000      1.00000000      1.00000000      1.00000000      1.00000000      1.00000000      1.00000000      1.00000000      1.00000000
      1.00000000      1.00000000      1.00000000      1.00000000      1.00000000      1.00000000      1.00000000      1.00000000      1.00000000      1.00000000      1.00000000      1.00000000      1.00000000      1.00000000      1.00000000      1.00000000      1.00000000      1.00000000      1.00000000      1.00000000
      1.00000000      1.00000000      1.00000000      1.00000000      1.00000000      1.00000000      1.00000000      1.00000000      1.00000000      1.00000000      1.00000000      1.00000000      1.00000000      1.00000000      1.00000000      1.00000000      1.00000000      1.00000000      1.00000000      1.00000000
      1.00000000      1.00000000      1.00000000      1.00000000      1.00000000      1.00000000      1.00000000      1.00000000      1.00000000      1.00000000      1.00000000      1.00000000      1.00000000      1.00000000      1.00000000      1.00000000      1.00000000      1.00000000      1.00000000      1.00000000
      1.00000000      1.00000000      1.00000000      1.00000000      1.00000000      1.00000000      1.00000000      1.00000000      1.00000000      1.00000000      1.00000000      1.00000000      1.00000000      1.00000000      1.00000000      1.00000000      1.00000000      1.00000000      1.00000000      1.00000000
      1.00000000      1.00000000      1.00000000      1.00000000      1.00000000      1.00000000      1.00000000      1.00000000      1.00000000      1.00000000      1.00000000      1.00000000      1.00000000      1.00000000      1.00000000      1.00000000      1.00000000      1.00000000      1.00000000      1.00000000
      1.00000000      1.00000000      1.00000000      1.00000000      1.00000000      1.00000000      1.00000000      1.00000000      1.00000000      1.00000000      1.00000000      1.00000000</v>
    <i name="NUPDOWN">     -1.00000000</i>
    <i type="logical" name="LSORBIT"> F  </i>
    <v name="SAXIS">      0.00000000      0.00000000      1.00000000</v>
    <i type="logical" name="LSPIRAL"> F  </i>
    <v name="QSPIRAL">      0.00000000      0.00000000      0.00000000</v>
    <i type="logical" name="LZEROZ"> F  </i>
   </separator>
   <separator name="electronic exchange-correlation" >
    <i type="logical" name="LASPH"> F  </i>
    <i type="logical" name="LMETAGGA"> F  </i>
   </separator>
   <separator name="electronic convergence" >
    <i type="int" name="NELM">    60</i>
    <i type="int" name="NELMDL">     0</i>
    <i type="int" name="NELMIN">     2</i>
    <i name="ENINI">    500.00000000</i>
    <separator name="electronic convergence detail" >
     <i type="logical" name="LDIAG"> T  </i>
     <i type="logical" name="LSUBROT"> F  </i>
     <i name="WEIMIN">      0.00100000</i>
     <i name="EBREAK">      0.00000000</i>
     <i name="DEPER">      0.30000000</i>
     <i type="int" name="NRMM">     4</i>
     <i name="TIME">      0.40000000</i>
    </separator>
   </separator>
   <separator name="electronic mixer" >
    <i name="AMIX">      0.40000000</i>
    <i name="BMIX">      1.00000000</i>
    <i name="AMIN">      0.10000000</i>
    <i name="AMIX_MAG">      1.60000000</i>
    <i name="BMIX_MAG">      1.00000000</i>
    <separator name="electronic mixer details" >
     <i type="int" name="IMIX">     4</i>
     <i type="logical" name="MIXFIRST"> F  </i>
     <i type="int" name="MAXMIX">   -45</i>
     <i name="WC">    100.00000000</i>
     <i type="int" name="INIMIX">     1</i>
     <i type="int" name="MIXPRE">     1</i>
     <i type="int" name="MREMOVE">     5</i>
    </separator>
   </separator>
   <separator name="electronic dipolcorrection" >
    <i type="logical" name="LDIPOL"> F  </i>
    <i type="logical" name="LMONO"> F  </i>
    <i type="int" name="IDIPOL">     0</i>
    <i name="EPSILON">      1.00000000</i>
    <v name="DIPOL">   -100.00000000   -100.00000000   -100.00000000</v>
    <i name="EFIELD">      0.00000000</i>
   </separator>
  </separator>
  <separator name="grids" >
   <i type="int" name="NGX">    96</i>
   <i type="int" name="NGY">    96</i>
   <i type="int" name="NGZ">    96</i>
   <i type="int" name="NGXF">   192</i>
   <i type="int" name="NGYF">   192</i>
   <i type="int" name="NGZF">   192</i>
   <i type="logical" name="ADDGRID"> F  </i>
  </separator>
  <separator name="ionic" >
   <i type="int" name="NSW">    20</i>
   <i type="int" name="IBRION">     1</i>
   <i type="int" name="MDALGO">     0</i>
   <i type="int" name="ISIF">     2</i>
   <i name="PSTRESS">      0.00000000</i>
   <i name="EDIFFG">     -0.01000000</i>
   <i type="int" name="NFREE">     0</i>
   <i name="POTIM">      0.50000000</i>
   <i name="SMASS">     -3.00000000</i>
   <i name="SCALEE">      1.00000000</i>
  </separator>
  <separator name="ionic md" >
   <i name="TEBEG">      0.00010000</i>
   <i name="TEEND">      0.00010000</i>
   <i type="int" name="NBLOCK">     1</i>
   <i type="int" name="KBLOCK">    20</i>
   <i type="int" name="NPACO">   256</i>
   <i name="APACO">     16.00000000</i>
  </separator>
  <separator name="symmetry" >
   <i type="int" name="ISYM">     0</i>
   <i name="SYMPREC">      0.00001000</i>
  </separator>
  <separator name="dos" >
   <i type="int" name="LORBIT">     0</i>
   <v name="RWIGS">     -1.00000000     -1.00000000     -1.00000000     -1.00000000     -1.00000000</v>
   <i type="int" name="NEDOS">   301</i>
   <i name="EMIN">     10.00000000</i>
   <i name="EMAX">    -10.00000000</i>
   <i name="EFERMI">      0.00000000</i>
  </separator>
  <separator name="writing" >
   <i type="int" name="NWRITE">     2</i>
   <i type="logical" name="LWAVE"> F  </i>
   <i type="logical" name="LDOWNSAMPLE"> F  </i>
   <i type="logical" name="LCHARG"> F  </i>
   <i type="logical" name="LPARD"> F  </i>
   <i type="logical" name="LVTOT"> F  </i>
   <i type="logical" name="LVHAR"> F  </i>
   <i type="logical" name="LELF"> F  </i>
   <i type="logical" name="LOPTICS"> F  </i>
   <v name="STM">      0.00000000      0.00000000      0.00000000      0.00000000      0.00000000      0.00000000      0.00000000</v>
  </separator>
  <separator name="performance" >
   <i type="int" name="NPAR">     8</i>
   <i type="int" name="NSIM">     4</i>
   <i type="int" name="NBLK">    -1</i>
   <i type="logical" name="LPLANE"> T  </i>
   <i type="logical" name="LSCALAPACK"> T  </i>
   <i type="logical" name="LSCAAWARE"> T  </i>
   <i type="logical" name="LSCALU"> F  </i>
   <i type="logical" name="LASYNC"> F  </i>
   <i type="logical" name="LORBITALREAL"> F  </i>
  </separator>
  <separator name="miscellaneous" >
   <i type="int" name="IDIOT">     3</i>
   <i type="int" name="ISPECIAL">     0</i>
   <i type="logical" name="LMUSIC"> F  </i>
   <v name="POMASS">     16.00000000    138.90000000     91.22400000      7.01000000     26.98100000</v>
   <v name="DARWINR">      0.00000000      0.00000000      0.00000000      0.00000000      0.00000000</v>
   <v name="DARWINV">      1.00000000      1.00000000      1.00000000      1.00000000      1.00000000</v>
   <i type="logical" name="LCORR"> T  </i>
  </separator>
  <i type="logical" name="GGA_COMPAT"> T  </i>
  <i type="logical" name="LBERRY"> F  </i>
  <i type="int" name="ICORELEVEL">     0</i>
  <i type="logical" name="LDAU"> F  </i>
  <i type="int" name="I_CONSTRAINED_M">     0</i>
  <separator name="electronic exchange-correlation" >
   <i type="string" name="GGA">--</i>
   <i type="int" name="VOSKOWN">     0</i>
   <i type="logical" name="LHFCALC"> F  </i>
   <i type="string" name="PRECFOCK"></i>
   <i type="logical" name="LSYMGRAD"> F  </i>
   <i type="logical" name="LHFONE"> F  </i>
   <i type="logical" name="LRHFCALC"> F  </i>
   <i type="logical" name="LTHOMAS"> F  </i>
   <i type="logical" name="LMODELHF"> F  </i>
   <i name="ENCUT4O">     -1.00000000</i>
   <i type="int" name="EXXOEP">     0</i>
   <i type="int" name="FOURORBIT">     0</i>
   <i name="AEXX">      0.00000000</i>
   <i name="HFALPHA">      0.00000000</i>
   <i name="MCALPHA">      0.00000000</i>
   <i name="ALDAX">      1.00000000</i>
   <i name="AGGAX">      1.00000000</i>
   <i name="ALDAC">      1.00000000</i>
   <i name="AGGAC">      1.00000000</i>
   <i type="int" name="NKREDX">     1</i>
   <i type="int" name="NKREDY">     1</i>
   <i type="int" name="NKREDZ">     1</i>
   <i type="logical" name="SHIFTRED"> F  </i>
   <i type="logical" name="ODDONLY"> F  </i>
   <i type="logical" name="EVENONLY"> F  </i>
   <i type="int" name="LMAXFOCK">     0</i>
   <i type="int" name="NMAXFOCKAE">     0</i>
   <i type="logical" name="LFOCKAEDFT"> F  </i>
   <i name="HFSCREEN">      0.00000000</i>
   <i name="HFSCREENC">      0.00000000</i>
   <i type="int" name="NBANDSGWLOW">     0</i>
  </separator>
  <separator name="vdW DFT" >
   <i type="logical" name="LUSE_VDW"> F  </i>
   <i name="Zab_VDW">     -0.84910000</i>
   <i name="PARAM1">      0.12340000</i>
   <i name="PARAM2">      1.00000000</i>
   <i name="PARAM3">      0.00000000</i>
  </separator>
  <separator name="model GW" >
   <i type="int" name="MODEL_GW">     0</i>
   <i name="MODEL_EPS0">      6.81042648</i>
   <i name="MODEL_ALPHA">      1.00000000</i>
  </separator>
  <separator name="linear response parameters" >
   <i type="logical" name="LEPSILON"> F  </i>
   <i type="logical" name="LRPA"> F  </i>
   <i type="logical" name="LNABLA"> F  </i>
   <i type="logical" name="LVEL"> F  </i>
   <i type="int" name="KINTER">     0</i>
   <i name="CSHIFT">      0.10000000</i>
   <i name="OMEGAMAX">     -1.00000000</i>
   <i name="DEG_THRESHOLD">      0.00200000</i>
   <i name="RTIME">     -0.10000000</i>
   <i name="WPLASMAI">      0.00000000</i>
   <v name="DFIELD">      0.00000000      0.00000000      0.00000000</v>
   <v name="WPLASMA">      0.00000000      0.00000000      0.00000000      0.00000000      0.00000000      0.00000000      0.00000000      0.00000000      0.00000000</v>
  </separator>
  <separator name="orbital magnetization" >
   <i type="logical" name="NUCIND"> F  </i>
   <v name="MAGPOS">      0.00000000      0.00000000      0.00000000</v>
   <i type="logical" name="LNICSALL"> T  </i>
   <i type="logical" name="ORBITALMAG"> F  </i>
   <i type="logical" name="LMAGBLOCH"> F  </i>
   <i type="logical" name="LCHIMAG"> F  </i>
   <i type="logical" name="LGAUGE"> T  </i>
   <i type="int" name="MAGATOM">     0</i>
   <v name="MAGDIPOL">      0.00000000      0.00000000      0.00000000</v>
   <v name="AVECCONST">      0.00000000      0.00000000      0.00000000</v>
  </separator>
  <separator name="response functions" >
   <i type="logical" name="LADDER"> F  </i>
   <i type="logical" name="LRPAFORCE"> F  </i>
   <i type="logical" name="LFXC"> F  </i>
   <i type="logical" name="LHARTREE"> T  </i>
   <i type="int" name="IBSE">     0</i>
   <v type="int" name="KPOINT">    -1     0     0     0</v>
   <i type="logical" name="LTCTE"> F  </i>
   <i type="logical" name="LTETE"> F  </i>
   <i type="logical" name="LTRIPLET"> F  </i>
   <i type="logical" name="LFXCEPS"> F  </i>
   <i type="logical" name="LFXHEG"> F  </i>
   <i type="int" name="NATURALO">     2</i>
   <i type="logical" name="L2ORDER"> F  </i>
   <i type="logical" name="LMP2LT"> F  </i>
   <i type="logical" name="LUSEW"> F  </i>
   <i name="ENCUTGW">     -2.00000000</i>
   <i name="ENCUTGWSOFT">     -2.00000000</i>
   <i name="ENCUTLF">     -1.00000000</i>
   <i type="int" name="LMAXMP2">    -1</i>
   <i name="SCISSOR">      0.00000000</i>
   <i type="int" name="NOMEGA">     0</i>
   <i type="int" name="NOMEGAR">     0</i>
   <i type="int" name="NBANDSGW">    -1</i>
   <i type="int" name="NBANDSO">    -1</i>
   <i type="int" name="NBANDSV">    -1</i>
   <i type="int" name="NELM">     1</i>
   <i type="int" name="NELMHF">     1</i>
   <i type="int" name="DIM">     3</i>
   <i type="int" name="ANTIRES">     0</i>
   <i name="OMEGAMAX">    -30.00000000</i>
   <i name="OMEGAMIN">    -30.00000000</i>
   <i name="OMEGATL">   -200.00000000</i>
   <i type="int" name="OMEGAGRID">   140</i>
   <i name="CSHIFT">     -0.10000000</i>
   <i type="logical" name="SELFENERGY"> F  </i>
   <i type="logical" name="LSPECTRAL"> F  </i>
   <i type="logical" name="LSPECTRALGW"> F  </i>
   <i type="logical" name="LSINGLES"> F  </i>
   <i type="logical" name="LFERMIGW"> F  </i>
   <i type="logical" name="ODDONLYGW"> F  </i>
   <i type="logical" name="EVENONLYGW"> F  </i>
   <i type="int" name="NKREDLFX">     1</i>
   <i type="int" name="NKREDLFY">     1</i>
   <i type="int" name="NKREDLFZ">     1</i>
   <i type="int" name="MAXMEM">  2800</i>
   <i type="int" name="TELESCOPE">     0</i>
   <i type="int" name="TAUPAR">     1</i>
   <i type="int" name="OMEGAPAR">    -1</i>
   <i name="LAMBDA">      1.00000000</i>
  </separator>
  <separator name="External order field" >
   <i name="OFIELD_KAPPA">      0.00000000</i>
   <v name="OFIELD_K">      0.00000000      0.00000000      0.00000000</v>
   <i name="OFIELD_Q6_NEAR">      0.00000000</i>
   <i name="OFIELD_Q6_FAR">      0.00000000</i>
   <i name="OFIELD_A">      0.00000000</i>
  </separator>
 </parameters>
 <atominfo>
  <atoms>     192 </atoms>
  <types>       5 </types>
  <array name="atoms" >
   <dimension dim="1">ion</dimension>
   <field type="string">element</field>
   <field type="int">atomtype</field>
   <set>
    <rc><c>O </c><c>   1</c></rc>
    <rc><c>O </c><c>   1</c></rc>
    <rc><c>O </c><c>   1</c></rc>
    <rc><c>O </c><c>   1</c></rc>
    <rc><c>O </c><c>   1</c></rc>
    <rc><c>O </c><c>   1</c></rc>
    <rc><c>O </c><c>   1</c></rc>
    <rc><c>O </c><c>   1</c></rc>
    <rc><c>O </c><c>   1</c></rc>
    <rc><c>O </c><c>   1</c></rc>
    <rc><c>O </c><c>   1</c></rc>
    <rc><c>O </c><c>   1</c></rc>
    <rc><c>O </c><c>   1</c></rc>
    <rc><c>O </c><c>   1</c></rc>
    <rc><c>O </c><c>   1</c></rc>
    <rc><c>O </c><c>   1</c></rc>
    <rc><c>O </c><c>   1</c></rc>
    <rc><c>O </c><c>   1</c></rc>
    <rc><c>O </c><c>   1</c></rc>
    <rc><c>O </c><c>   1</c></rc>
    <rc><c>O </c><c>   1</c></rc>
    <rc><c>O </c><c>   1</c></rc>
    <rc><c>O </c><c>   1</c></rc>
    <rc><c>O </c><c>   1</c></rc>
    <rc><c>O </c><c>   1</c></rc>
    <rc><c>O </c><c>   1</c></rc>
    <rc><c>O </c><c>   1</c></rc>
    <rc><c>O </c><c>   1</c></rc>
    <rc><c>O </c><c>   1</c></rc>
    <rc><c>O </c><c>   1</c></rc>
    <rc><c>O </c><c>   1</c></rc>
    <rc><c>O </c><c>   1</c></rc>
    <rc><c>O </c><c>   1</c></rc>
    <rc><c>O </c><c>   1</c></rc>
    <rc><c>O </c><c>   1</c></rc>
    <rc><c>O </c><c>   1</c></rc>
    <rc><c>O </c><c>   1</c></rc>
    <rc><c>O </c><c>   1</c></rc>
    <rc><c>O </c><c>   1</c></rc>
    <rc><c>O </c><c>   1</c></rc>
    <rc><c>O </c><c>   1</c></rc>
    <rc><c>O </c><c>   1</c></rc>
    <rc><c>O </c><c>   1</c></rc>
    <rc><c>O </c><c>   1</c></rc>
    <rc><c>O </c><c>   1</c></rc>
    <rc><c>O </c><c>   1</c></rc>
    <rc><c>O </c><c>   1</c></rc>
    <rc><c>O </c><c>   1</c></rc>
    <rc><c>O </c><c>   1</c></rc>
    <rc><c>O </c><c>   1</c></rc>
    <rc><c>O </c><c>   1</c></rc>
    <rc><c>O </c><c>   1</c></rc>
    <rc><c>O </c><c>   1</c></rc>
    <rc><c>O </c><c>   1</c></rc>
    <rc><c>O </c><c>   1</c></rc>
    <rc><c>O </c><c>   1</c></rc>
    <rc><c>O </c><c>   1</c></rc>
    <rc><c>O </c><c>   1</c></rc>
    <rc><c>O </c><c>   1</c></rc>
    <rc><c>O </c><c>   1</c></rc>
    <rc><c>O </c><c>   1</c></rc>
    <rc><c>O </c><c>   1</c></rc>
    <rc><c>O </c><c>   1</c></rc>
    <rc><c>O </c><c>   1</c></rc>
    <rc><c>O </c><c>   1</c></rc>
    <rc><c>O </c><c>   1</c></rc>
    <rc><c>O </c><c>   1</c></rc>
    <rc><c>O </c><c>   1</c></rc>
    <rc><c>O </c><c>   1</c></rc>
    <rc><c>O </c><c>   1</c></rc>
    <rc><c>O </c><c>   1</c></rc>
    <rc><c>O </c><c>   1</c></rc>
    <rc><c>O </c><c>   1</c></rc>
    <rc><c>O </c><c>   1</c></rc>
    <rc><c>O </c><c>   1</c></rc>
    <rc><c>O </c><c>   1</c></rc>
    <rc><c>O </c><c>   1</c></rc>
    <rc><c>O </c><c>   1</c></rc>
    <rc><c>O </c><c>   1</c></rc>
    <rc><c>O </c><c>   1</c></rc>
    <rc><c>O </c><c>   1</c></rc>
    <rc><c>O </c><c>   1</c></rc>
    <rc><c>O </c><c>   1</c></rc>
    <rc><c>O </c><c>   1</c></rc>
    <rc><c>O </c><c>   1</c></rc>
    <rc><c>O </c><c>   1</c></rc>
    <rc><c>O </c><c>   1</c></rc>
    <rc><c>O </c><c>   1</c></rc>
    <rc><c>O </c><c>   1</c></rc>
    <rc><c>O </c><c>   1</c></rc>
    <rc><c>O </c><c>   1</c></rc>
    <rc><c>O </c><c>   1</c></rc>
    <rc><c>O </c><c>   1</c></rc>
    <rc><c>O </c><c>   1</c></rc>
    <rc><c>O </c><c>   1</c></rc>
    <rc><c>O </c><c>   1</c></rc>
    <rc><c>La</c><c>   2</c></rc>
    <rc><c>La</c><c>   2</c></rc>
    <rc><c>La</c><c>   2</c></rc>
    <rc><c>La</c><c>   2</c></rc>
    <rc><c>La</c><c>   2</c></rc>
    <rc><c>La</c><c>   2</c></rc>
    <rc><c>La</c><c>   2</c></rc>
    <rc><c>La</c><c>   2</c></rc>
    <rc><c>La</c><c>   2</c></rc>
    <rc><c>La</c><c>   2</c></rc>
    <rc><c>La</c><c>   2</c></rc>
    <rc><c>La</c><c>   2</c></rc>
    <rc><c>La</c><c>   2</c></rc>
    <rc><c>La</c><c>   2</c></rc>
    <rc><c>La</c><c>   2</c></rc>
    <rc><c>La</c><c>   2</c></rc>
    <rc><c>La</c><c>   2</c></rc>
    <rc><c>La</c><c>   2</c></rc>
    <rc><c>La</c><c>   2</c></rc>
    <rc><c>La</c><c>   2</c></rc>
    <rc><c>La</c><c>   2</c></rc>
    <rc><c>La</c><c>   2</c></rc>
    <rc><c>La</c><c>   2</c></rc>
    <rc><c>La</c><c>   2</c></rc>
    <rc><c>Zr</c><c>   3</c></rc>
    <rc><c>Zr</c><c>   3</c></rc>
    <rc><c>Zr</c><c>   3</c></rc>
    <rc><c>Zr</c><c>   3</c></rc>
    <rc><c>Zr</c><c>   3</c></rc>
    <rc><c>Zr</c><c>   3</c></rc>
    <rc><c>Zr</c><c>   3</c></rc>
    <rc><c>Zr</c><c>   3</c></rc>
    <rc><c>Zr</c><c>   3</c></rc>
    <rc><c>Zr</c><c>   3</c></rc>
    <rc><c>Zr</c><c>   3</c></rc>
    <rc><c>Zr</c><c>   3</c></rc>
    <rc><c>Zr</c><c>   3</c></rc>
    <rc><c>Zr</c><c>   3</c></rc>
    <rc><c>Zr</c><c>   3</c></rc>
    <rc><c>Zr</c><c>   3</c></rc>
    <rc><c>Li</c><c>   4</c></rc>
    <rc><c>Li</c><c>   4</c></rc>
    <rc><c>Li</c><c>   4</c></rc>
    <rc><c>Li</c><c>   4</c></rc>
    <rc><c>Li</c><c>   4</c></rc>
    <rc><c>Li</c><c>   4</c></rc>
    <rc><c>Li</c><c>   4</c></rc>
    <rc><c>Li</c><c>   4</c></rc>
    <rc><c>Li</c><c>   4</c></rc>
    <rc><c>Li</c><c>   4</c></rc>
    <rc><c>Li</c><c>   4</c></rc>
    <rc><c>Li</c><c>   4</c></rc>
    <rc><c>Li</c><c>   4</c></rc>
    <rc><c>Li</c><c>   4</c></rc>
    <rc><c>Li</c><c>   4</c></rc>
    <rc><c>Li</c><c>   4</c></rc>
    <rc><c>Li</c><c>   4</c></rc>
    <rc><c>Li</c><c>   4</c></rc>
    <rc><c>Li</c><c>   4</c></rc>
    <rc><c>Li</c><c>   4</c></rc>
    <rc><c>Li</c><c>   4</c></rc>
    <rc><c>Li</c><c>   4</c></rc>
    <rc><c>Li</c><c>   4</c></rc>
    <rc><c>Li</c><c>   4</c></rc>
    <rc><c>Li</c><c>   4</c></rc>
    <rc><c>Li</c><c>   4</c></rc>
    <rc><c>Li</c><c>   4</c></rc>
    <rc><c>Li</c><c>   4</c></rc>
    <rc><c>Li</c><c>   4</c></rc>
    <rc><c>Li</c><c>   4</c></rc>
    <rc><c>Li</c><c>   4</c></rc>
    <rc><c>Li</c><c>   4</c></rc>
    <rc><c>Li</c><c>   4</c></rc>
    <rc><c>Li</c><c>   4</c></rc>
    <rc><c>Li</c><c>   4</c></rc>
    <rc><c>Li</c><c>   4</c></rc>
    <rc><c>Li</c><c>   4</c></rc>
    <rc><c>Li</c><c>   4</c></rc>
    <rc><c>Li</c><c>   4</c></rc>
    <rc><c>Li</c><c>   4</c></rc>
    <rc><c>Li</c><c>   4</c></rc>
    <rc><c>Li</c><c>   4</c></rc>
    <rc><c>Li</c><c>   4</c></rc>
    <rc><c>Li</c><c>   4</c></rc>
    <rc><c>Li</c><c>   4</c></rc>
    <rc><c>Li</c><c>   4</c></rc>
    <rc><c>Li</c><c>   4</c></rc>
    <rc><c>Li</c><c>   4</c></rc>
    <rc><c>Li</c><c>   4</c></rc>
    <rc><c>Li</c><c>   4</c></rc>
    <rc><c>Li</c><c>   4</c></rc>
    <rc><c>Li</c><c>   4</c></rc>
    <rc><c>Li</c><c>   4</c></rc>
    <rc><c>Li</c><c>   4</c></rc>
    <rc><c>Li</c><c>   4</c></rc>
    <rc><c>Li</c><c>   4</c></rc>
   </set>
  </array>
  <array name="atomtypes" >
   <dimension dim="1">type</dimension>
   <field type="int">atomspertype</field>
   <field type="string">element</field>
   <field>mass</field>
   <field>valence</field>
   <field type="string">pseudopotential</field>
   <set>
    <rc><c>  96</c><c>O </c><c>     16.00000000</c><c>      6.00000000</c><c>  PAW_PBE O 08Apr2002                   </c></rc>
    <rc><c>  24</c><c>La</c><c>    138.90000000</c><c>     11.00000000</c><c>  PAW_PBE La 06Sep2000                  </c></rc>
    <rc><c>  16</c><c>Zr</c><c>     91.22400000</c><c>     12.00000000</c><c>  PAW_PBE Zr_sv 04Jan2005               </c></rc>
    <rc><c>  56</c><c>Li</c><c>      7.01000000</c><c>      1.00000000</c><c>  PAW_PBE Li 17Jan2003                  </c></rc>
    <rc><c>   0</c><c>Al</c><c>     26.98100000</c><c>      3.00000000</c><c>  PAW_PBE Al 04Jan2001                  </c></rc>
   </set>
  </array>
 </atominfo>
 <structure name="initialpos" >
  <crystal>
   <varray name="basis" >
    <v>      12.96520042       0.00000000       0.00000000 </v>
    <v>       0.00000000      12.96500015       0.00000000 </v>
    <v>       0.00000000       0.00000000      12.96500015 </v>
   </varray>
   <i name="volume">   2179.33647298 </i>
   <varray name="rec_basis" >
    <v>       0.07712954       0.00000000       0.00000000 </v>
    <v>       0.00000000       0.07713074       0.00000000 </v>
    <v>       0.00000000       0.00000000       0.07713074 </v>
   </varray>
  </crystal>
  <varray name="positions" >
   <v>       0.10000000       0.19560000       0.28160000 </v>
   <v>       0.89999998       0.80439997       0.71840000 </v>
   <v>       0.40000001       0.80439997       0.78160000 </v>
   <v>       0.60000002       0.19560000       0.21840000 </v>
   <v>       0.89999998       0.69560003       0.21840000 </v>
   <v>       0.10000000       0.30440000       0.78160000 </v>
   <v>       0.60000002       0.30440000       0.71840000 </v>
   <v>       0.40000001       0.69560003       0.28160000 </v>
   <v>       0.28160000       0.10000000       0.19560000 </v>
   <v>       0.71840000       0.89999998       0.80439997 </v>
   <v>       0.78160000       0.40000001       0.80439997 </v>
   <v>       0.21840000       0.60000002       0.19560000 </v>
   <v>       0.21840000       0.89999998       0.69560003 </v>
   <v>       0.78160000       0.10000000       0.30440000 </v>
   <v>       0.71840000       0.60000002       0.30440000 </v>
   <v>       0.28160000       0.40000001       0.69560003 </v>
   <v>       0.19560000       0.28160000       0.10000000 </v>
   <v>       0.80439997       0.71840000       0.89999998 </v>
   <v>       0.80439997       0.78160000       0.40000001 </v>
   <v>       0.19560000       0.21840000       0.60000002 </v>
   <v>       0.69560003       0.21840000       0.89999998 </v>
   <v>       0.30440000       0.78160000       0.10000000 </v>
   <v>       0.30440000       0.71840000       0.60000002 </v>
   <v>       0.69560003       0.28160000       0.40000001 </v>
   <v>       0.94560003       0.34999999       0.96840000 </v>
   <v>       0.05440000       0.64999998       0.03160000 </v>
   <v>       0.55439997       0.64999998       0.46840000 </v>
   <v>       0.44560000       0.34999999       0.53160000 </v>
   <v>       0.44560000       0.15000001       0.03160000 </v>
   <v>       0.55439997       0.85000002       0.96840000 </v>
   <v>       0.05440000       0.85000002       0.53160000 </v>
   <v>       0.94560003       0.15000001       0.46840000 </v>
   <v>       0.85000002       0.53160000       0.05440000 </v>
   <v>       0.15000001       0.46840000       0.94560003 </v>
   <v>       0.15000001       0.03160000       0.44560000 </v>
   <v>       0.85000002       0.96840000       0.55439997 </v>
   <v>       0.64999998       0.46840000       0.55439997 </v>
   <v>       0.34999999       0.53160000       0.44560000 </v>
   <v>       0.34999999       0.96840000       0.94560003 </v>
   <v>       0.64999998       0.03160000       0.05440000 </v>
   <v>       0.03160000       0.44560000       0.15000001 </v>
   <v>       0.96840000       0.55439997       0.85000002 </v>
   <v>       0.53160000       0.05440000       0.85000002 </v>
   <v>       0.46840000       0.94560003       0.15000001 </v>
   <v>       0.96840000       0.94560003       0.34999999 </v>
   <v>       0.03160000       0.05440000       0.64999998 </v>
   <v>       0.46840000       0.55439997       0.64999998 </v>
   <v>       0.53160000       0.44560000       0.34999999 </v>
   <v>       0.60000002       0.69560003       0.78160000 </v>
   <v>       0.40000001       0.30440000       0.21840000 </v>
   <v>       0.89999998       0.30440000       0.28160000 </v>
   <v>       0.10000000       0.69560003       0.71840000 </v>
   <v>       0.40000001       0.19560000       0.71840000 </v>
   <v>       0.60000002       0.80439997       0.28160000 </v>
   <v>       0.10000000       0.80439997       0.21840000 </v>
   <v>       0.89999998       0.19560000       0.78160000 </v>
   <v>       0.78160000       0.60000002       0.69560003 </v>
   <v>       0.21840000       0.40000001       0.30440000 </v>
   <v>       0.28160000       0.89999998       0.30440000 </v>
   <v>       0.71840000       0.10000000       0.69560003 </v>
   <v>       0.71840000       0.40000001       0.19560000 </v>
   <v>       0.28160000       0.60000002       0.80439997 </v>
   <v>       0.21840000       0.10000000       0.80439997 </v>
   <v>       0.78160000       0.89999998       0.19560000 </v>
   <v>       0.69560003       0.78160000       0.60000002 </v>
   <v>       0.30440000       0.21840000       0.40000001 </v>
   <v>       0.30440000       0.28160000       0.89999998 </v>
   <v>       0.69560003       0.71840000       0.10000000 </v>
   <v>       0.19560000       0.71840000       0.40000001 </v>
   <v>       0.80439997       0.28160000       0.60000002 </v>
   <v>       0.80439997       0.21840000       0.10000000 </v>
   <v>       0.19560000       0.78160000       0.89999998 </v>
   <v>       0.44560000       0.85000002       0.46840000 </v>
   <v>       0.55439997       0.15000001       0.53160000 </v>
   <v>       0.05440000       0.15000001       0.96840000 </v>
   <v>       0.94560003       0.85000002       0.03160000 </v>
   <v>       0.94560003       0.64999998       0.53160000 </v>
   <v>       0.05440000       0.34999999       0.46840000 </v>
   <v>       0.55439997       0.34999999       0.03160000 </v>
   <v>       0.44560000       0.64999998       0.96840000 </v>
   <v>       0.34999999       0.03160000       0.55439997 </v>
   <v>       0.64999998       0.96840000       0.44560000 </v>
   <v>       0.64999998       0.53160000       0.94560003 </v>
   <v>       0.34999999       0.46840000       0.05440000 </v>
   <v>       0.15000001       0.96840000       0.05440000 </v>
   <v>       0.85000002       0.03160000       0.94560003 </v>
   <v>       0.85000002       0.46840000       0.44560000 </v>
   <v>       0.15000001       0.53160000       0.55439997 </v>
   <v>       0.53160000       0.94560003       0.64999998 </v>
   <v>       0.46840000       0.05440000       0.34999999 </v>
   <v>       0.03160000       0.55439997       0.34999999 </v>
   <v>       0.96840000       0.44560000       0.64999998 </v>
   <v>       0.46840000       0.44560000       0.85000002 </v>
   <v>       0.53160000       0.55439997       0.15000001 </v>
   <v>       0.96840000       0.05440000       0.15000001 </v>
   <v>       0.03160000       0.94560003       0.85000002 </v>
   <v>       0.12500000       0.00000000       0.25000000 </v>
   <v>       0.87500000       0.00000000       0.75000000 </v>
   <v>       0.37500000       0.00000000       0.75000000 </v>
   <v>       0.62500000       0.00000000       0.25000000 </v>
   <v>       0.87500000       0.50000000       0.25000000 </v>
   <v>       0.12500000       0.50000000       0.75000000 </v>
   <v>       0.62500000       0.50000000       0.75000000 </v>
   <v>       0.37500000       0.50000000       0.25000000 </v>
   <v>       0.25000000       0.12500000       0.00000000 </v>
   <v>       0.75000000       0.87500000       0.00000000 </v>
   <v>       0.75000000       0.37500000       0.00000000 </v>
   <v>       0.25000000       0.62500000       0.00000000 </v>
   <v>       0.25000000       0.87500000       0.50000000 </v>
   <v>       0.75000000       0.12500000       0.50000000 </v>
   <v>       0.75000000       0.62500000       0.50000000 </v>
   <v>       0.25000000       0.37500000       0.50000000 </v>
   <v>       0.00000000       0.25000000       0.12500000 </v>
   <v>       0.00000000       0.75000000       0.87500000 </v>
   <v>       0.00000000       0.75000000       0.37500000 </v>
   <v>       0.00000000       0.25000000       0.62500000 </v>
   <v>       0.50000000       0.25000000       0.87500000 </v>
   <v>       0.50000000       0.75000000       0.12500000 </v>
   <v>       0.50000000       0.75000000       0.62500000 </v>
   <v>       0.50000000       0.25000000       0.37500000 </v>
   <v>       0.00000000       0.00000000       0.00000000 </v>
   <v>       0.50000000       0.00000000       0.50000000 </v>
   <v>       0.00000000       0.50000000       0.50000000 </v>
   <v>       0.50000000       0.50000000       0.00000000 </v>
   <v>       0.75000000       0.25000000       0.25000000 </v>
   <v>       0.25000000       0.75000000       0.75000000 </v>
   <v>       0.75000000       0.75000000       0.75000000 </v>
   <v>       0.25000000       0.25000000       0.25000000 </v>
   <v>       0.25000000       0.25000000       0.75000000 </v>
   <v>       0.75000000       0.75000000       0.25000000 </v>
   <v>       0.25000000       0.75000000       0.25000000 </v>
   <v>       0.75000000       0.25000000       0.75000000 </v>
   <v>       0.50000000       0.50000000       0.50000000 </v>
   <v>       0.00000000       0.50000000       0.00000000 </v>
   <v>       0.50000000       0.00000000       0.00000000 </v>
   <v>       0.00000000       0.00000000       0.50000000 </v>
   <v>       0.18770000       0.92600000       0.90090001 </v>
   <v>       0.43770000       0.15090001       0.17600000 </v>
   <v>       0.15090001       0.67600000       0.56229997 </v>
   <v>       0.31230000       0.07400000       0.40090001 </v>
   <v>       0.84909999       0.82400000       0.56229997 </v>
   <v>       0.17600000       0.56229997       0.34909999 </v>
   <v>       0.34909999       0.67600000       0.43770000 </v>
   <v>       0.57400000       0.09910000       0.68770003 </v>
   <v>       0.09910000       0.18770000       0.42600000 </v>
   <v>       0.07400000       0.40090001       0.31230000 </v>
   <v>       0.59909999       0.68770003       0.92600000 </v>
   <v>       0.31230000       0.92600000       0.09910000 </v>
   <v>       0.17600000       0.06230000       0.65090001 </v>
   <v>       0.67600000       0.93770003       0.65090001 </v>
   <v>       0.56229997       0.34909999       0.17600000 </v>
   <v>       0.93770003       0.65090001       0.67600000 </v>
   <v>       0.43770000       0.34909999       0.67600000 </v>
   <v>       0.93770003       0.84909999       0.17600000 </v>
   <v>       0.07400000       0.90090001       0.68770003 </v>
   <v>       0.93770003       0.34909999       0.82400000 </v>
   <v>       0.84909999       0.17600000       0.93770003 </v>
   <v>       0.84909999       0.67600000       0.06230000 </v>
   <v>       0.67600000       0.56229997       0.15090001 </v>
   <v>       0.59909999       0.81229997       0.42600000 </v>
   <v>       0.82400000       0.43770000       0.65090001 </v>
   <v>       0.84909999       0.32400000       0.43770000 </v>
   <v>       0.43770000       0.84909999       0.32400000 </v>
   <v>       0.06230000       0.65090001       0.17600000 </v>
   <v>       0.59909999       0.18770000       0.07400000 </v>
   <v>       0.56229997       0.84909999       0.82400000 </v>
   <v>       0.81229997       0.57400000       0.90090001 </v>
   <v>       0.93770003       0.15090001       0.32400000 </v>
   <v>       0.50000000       0.75000000       0.37500000 </v>
   <v>       0.87500000       0.00000000       0.25000000 </v>
   <v>       0.62500000       0.50000000       0.25000000 </v>
   <v>       0.25000000       0.12500000       0.50000000 </v>
   <v>       0.50000000       0.25000000       0.62500000 </v>
   <v>       0.00000000       0.25000000       0.37500000 </v>
   <v>       0.25000000       0.87500000       0.00000000 </v>
   <v>       0.12500000       0.50000000       0.25000000 </v>
   <v>       0.62500000       0.00000000       0.75000000 </v>
   <v>       0.75000000       0.87500000       0.50000000 </v>
   <v>       0.50000000       0.75000000       0.87500000 </v>
   <v>       0.75000000       0.62500000       0.00000000 </v>
   <v>       0.00000000       0.75000000       0.62500000 </v>
   <v>       0.00000000       0.25000000       0.87500000 </v>
   <v>       0.25000000       0.62500000       0.50000000 </v>
   <v>       0.87500000       0.50000000       0.75000000 </v>
   <v>       0.75000000       0.12500000       0.00000000 </v>
   <v>       0.12500000       0.00000000       0.75000000 </v>
   <v>       0.50000000       0.25000000       0.12500000 </v>
   <v>       0.37500000       0.00000000       0.25000000 </v>
   <v>       0.25000000       0.37500000       0.00000000 </v>
   <v>       0.00000000       0.75000000       0.12500000 </v>
   <v>       0.75000000       0.37500000       0.50000000 </v>
   <v>       0.37500000       0.50000000       0.75000000 </v>
  </varray>
 </structure>
 <calculation>
  <scstep>
   <time name="dav">    1.76    1.77</time>
   <time name="total">    1.83    1.86</time>
   <energy>
    <i name="alphaZ">   3522.04392554 </i>
    <i name="ewald"> -65633.08768453 </i>
    <i name="hartreedc"> -19492.27736511 </i>
    <i name="XCdc">   3996.17893466 </i>
    <i name="pawpsdc">  65216.70259387 </i>
    <i name="pawaedc"> -64758.55430935 </i>
    <i name="eentropy">     -0.18400023 </i>
    <i name="bandstr">  19217.29498413 </i>
    <i name="atom">  83133.90022879 </i>
    <i name="e_fr_energy">  25202.01730776 </i>
    <i name="e_wo_entrp">  25202.20130799 </i>
    <i name="e_0_energy">  25202.10930787 </i>
   </energy>
  </scstep>
  <scstep>
   <time name="dav">    1.56    1.57</time>
   <time name="total">    1.56    1.57</time>
   <energy>
    <i name="e_fr_energy">   9369.56619690 </i>
    <i name="e_wo_entrp">   9370.02215871 </i>
    <i name="e_0_energy">   9369.79417781 </i>
   </energy>
  </scstep>
  <scstep>
   <time name="dav">    1.60    1.61</time>
   <time name="total">    1.60    1.61</time>
   <energy>
    <i name="e_fr_energy">   2652.10838655 </i>
    <i name="e_wo_entrp">   2653.93487324 </i>
    <i name="e_0_energy">   2653.02162990 </i>
   </energy>
  </scstep>
  <scstep>
   <time name="dav">    2.07    2.08</time>
   <time name="total">    2.07    2.08</time>
   <energy>
    <i name="e_fr_energy">   -393.15369584 </i>
    <i name="e_wo_entrp">   -391.85153963 </i>
    <i name="e_0_energy">   -392.50261774 </i>
   </energy>
  </scstep>
  <scstep>
   <time name="dav">    2.38    2.40</time>
   <time name="total">    2.43    2.46</time>
   <energy>
    <i name="e_fr_energy">  -1434.02369934 </i>
    <i name="e_wo_entrp">  -1434.02369934 </i>
    <i name="e_0_energy">  -1434.02369934 </i>
   </energy>
  </scstep>
  <scstep>
   <time name="dav">    2.40    2.43</time>
   <time name="total">    2.53    2.56</time>
   <energy>
    <i name="e_fr_energy">  -1314.55340617 </i>
    <i name="e_wo_entrp">  -1314.55340617 </i>
    <i name="e_0_energy">  -1314.55340617 </i>
   </energy>
  </scstep>
  <scstep>
   <time name="dav">    2.44    2.45</time>
   <time name="total">    2.56    2.58</time>
   <energy>
    <i name="e_fr_energy">  -1336.65416638 </i>
    <i name="e_wo_entrp">  -1336.65416638 </i>
    <i name="e_0_energy">  -1336.65416638 </i>
   </energy>
  </scstep>
  <scstep>
   <time name="dav">    2.53    2.55</time>
   <time name="total">    2.66    2.68</time>
   <energy>
    <i name="e_fr_energy">  -1347.13455884 </i>
    <i name="e_wo_entrp">  -1347.13455884 </i>
    <i name="e_0_energy">  -1347.13455884 </i>
   </energy>
  </scstep>
  <scstep>
   <time name="dav">    2.39    2.41</time>
   <time name="total">    2.51    2.53</time>
   <energy>
    <i name="e_fr_energy">  -1338.85178231 </i>
    <i name="e_wo_entrp">  -1338.85178231 </i>
    <i name="e_0_energy">  -1338.85178231 </i>
   </energy>
  </scstep>
  <scstep>
   <time name="dav">    2.57    2.60</time>
   <time name="total">    2.70    2.72</time>
   <energy>
    <i name="e_fr_energy">  -1340.16404693 </i>
    <i name="e_wo_entrp">  -1340.16404693 </i>
    <i name="e_0_energy">  -1340.16404693 </i>
   </energy>
  </scstep>
  <scstep>
   <time name="dav">    2.49    2.51</time>
   <time name="total">    2.62    2.64</time>
   <energy>
    <i name="e_fr_energy">  -1340.22254348 </i>
    <i name="e_wo_entrp">  -1340.22254348 </i>
    <i name="e_0_energy">  -1340.22254348 </i>
   </energy>
  </scstep>
  <scstep>
   <time name="dav">    2.42    2.44</time>
   <time name="total">    2.55    2.57</time>
   <energy>
    <i name="e_fr_energy">  -1340.09681077 </i>
    <i name="e_wo_entrp">  -1340.09681077 </i>
    <i name="e_0_energy">  -1340.09681077 </i>
   </energy>
  </scstep>
  <scstep>
   <time name="dav">    2.40    2.42</time>
   <time name="total">    2.52    2.54</time>
   <energy>
    <i name="e_fr_energy">  -1340.18521634 </i>
    <i name="e_wo_entrp">  -1340.18521634 </i>
    <i name="e_0_energy">  -1340.18521634 </i>
   </energy>
  </scstep>
  <scstep>
   <time name="dav">    2.40    2.42</time>
   <time name="total">    2.53    2.55</time>
   <energy>
    <i name="e_fr_energy">  -1340.15687536 </i>
    <i name="e_wo_entrp">  -1340.15687536 </i>
    <i name="e_0_energy">  -1340.15687536 </i>
   </energy>
  </scstep>
  <scstep>
   <time name="dav">    2.41    2.43</time>
   <time name="total">    2.53    2.55</time>
   <energy>
    <i name="e_fr_energy">  -1340.16875424 </i>
    <i name="e_wo_entrp">  -1340.16875424 </i>
    <i name="e_0_energy">  -1340.16875424 </i>
   </energy>
  </scstep>
  <scstep>
   <time name="dav">    2.71    2.73</time>
   <time name="total">    2.83    2.86</time>
   <energy>
    <i name="e_fr_energy">  -1340.16615350 </i>
    <i name="e_wo_entrp">  -1340.16615350 </i>
    <i name="e_0_energy">  -1340.16615350 </i>
   </energy>
  </scstep>
  <scstep>
   <time name="dav">    2.40    2.42</time>
   <time name="total">    2.52    2.54</time>
   <energy>
    <i name="e_fr_energy">  -1340.16475154 </i>
    <i name="e_wo_entrp">  -1340.16475154 </i>
    <i name="e_0_energy">  -1340.16475154 </i>
   </energy>
  </scstep>
  <scstep>
   <time name="dav">    2.41    2.43</time>
   <time name="total">    2.61    2.64</time>
   <energy>
    <i name="e_fr_energy">  -1340.16511160 </i>
    <i name="e_wo_entrp">  -1340.16511160 </i>
    <i name="e_0_energy">  -1340.16511160 </i>
   </energy>
  </scstep>
  <scstep>
   <time name="dav">    2.37    2.39</time>
   <time name="total">    2.51    2.53</time>
   <energy>
    <i name="e_fr_energy">  -1340.16499864 </i>
    <i name="e_wo_entrp">  -1340.16499864 </i>
    <i name="e_0_energy">  -1340.16499864 </i>
   </energy>
  </scstep>
  <scstep>
   <time name="dav">    2.40    2.42</time>
   <time name="total">    2.52    2.54</time>
   <energy>
    <i name="e_fr_energy">  -1340.16505852 </i>
    <i name="e_wo_entrp">  -1340.16505852 </i>
    <i name="e_0_energy">  -1340.16505852 </i>
   </energy>
  </scstep>
  <scstep>
   <time name="dav">    2.59    2.61</time>
   <time name="total">    2.72    2.74</time>
   <energy>
    <i name="e_fr_energy">  -1340.16506384 </i>
    <i name="e_wo_entrp">  -1340.16506384 </i>
    <i name="e_0_energy">  -1340.16506384 </i>
   </energy>
  </scstep>
  <scstep>
   <time name="dav">    2.26    2.28</time>
   <time name="total">    2.39    2.41</time>
   <energy>
    <i name="e_fr_energy">  -1340.16508141 </i>
    <i name="e_wo_entrp">  -1340.16508141 </i>
    <i name="e_0_energy">  -1340.16508141 </i>
   </energy>
  </scstep>
  <scstep>
   <time name="dav">    1.99    2.00</time>
   <time name="total">    2.11    2.13</time>
   <energy>
    <i name="e_fr_energy">  -1340.16508000 </i>
    <i name="e_wo_entrp">  -1340.16508000 </i>
    <i name="e_0_energy">  -1340.16508000 </i>
   </energy>
  </scstep>
  <scstep>
   <time name="dav">    1.76    1.77</time>
   <time name="total">    1.88    1.90</time>
   <energy>
    <i name="e_fr_energy">  -1340.16508400 </i>
    <i name="e_wo_entrp">  -1340.16508400 </i>
    <i name="e_0_energy">  -1340.16508400 </i>
   </energy>
  </scstep>
  <scstep>
   <time name="dav">    1.19    1.21</time>
   <time name="total">    1.26    1.28</time>
   <energy>
    <i name="alphaZ">   3522.04392554 </i>
    <i name="ewald"> -65633.08768453 </i>
    <i name="hartreedc"> -20657.11425403 </i>
    <i name="XCdc">   4097.03351559 </i>
    <i name="pawpsdc"> 102834.66925417 </i>
    <i name="pawaedc">-102453.47819703 </i>
    <i name="eentropy">     -0.00000000 </i>
    <i name="bandstr">  -6184.13187335 </i>
    <i name="atom">  83133.90022879 </i>
    <i name="e_fr_energy">  -1340.16508484 </i>
    <i name="e_wo_entrp">  -1340.16508484 </i>
    <i name="e_0_energy">  -1340.16508484 </i>
   </energy>
  </scstep>
  <structure>
   <crystal>
    <varray name="basis" >
     <v>      12.96520042       0.00000000       0.00000000 </v>
     <v>       0.00000000      12.96500015       0.00000000 </v>
     <v>       0.00000000       0.00000000      12.96500015 </v>
    </varray>
    <i name="volume">   2179.33647298 </i>
    <varray name="rec_basis" >
     <v>       0.07712954       0.00000000       0.00000000 </v>
     <v>       0.00000000       0.07713074       0.00000000 </v>
     <v>       0.00000000       0.00000000       0.07713074 </v>
    </varray>
   </crystal>
   <varray name="positions" >
    <v>       0.10000000       0.19560000       0.28160000 </v>
    <v>       0.89999998       0.80439997       0.71840000 </v>
    <v>       0.40000001       0.80439997       0.78160000 </v>
    <v>       0.60000002       0.19560000       0.21840000 </v>
    <v>       0.89999998       0.69560003       0.21840000 </v>
    <v>       0.10000000       0.30440000       0.78160000 </v>
    <v>       0.60000002       0.30440000       0.71840000 </v>
    <v>       0.40000001       0.69560003       0.28160000 </v>
    <v>       0.28160000       0.10000000       0.19560000 </v>
    <v>       0.71840000       0.89999998       0.80439997 </v>
    <v>       0.78160000       0.40000001       0.80439997 </v>
    <v>       0.21840000       0.60000002       0.19560000 </v>
    <v>       0.21840000       0.89999998       0.69560003 </v>
    <v>       0.78160000       0.10000000       0.30440000 </v>
    <v>       0.71840000       0.60000002       0.30440000 </v>
    <v>       0.28160000       0.40000001       0.69560003 </v>
    <v>       0.19560000       0.28160000       0.10000000 </v>
    <v>       0.80439997       0.71840000       0.89999998 </v>
    <v>       0.80439997       0.78160000       0.40000001 </v>
    <v>       0.19560000       0.21840000       0.60000002 </v>
    <v>       0.69560003       0.21840000       0.89999998 </v>
    <v>       0.30440000       0.78160000       0.10000000 </v>
    <v>       0.30440000       0.71840000       0.60000002 </v>
    <v>       0.69560003       0.28160000       0.40000001 </v>
    <v>       0.94560003       0.34999999       0.96840000 </v>
    <v>       0.05440000       0.64999998       0.03160000 </v>
    <v>       0.55439997       0.64999998       0.46840000 </v>
    <v>       0.44560000       0.34999999       0.53160000 </v>
    <v>       0.44560000       0.15000001       0.03160000 </v>
    <v>       0.55439997       0.85000002       0.96840000 </v>
    <v>       0.05440000       0.85000002       0.53160000 </v>
    <v>       0.94560003       0.15000001       0.46840000 </v>
    <v>       0.85000002       0.53160000       0.05440000 </v>
    <v>       0.15000001       0.46840000       0.94560003 </v>
    <v>       0.15000001       0.03160000       0.44560000 </v>
    <v>       0.85000002       0.96840000       0.55439997 </v>
    <v>       0.64999998       0.46840000       0.55439997 </v>
    <v>       0.34999999       0.53160000       0.44560000 </v>
    <v>       0.34999999       0.96840000       0.94560003 </v>
    <v>       0.64999998       0.03160000       0.05440000 </v>
    <v>       0.03160000       0.44560000       0.15000001 </v>
    <v>       0.96840000       0.55439997       0.85000002 </v>
    <v>       0.53160000       0.05440000       0.85000002 </v>
    <v>       0.46840000       0.94560003       0.15000001 </v>
    <v>       0.96840000       0.94560003       0.34999999 </v>
    <v>       0.03160000       0.05440000       0.64999998 </v>
    <v>       0.46840000       0.55439997       0.64999998 </v>
    <v>       0.53160000       0.44560000       0.34999999 </v>
    <v>       0.60000002       0.69560003       0.78160000 </v>
    <v>       0.40000001       0.30440000       0.21840000 </v>
    <v>       0.89999998       0.30440000       0.28160000 </v>
    <v>       0.10000000       0.69560003       0.71840000 </v>
    <v>       0.40000001       0.19560000       0.71840000 </v>
    <v>       0.60000002       0.80439997       0.28160000 </v>
    <v>       0.10000000       0.80439997       0.21840000 </v>
    <v>       0.89999998       0.19560000       0.78160000 </v>
    <v>       0.78160000       0.60000002       0.69560003 </v>
    <v>       0.21840000       0.40000001       0.30440000 </v>
    <v>       0.28160000       0.89999998       0.30440000 </v>
    <v>       0.71840000       0.10000000       0.69560003 </v>
    <v>       0.71840000       0.40000001       0.19560000 </v>
    <v>       0.28160000       0.60000002       0.80439997 </v>
    <v>       0.21840000       0.10000000       0.80439997 </v>
    <v>       0.78160000       0.89999998       0.19560000 </v>
    <v>       0.69560003       0.78160000       0.60000002 </v>
    <v>       0.30440000       0.21840000       0.40000001 </v>
    <v>       0.30440000       0.28160000       0.89999998 </v>
    <v>       0.69560003       0.71840000       0.10000000 </v>
    <v>       0.19560000       0.71840000       0.40000001 </v>
    <v>       0.80439997       0.28160000       0.60000002 </v>
    <v>       0.80439997       0.21840000       0.10000000 </v>
    <v>       0.19560000       0.78160000       0.89999998 </v>
    <v>       0.44560000       0.85000002       0.46840000 </v>
    <v>       0.55439997       0.15000001       0.53160000 </v>
    <v>       0.05440000       0.15000001       0.96840000 </v>
    <v>       0.94560003       0.85000002       0.03160000 </v>
    <v>       0.94560003       0.64999998       0.53160000 </v>
    <v>       0.05440000       0.34999999       0.46840000 </v>
    <v>       0.55439997       0.34999999       0.03160000 </v>
    <v>       0.44560000       0.64999998       0.96840000 </v>
    <v>       0.34999999       0.03160000       0.55439997 </v>
    <v>       0.64999998       0.96840000       0.44560000 </v>
    <v>       0.64999998       0.53160000       0.94560003 </v>
    <v>       0.34999999       0.46840000       0.05440000 </v>
    <v>       0.15000001       0.96840000       0.05440000 </v>
    <v>       0.85000002       0.03160000       0.94560003 </v>
    <v>       0.85000002       0.46840000       0.44560000 </v>
    <v>       0.15000001       0.53160000       0.55439997 </v>
    <v>       0.53160000       0.94560003       0.64999998 </v>
    <v>       0.46840000       0.05440000       0.34999999 </v>
    <v>       0.03160000       0.55439997       0.34999999 </v>
    <v>       0.96840000       0.44560000       0.64999998 </v>
    <v>       0.46840000       0.44560000       0.85000002 </v>
    <v>       0.53160000       0.55439997       0.15000001 </v>
    <v>       0.96840000       0.05440000       0.15000001 </v>
    <v>       0.03160000       0.94560003       0.85000002 </v>
    <v>       0.12500000       0.00000000       0.25000000 </v>
    <v>       0.87500000       0.00000000       0.75000000 </v>
    <v>       0.37500000       0.00000000       0.75000000 </v>
    <v>       0.62500000       0.00000000       0.25000000 </v>
    <v>       0.87500000       0.50000000       0.25000000 </v>
    <v>       0.12500000       0.50000000       0.75000000 </v>
    <v>       0.62500000       0.50000000       0.75000000 </v>
    <v>       0.37500000       0.50000000       0.25000000 </v>
    <v>       0.25000000       0.12500000       0.00000000 </v>
    <v>       0.75000000       0.87500000       0.00000000 </v>
    <v>       0.75000000       0.37500000       0.00000000 </v>
    <v>       0.25000000       0.62500000       0.00000000 </v>
    <v>       0.25000000       0.87500000       0.50000000 </v>
    <v>       0.75000000       0.12500000       0.50000000 </v>
    <v>       0.75000000       0.62500000       0.50000000 </v>
    <v>       0.25000000       0.37500000       0.50000000 </v>
    <v>       0.00000000       0.25000000       0.12500000 </v>
    <v>       0.00000000       0.75000000       0.87500000 </v>
    <v>       0.00000000       0.75000000       0.37500000 </v>
    <v>       0.00000000       0.25000000       0.62500000 </v>
    <v>       0.50000000       0.25000000       0.87500000 </v>
    <v>       0.50000000       0.75000000       0.12500000 </v>
    <v>       0.50000000       0.75000000       0.62500000 </v>
    <v>       0.50000000       0.25000000       0.37500000 </v>
    <v>       0.00000000       0.00000000       0.00000000 </v>
    <v>       0.50000000       0.00000000       0.50000000 </v>
    <v>       0.00000000       0.50000000       0.50000000 </v>
    <v>       0.50000000       0.50000000       0.00000000 </v>
    <v>       0.75000000       0.25000000       0.25000000 </v>
    <v>       0.25000000       0.75000000       0.75000000 </v>
    <v>       0.75000000       0.75000000       0.75000000 </v>
    <v>       0.25000000       0.25000000       0.25000000 </v>
    <v>       0.25000000       0.25000000       0.75000000 </v>
    <v>       0.75000000       0.75000000       0.25000000 </v>
    <v>       0.25000000       0.75000000       0.25000000 </v>
    <v>       0.75000000       0.25000000       0.75000000 </v>
    <v>       0.50000000       0.50000000       0.50000000 </v>
    <v>       0.00000000       0.50000000       0.00000000 </v>
    <v>       0.50000000       0.00000000       0.00000000 </v>
    <v>       0.00000000       0.00000000       0.50000000 </v>
    <v>       0.18770000       0.92600000       0.90090001 </v>
    <v>       0.43770000       0.15090001       0.17600000 </v>
    <v>       0.15090001       0.67600000       0.56229997 </v>
    <v>       0.31230000       0.07400000       0.40090001 </v>
    <v>       0.84909999       0.82400000       0.56229997 </v>
    <v>       0.17600000       0.56229997       0.34909999 </v>
    <v>       0.34909999       0.67600000       0.43770000 </v>
    <v>       0.57400000       0.09910000       0.68770003 </v>
    <v>       0.09910000       0.18770000       0.42600000 </v>
    <v>       0.07400000       0.40090001       0.31230000 </v>
    <v>       0.59909999       0.68770003       0.92600000 </v>
    <v>       0.31230000       0.92600000       0.09910000 </v>
    <v>       0.17600000       0.06230000       0.65090001 </v>
    <v>       0.67600000       0.93770003       0.65090001 </v>
    <v>       0.56229997       0.34909999       0.17600000 </v>
    <v>       0.93770003       0.65090001       0.67600000 </v>
    <v>       0.43770000       0.34909999       0.67600000 </v>
    <v>       0.93770003       0.84909999       0.17600000 </v>
    <v>       0.07400000       0.90090001       0.68770003 </v>
    <v>       0.93770003       0.34909999       0.82400000 </v>
    <v>       0.84909999       0.17600000       0.93770003 </v>
    <v>       0.84909999       0.67600000       0.06230000 </v>
    <v>       0.67600000       0.56229997       0.15090001 </v>
    <v>       0.59909999       0.81229997       0.42600000 </v>
    <v>       0.82400000       0.43770000       0.65090001 </v>
    <v>       0.84909999       0.32400000       0.43770000 </v>
    <v>       0.43770000       0.84909999       0.32400000 </v>
    <v>       0.06230000       0.65090001       0.17600000 </v>
    <v>       0.59909999       0.18770000       0.07400000 </v>
    <v>       0.56229997       0.84909999       0.82400000 </v>
    <v>       0.81229997       0.57400000       0.90090001 </v>
    <v>       0.93770003       0.15090001       0.32400000 </v>
    <v>       0.50000000       0.75000000       0.37500000 </v>
    <v>       0.87500000       0.00000000       0.25000000 </v>
    <v>       0.62500000       0.50000000       0.25000000 </v>
    <v>       0.25000000       0.12500000       0.50000000 </v>
    <v>       0.50000000       0.25000000       0.62500000 </v>
    <v>       0.00000000       0.25000000       0.37500000 </v>
    <v>       0.25000000       0.87500000       0.00000000 </v>
    <v>       0.12500000       0.50000000       0.25000000 </v>
    <v>       0.62500000       0.00000000       0.75000000 </v>
    <v>       0.75000000       0.87500000       0.50000000 </v>
    <v>       0.50000000       0.75000000       0.87500000 </v>
    <v>       0.75000000       0.62500000       0.00000000 </v>
    <v>       0.00000000       0.75000000       0.62500000 </v>
    <v>       0.00000000       0.25000000       0.87500000 </v>
    <v>       0.25000000       0.62500000       0.50000000 </v>
    <v>       0.87500000       0.50000000       0.75000000 </v>
    <v>       0.75000000       0.12500000       0.00000000 </v>
    <v>       0.12500000       0.00000000       0.75000000 </v>
    <v>       0.50000000       0.25000000       0.12500000 </v>
    <v>       0.37500000       0.00000000       0.25000000 </v>
    <v>       0.25000000       0.37500000       0.00000000 </v>
    <v>       0.00000000       0.75000000       0.12500000 </v>
    <v>       0.75000000       0.37500000       0.50000000 </v>
    <v>       0.37500000       0.50000000       0.75000000 </v>
   </varray>
  </structure>
  <varray name="forces" >
   <v>      -1.42138294      -0.20820998       1.34430948 </v>
   <v>       0.19332870      -0.49148137      -1.03489783 </v>
   <v>       0.91202173       0.84690963      -0.86835586 </v>
   <v>      -1.38689435       0.45671946      -1.08665794 </v>
   <v>       1.16030417       0.26894042      -0.99528709 </v>
   <v>      -1.56313852       0.49627625      -1.15524849 </v>
   <v>       0.05861471      -0.21673294       0.45706600 </v>
   <v>      -0.36588778       1.21456828       0.96507167 </v>
   <v>       0.59109402      -0.53272718       0.38439640 </v>
   <v>      -0.60710902      -0.52333579      -1.12651066 </v>
   <v>       1.21656429       0.50683560      -0.48389816 </v>
   <v>      -1.12811513       0.60559181       1.60590713 </v>
   <v>      -1.04331797       1.45568906      -0.71419198 </v>
   <v>       0.16929309       0.81771442       0.44115859 </v>
   <v>       0.92835092       0.23174576      -1.11411558 </v>
   <v>      -0.16723772      -0.65095773      -0.86482810 </v>
   <v>      -0.34129588      -1.31398273       1.54188847 </v>
   <v>      -0.10071432      -0.69335737       0.82061454 </v>
   <v>       0.29749559      -0.45025569       0.80978838 </v>
   <v>      -1.24798825      -0.86121414      -1.05779322 </v>
   <v>       0.96402817       0.43028729       0.39665056 </v>
   <v>       0.15260306       0.39931454       0.99990399 </v>
   <v>      -0.74007452       0.56653911      -1.92453267 </v>
   <v>       1.21867315      -0.69188660      -0.26177638 </v>
   <v>      -1.17225444      -0.18357207      -0.28718919 </v>
   <v>      -1.06535079       0.50348530       0.52514063 </v>
   <v>       0.20386246       1.93021004       0.26611231 </v>
   <v>      -0.40291916      -0.02504811      -0.23935289 </v>
   <v>       1.27315372      -0.03306964       1.09186672 </v>
   <v>       0.89697646      -1.12320960      -0.52342629 </v>
   <v>       0.08258140      -0.29667143       0.60800539 </v>
   <v>       0.80935245       0.77256902      -0.73901952 </v>
   <v>      -1.49999658       1.24964321      -0.25337588 </v>
   <v>      -1.73782992       1.37289395      -0.07354760 </v>
   <v>       0.41250847       0.59101329       0.07696713 </v>
   <v>      -0.14949278      -0.43144494       0.73711898 </v>
[...]
       <r>    3.7955    1.0000 </r>
       <r>    3.8010    1.0000 </r>
       <r>    3.8119    1.0000 </r>
       <r>    3.8172    1.0000 </r>
       <r>    3.8307    1.0000 </r>
       <r>    3.8321    1.0000 </r>
       <r>    3.8395    1.0000 </r>
       <r>    3.8510    1.0000 </r>
       <r>    3.8640    1.0000 </r>
       <r>    3.8736    1.0000 </r>
       <r>    3.8792    1.0000 </r>
       <r>    3.8871    1.0000 </r>
       <r>    3.8910    1.0000 </r>
       <r>    3.9039    1.0000 </r>
       <r>    3.9056    1.0000 </r>
       <r>    3.9133    1.0000 </r>
       <r>    3.9221    1.0000 </r>
       <r>    3.9317    1.0000 </r>
       <r>    3.9326    1.0000 </r>
       <r>    3.9513    1.0000 </r>
       <r>    3.9551    1.0000 </r>
       <r>    3.9621    1.0000 </r>
       <r>    3.9699    1.0000 </r>
       <r>    3.9746    1.0000 </r>
       <r>    3.9900    1.0000 </r>
       <r>    3.9932    1.0000 </r>
       <r>    3.9987    1.0000 </r>
       <r>    4.0047    1.0000 </r>
       <r>    4.0240    1.0000 </r>
       <r>    4.0323    1.0000 </r>
       <r>    4.0504    1.0000 </r>
       <r>    4.0603    1.0000 </r>
       <r>    4.0646    1.0000 </r>
       <r>    4.0733    1.0000 </r>
       <r>    4.0801    1.0000 </r>
       <r>    4.0935    1.0000 </r>
       <r>    4.1044    1.0000 </r>
       <r>    4.1141    1.0000 </r>
       <r>    4.1283    1.0000 </r>
       <r>    4.1354    1.0000 </r>
       <r>    4.1532    1.0000 </r>
       <r>    4.1606    1.0000 </r>
       <r>    4.1688    1.0000 </r>
       <r>    4.1763    1.0000 </r>
       <r>    4.1881    1.0000 </r>
       <r>    4.1946    1.0000 </r>
       <r>    4.2003    1.0000 </r>
       <r>    4.2051    1.0000 </r>
       <r>    4.2142    1.0000 </r>
       <r>    4.2231    1.0000 </r>
       <r>    4.2436    1.0000 </r>
       <r>    4.2484    1.0000 </r>
       <r>    4.2513    1.0000 </r>
       <r>    4.2628    1.0000 </r>
       <r>    4.2673    1.0000 </r>
       <r>    4.2745    1.0000 </r>
       <r>    4.2825    1.0000 </r>
       <r>    4.2874    1.0000 </r>
       <r>    4.3026    1.0000 </r>
       <r>    4.3090    1.0000 </r>
       <r>    4.3240    1.0000 </r>
       <r>    4.3300    1.0000 </r>
       <r>    4.3365    1.0000 </r>
       <r>    4.3386    1.0000 </r>
       <r>    4.3536    1.0000 </r>
       <r>    4.3598    1.0000 </r>
       <r>    4.3655    1.0000 </r>
       <r>    4.3697    1.0000 </r>
       <r>    4.3921    1.0000 </r>
       <r>    4.4044    1.0000 </r>
       <r>    4.4147    1.0000 </r>
       <r>    4.4249    1.0000 </r>
       <r>    4.4266    1.0000 </r>
       <r>    4.4404    1.0000 </r>
       <r>    4.4420    1.0000 </r>
       <r>    4.4482    1.0000 </r>
       <r>    4.4587    1.0000 </r>
       <r>    4.4701    1.0000 </r>
       <r>    4.4877    1.0000 </r>
       <r>    4.5052    1.0000 </r>
       <r>    4.5129    1.0000 </r>
       <r>    4.5307    1.0000 </r>
       <r>    4.5692    1.0000 </r>
       <r>    8.9272    0.0000 </r>
       <r>    9.0680    0.0000 </r>
       <r>    9.0809    0.0000 </r>
       <r>    9.0997    0.0000 </r>
       <r>    9.1315    0.0000 </r>
       <r>    9.1611    0.0000 </r>
       <r>    9.1636    0.0000 </r>
       <r>    9.1763    0.0000 </r>
       <r>    9.1856    0.0000 </r>
       <r>    9.2027    0.0000 </r>
       <r>    9.2196    0.0000 </r>
       <r>    9.2303    0.0000 </r>
       <r>    9.2503    0.0000 </r>
       <r>    9.2686    0.0000 </r>
       <r>    9.2855    0.0000 </r>
       <r>    9.2916    0.0000 </r>
       <r>    9.2962    0.0000 </r>
       <r>    9.3098    0.0000 </r>
       <r>    9.3221    0.0000 </r>
       <r>    9.3344    0.0000 </r>
       <r>    9.3416    0.0000 </r>
       <r>    9.3558    0.0000 </r>
       <r>    9.3573    0.0000 </r>
       <r>    9.3771    0.0000 </r>
       <r>    9.3785    0.0000 </r>
       <r>    9.3879    0.0000 </r>
       <r>    9.4054    0.0000 </r>
       <r>    9.4138    0.0000 </r>
       <r>    9.4220    0.0000 </r>
       <r>    9.4363    0.0000 </r>
       <r>    9.4427    0.0000 </r>
       <r>    9.4503    0.0000 </r>
       <r>    9.4576    0.0000 </r>
       <r>    9.4681    0.0000 </r>
       <r>    9.4733    0.0000 </r>
       <r>    9.4896    0.0000 </r>
       <r>    9.4945    0.0000 </r>
       <r>    9.5063    0.0000 </r>
       <r>    9.5281    0.0000 </r>
       <r>    9.5396    0.0000 </r>
       <r>    9.5433    0.0000 </r>
       <r>    9.5572    0.0000 </r>
       <r>    9.5610    0.0000 </r>
       <r>    9.5792    0.0000 </r>
       <r>    9.6120    0.0000 </r>
       <r>    9.6269    0.0000 </r>
       <r>    9.6347    0.0000 </r>
       <r>    9.6948    0.0000 </r>
       <r>    9.7095    0.0000 </r>
       <r>    9.7168    0.0000 </r>
       <r>    9.7306    0.0000 </r>
       <r>    9.7436    0.0000 </r>
       <r>    9.7545    0.0000 </r>
       <r>    9.7628    0.0000 </r>
       <r>    9.7841    0.0000 </r>
       <r>    9.7883    0.0000 </r>
       <r>    9.8043    0.0000 </r>
       <r>    9.8069    0.0000 </r>
       <r>    9.8098    0.0000 </r>
       <r>    9.8154    0.0000 </r>
       <r>    9.8230    0.0000 </r>
       <r>    9.8304    0.0000 </r>
       <r>    9.8328    0.0000 </r>
       <r>    9.8331    0.0000 </r>
       <r>    9.8426    0.0000 </r>
       <r>    9.8471    0.0000 </r>
       <r>    9.8473    0.0000 </r>
       <r>    9.8515    0.0000 </r>
       <r>    9.8584    0.0000 </r>
       <r>    9.8637    0.0000 </r>
       <r>    9.8659    0.0000 </r>
       <r>    9.8702    0.0000 </r>
       <r>    9.8744    0.0000 </r>
       <r>    9.8771    0.0000 </r>
       <r>    9.8800    0.0000 </r>
       <r>    9.8831    0.0000 </r>
       <r>    9.8845    0.0000 </r>
       <r>    9.8901    0.0000 </r>
       <r>    9.8925    0.0000 </r>
       <r>    9.8975    0.0000 </r>
       <r>    9.8998    0.0000 </r>
       <r>    9.9024    0.0000 </r>
       <r>    9.9063    0.0000 </r>
       <r>    9.9080    0.0000 </r>
       <r>    9.9144    0.0000 </r>
       <r>    9.9188    0.0000 </r>
       <r>    9.9231    0.0000 </r>
       <r>    9.9263    0.0000 </r>
       <r>    9.9276    0.0000 </r>
       <r>    9.9332    0.0000 </r>
       <r>    9.9362    0.0000 </r>
       <r>    9.9371    0.0000 </r>
       <r>    9.9379    0.0000 </r>
       <r>    9.9423    0.0000 </r>
       <r>    9.9473    0.0000 </r>
       <r>    9.9506    0.0000 </r>
       <r>    9.9526    0.0000 </r>
       <r>    9.9562    0.0000 </r>
       <r>    9.9585    0.0000 </r>
       <r>    9.9633    0.0000 </r>
       <r>    9.9676    0.0000 </r>
       <r>    9.9702    0.0000 </r>
       <r>    9.9721    0.0000 </r>
       <r>    9.9789    0.0000 </r>
       <r>    9.9816    0.0000 </r>
       <r>    9.9842    0.0000 </r>
       <r>    9.9848    0.0000 </r>
       <r>    9.9909    0.0000 </r>
       <r>    9.9918    0.0000 </r>
       <r>    9.9939    0.0000 </r>
       <r>    9.9974    0.0000 </r>
       <r>   10.0057    0.0000 </r>
      </set>
     </set>
    </set>
   </array>
  </eigenvalues>
  <separator name="orbital magnetization" >
   <v name="MAGDIPOLOUT">      0.00000000      0.00000000      0.00000000</v>
  </separator>
 </calculation>
 <structure name="finalpos" >
  <crystal>
   <varray name="basis" >
    <v>      12.96520042       0.00000000       0.00000000 </v>
    <v>       0.00000000      12.96500015       0.00000000 </v>
    <v>       0.00000000       0.00000000      12.96500015 </v>
   </varray>
   <i name="volume">   2179.33647298 </i>
   <varray name="rec_basis" >
    <v>       0.07712954       0.00000000       0.00000000 </v>
    <v>       0.00000000       0.07713074       0.00000000 </v>
    <v>       0.00000000       0.00000000       0.07713074 </v>
   </varray>
  </crystal>
  <varray name="positions" >
   <v>       0.09766609       0.19099210       0.28711061 </v>
   <v>       0.89932859       0.80226793       0.71492169 </v>
   <v>       0.39533113       0.81602723       0.77098984 </v>
   <v>       0.59745725       0.19367245       0.21979442 </v>
   <v>       0.89911695       0.69757059       0.22063590 </v>
   <v>       0.09837574       0.31279572       0.77421183 </v>
   <v>       0.59744922       0.30303508       0.71999451 </v>
   <v>       0.40091167       0.69717127       0.28345469 </v>
   <v>       0.28511910       0.09785243       0.20101295 </v>
   <v>       0.71660134       0.90212415       0.80164782 </v>
   <v>       0.78283985       0.39881188       0.80333290 </v>
   <v>       0.21327264       0.59845061       0.20045112 </v>
   <v>       0.21423443       0.90528963       0.69945951 </v>
   <v>       0.78110145       0.09906218       0.30512336 </v>
   <v>       0.71581191       0.59909796       0.30107222 </v>
   <v>       0.27963406       0.40324588       0.69460775 </v>
   <v>       0.19056530       0.28306044       0.10516914 </v>
   <v>       0.80090839       0.71932197       0.90381339 </v>
   <v>       0.80587464       0.77466444       0.40324381 </v>
   <v>       0.19045199       0.21367546       0.60160395 </v>
   <v>       0.70369396       0.21327572       0.89731610 </v>
   <v>       0.30273390       0.77875628       0.10000653 </v>
   <v>       0.29826872       0.72009005       0.59739512 </v>
   <v>       0.69761914       0.27633894       0.39676695 </v>
   <v>       0.94466157       0.34507652       0.96474596 </v>
   <v>       0.04800770       0.64894973       0.03733616 </v>
   <v>       0.55800117       0.64939573       0.47394628 </v>
   <v>       0.43966769       0.35035323       0.53474966 </v>
   <v>       0.44733501       0.15001456       0.03624011 </v>
   <v>       0.55285980       0.84667184       0.96167389 </v>
   <v>       0.05629356       0.85284548       0.53334206 </v>
   <v>       0.94648455       0.15145857       0.46573125 </v>
   <v>       0.84712737       0.53735258       0.04554103 </v>
   <v>       0.14876423       0.47591918       0.94732006 </v>
   <v>       0.14869815       0.02684235       0.44538301 </v>
   <v>       0.84617602       0.96794872       0.55554765 </v>
   <v>       0.64883774       0.47650958       0.56608079 </v>
   <v>       0.35095676       0.53418632       0.44444236 </v>
   <v>       0.34156790       0.96811712       0.95782199 </v>
   <v>       0.64205844       0.03122708       0.05689293 </v>
   <v>       0.02390994       0.44679800       0.15361751 </v>
   <v>       0.96509393       0.55561518       0.84798128 </v>
   <v>       0.52209609       0.05422785       0.84765321 </v>
   <v>       0.46594162       0.93810891       0.14952132 </v>
   <v>       0.96167905       0.94754417       0.34893917 </v>
   <v>       0.03063808       0.05035182       0.65086471 </v>
   <v>       0.45895256       0.54997231       0.64996128 </v>
   <v>       0.52420553       0.43513341       0.35595834 </v>
   <v>       0.59526564       0.70511553       0.77961862 </v>
   <v>       0.40018846       0.29732627       0.22293662 </v>
   <v>       0.89764102       0.30269397       0.28833364 </v>
   <v>       0.09757836       0.69564015       0.71091319 </v>
   <v>       0.39624031       0.20273365       0.71025861 </v>
   <v>       0.59677937       0.80494108       0.28792771 </v>
   <v>       0.09667944       0.80661010       0.22557361 </v>
   <v>       0.90286824       0.20243467       0.78033050 </v>
   <v>       0.78544784       0.59930347       0.70236843 </v>
   <v>       0.21871821       0.40218677       0.30409901 </v>
   <v>       0.28819946       0.89764774       0.30612977 </v>
   <v>       0.71815899       0.09800775       0.69411523 </v>
   <v>       0.71563052       0.40189438       0.19294856 </v>
   <v>       0.27350346       0.60800773       0.81152928 </v>
   <v>       0.21955847       0.10156662       0.80952438 </v>
   <v>       0.77923857       0.89432257       0.19078416 </v>
   <v>       0.69933509       0.78289792       0.60130783 </v>
   <v>       0.29456301       0.21614371       0.40632634 </v>
   <v>       0.30910087       0.27331559       0.90334535 </v>
   <v>       0.68538596       0.71484236       0.10530021 </v>
   <v>       0.19652778       0.71653836       0.40073457 </v>
   <v>       0.80297687       0.28290895       0.59264715 </v>
   <v>       0.80656577       0.22476768       0.09681610 </v>
   <v>       0.18359245       0.78245460       0.89696249 </v>
   <v>       0.44879145       0.84648646       0.47214295 </v>
   <v>       0.55657138       0.14659842       0.53241678 </v>
   <v>       0.05090779       0.14418688       0.97413515 </v>
   <v>       0.94266814       0.84402592       0.03320128 </v>
   <v>       0.94974044       0.65341961       0.53656687 </v>
   <v>       0.05706667       0.35465546       0.46572874 </v>
   <v>       0.55461205       0.34318863       0.02918378 </v>
   <v>       0.44952419       0.64682907       0.97434358 </v>
   <v>       0.34519436       0.02722104       0.55266732 </v>
   <v>       0.64633234       0.96625276       0.44327295 </v>
   <v>       0.64740284       0.53704330       0.94294929 </v>
   <v>       0.34983377       0.46393683       0.05985058 </v>
   <v>       0.14680533       0.95915447       0.05556118 </v>
   <v>       0.84867444       0.03049913       0.94235212 </v>
   <v>       0.84800950       0.46839086       0.45541698 </v>
   <v>       0.15300243       0.53099592       0.55289708 </v>
   <v>       0.53245418       0.95189539       0.64916311 </v>
   <v>       0.46313840       0.05789528       0.34903890 </v>
   <v>       0.02792358       0.55458915       0.35071270 </v>
   <v>       0.96293167       0.44811757       0.65100669 </v>
   <v>       0.47265668       0.43873775       0.84707336 </v>
   <v>       0.53298986       0.53619161       0.15376042 </v>
   <v>       0.97038259       0.05065559       0.15550515 </v>
   <v>       0.02872030       0.94398938       0.84824590 </v>
   <v>       0.12379681      -0.00302187       0.24888034 </v>
   <v>       0.87293683       0.00096982       0.75186222 </v>
   <v>       0.37021549       0.00097888       0.74709114 </v>
   <v>       0.62491175      -0.00010357       0.24809944 </v>
   <v>       0.86953729       0.49677822       0.25433072 </v>
   <v>       0.13009643       0.49884996       0.75481445 </v>
   <v>       0.62041839       0.49848808       0.75028283 </v>
   <v>       0.37963819       0.49742830       0.25120323 </v>
   <v>       0.24629780       0.12669616      -0.00010178 </v>
   <v>       0.74740382       0.87692256       0.00176799 </v>
   <v>       0.74810848       0.37348787      -0.00236186 </v>
   <v>       0.25190235       0.62114202      -0.00300943 </v>
   <v>       0.24848491       0.87508710       0.49854232 </v>
   <v>       0.74625838       0.12548405       0.49834967 </v>
   <v>       0.74479923       0.62348646       0.49996921 </v>
   <v>       0.24914941       0.37604517       0.50098570 </v>
   <v>      -0.00072587       0.24910740       0.12563253 </v>
   <v>      -0.00023383       0.75050884       0.87178072 </v>
   <v>      -0.00369665       0.75079985       0.37747047 </v>
   <v>       0.00204405       0.24884068       0.62408939 </v>
   <v>       0.49698724       0.24796218       0.86929882 </v>
   <v>       0.49760036       0.75075241       0.12225731 </v>
   <v>       0.49224386       0.74446143       0.62740155 </v>
   <v>       0.50209032       0.25150915       0.38001818 </v>
   <v>      -0.00337677      -0.00253346       0.00663859 </v>
   <v>       0.49651558      -0.00122206       0.49869901 </v>
   <v>       0.00113716       0.50279707       0.50358792 </v>
   <v>       0.49515180       0.49448649      -0.00309097 </v>
   <v>       0.74798146       0.24625124       0.24539290 </v>
   <v>       0.24721844       0.75199972       0.74905844 </v>
   <v>       0.74662453       0.74883779       0.75207033 </v>
   <v>       0.24691041       0.25037764       0.25069467 </v>
   <v>       0.24905525       0.25410635       0.75560319 </v>
   <v>       0.74745982       0.74978569       0.25372223 </v>
   <v>       0.24621341       0.74900008       0.24843220 </v>
   <v>       0.74490575       0.25021208       0.74580498 </v>
   <v>       0.50014354       0.49882961       0.50230448 </v>
   <v>       0.00113068       0.49545402      -0.00080401 </v>
   <v>       0.49477673      -0.00208973      -0.00313198 </v>
   <v>      -0.00444590      -0.00094933       0.49576925 </v>
   <v>       0.17261404       0.92926600       0.86117989 </v>
   <v>       0.43634474       0.15253817       0.18387304 </v>
   <v>       0.14797374       0.67521870       0.55755511 </v>
   <v>       0.31121643       0.07356452       0.38566186 </v>
   <v>       0.84356111       0.82418531       0.57539852 </v>
   <v>       0.17942720       0.57145884       0.36543520 </v>
   <v>       0.35495581       0.67832391       0.42704113 </v>
   <v>       0.57457193       0.09553076       0.67432065 </v>
   <v>       0.15392644       0.16917067       0.43683782 </v>
   <v>       0.07640555       0.41342839       0.31945254 </v>
   <v>       0.59422797       0.67705777       0.91938892 </v>
   <v>       0.32364231       0.92701723       0.11153647 </v>
   <v>       0.17589732       0.06572427       0.61652947 </v>
   <v>       0.67647953       0.92893309       0.63230147 </v>
   <v>       0.57026030       0.37030486       0.17083072 </v>
   <v>       0.93032132       0.62726601       0.67976258 </v>
   <v>       0.42041089       0.38244583       0.67981591 </v>
   <v>       0.92719177       0.84779203       0.17737160 </v>
   <v>       0.07457555       0.90678086       0.68470575 </v>
   <v>       0.92568673       0.35069827       0.82074884 </v>
   <v>       0.87582989       0.18023956       0.92263333 </v>
   <v>       0.90851024       0.68186941       0.07680145 </v>
   <v>       0.67049627       0.56845974       0.14794641 </v>
   <v>       0.60596251       0.82001030       0.43711884 </v>
   <v>       0.82154201       0.42636023       0.60260323 </v>
   <v>       0.84706529       0.32496677       0.43031642 </v>
   <v>       0.43693562       0.83933368       0.32959366 </v>
   <v>       0.06279368       0.61456190       0.18804133 </v>
   <v>       0.58824548       0.18579408       0.07603929 </v>
   <v>       0.57048691       0.87067827       0.81201260 </v>
   <v>       0.82557187       0.57631357       0.88581395 </v>
   <v>       0.92750993       0.12226499       0.32145891 </v>
   <v>       0.54140967       0.67484399       0.33566787 </v>
   <v>       0.86184083      -0.00253506       0.24103843 </v>
   <v>       0.63480936       0.48380146       0.29019023 </v>
   <v>       0.32453382       0.16919219       0.55284402 </v>
   <v>       0.50483687       0.25014707       0.61714829 </v>
   <v>       0.00533637       0.25662234       0.37795864 </v>
   <v>       0.24468310       0.85960543      -0.00391380 </v>
   <v>       0.17192054       0.45054579       0.16400716 </v>
   <v>       0.66351909       0.04270518       0.82488773 </v>
   <v>       0.78021776       0.91009114       0.43582272 </v>
   <v>       0.44677363       0.76093031       0.88775036 </v>
   <v>       0.74169649       0.63189891       0.00694253 </v>
   <v>       0.00399527       0.75873302       0.62236540 </v>
   <v>       0.04016819       0.25037972       0.88512304 </v>
   <v>       0.30064018       0.57771718       0.57866638 </v>
   <v>       0.87318779       0.49431181       0.75168743 </v>
   <v>       0.74888263       0.11615557       0.01269657 </v>
   <v>       0.08429541       0.06901829       0.79002088 </v>
   <v>       0.41247175       0.30153609       0.07701569 </v>
   <v>       0.38016070      -0.00444180       0.25142740 </v>
   <v>       0.24651540       0.37428575      -0.00844375 </v>
   <v>       0.07757239       0.79222632       0.08357191 </v>
   <v>       0.69522684       0.35917539       0.50900309 </v>
   <v>       0.37473817       0.51976281       0.77073616 </v>
  </varray>
 </structure>
</modeling>
