unknown system                          
           1
    12.965200    0.000000    0.000000
     0.000000   12.965000    0.000000
     0.000000    0.000000   12.965000
   O    La   Zr   Li   Al
  96  24  16  56   0
Direct configuration=     1
   0.10000000  0.19560000  0.28160000
   0.89999998  0.80439997  0.71840000
   0.40000001  0.80439997  0.78160000
   0.60000002  0.19560000  0.21840000
   0.89999998  0.69560003  0.21840000
   0.10000000  0.30440000  0.78160000
   0.60000002  0.30440000  0.71840000
   0.40000001  0.69560003  0.28160000
   0.28160000  0.10000000  0.19560000
   0.71840000  0.89999998  0.80439997
   0.78160000  0.40000001  0.80439997
   0.21840000  0.60000002  0.19560000
   0.21840000  0.89999998  0.69560003
   0.78160000  0.10000000  0.30440000
   0.71840000  0.60000002  0.30440000
   0.28160000  0.40000001  0.69560003
   0.19560000  0.28160000  0.10000000
   0.80439997  0.71840000  0.89999998
   0.80439997  0.78160000  0.40000001
   0.19560000  0.21840000  0.60000002
   0.69560003  0.21840000  0.89999998
   0.30440000  0.78160000  0.10000000
   0.30440000  0.71840000  0.60000002
   0.69560003  0.28160000  0.40000001
   0.94560003  0.34999999  0.96840000
   0.05440000  0.64999998  0.03160000
   0.55439997  0.64999998  0.46840000
   0.44560000  0.34999999  0.53160000
   0.44560000  0.15000001  0.03160000
   0.55439997  0.85000002  0.96840000
   0.05440000  0.85000002  0.53160000
   0.94560003  0.15000001  0.46840000
   0.85000002  0.53160000  0.05440000
   0.15000001  0.46840000  0.94560003
   0.15000001  0.03160000  0.44560000
   0.85000002  0.96840000  0.55439997
   0.64999998  0.46840000  0.55439997
   0.34999999  0.53160000  0.44560000
   0.34999999  0.96840000  0.94560003
   0.64999998  0.03160000  0.05440000
   0.03160000  0.44560000  0.15000001
   0.96840000  0.55439997  0.85000002
   0.53160000  0.05440000  0.85000002
   0.46840000  0.94560003  0.15000001
   0.96840000  0.94560003  0.34999999
   0.03160000  0.05440000  0.64999998
   0.46840000  0.55439997  0.64999998
   0.53160000  0.44560000  0.34999999
   0.60000002  0.69560003  0.78160000
   0.40000001  0.30440000  0.21840000
   0.89999998  0.30440000  0.28160000
   0.10000000  0.69560003  0.71840000
   0.40000001  0.19560000  0.71840000
   0.60000002  0.80439997  0.28160000
   0.10000000  0.80439997  0.21840000
   0.89999998  0.19560000  0.78160000
   0.78160000  0.60000002  0.69560003
   0.21840000  0.40000001  0.30440000
   0.28160000  0.89999998  0.30440000
   0.71840000  0.10000000  0.69560003
   0.71840000  0.40000001  0.19560000
   0.28160000  0.60000002  0.80439997
   0.21840000  0.10000000  0.80439997
   0.78160000  0.89999998  0.19560000
   0.69560003  0.78160000  0.60000002
   0.30440000  0.21840000  0.40000001
   0.30440000  0.28160000  0.89999998
   0.69560003  0.71840000  0.10000000
   0.19560000  0.71840000  0.40000001
   0.80439997  0.28160000  0.60000002
   0.80439997  0.21840000  0.10000000
   0.19560000  0.78160000  0.89999998
   0.44560000  0.85000002  0.46840000
   0.55439997  0.15000001  0.53160000
   0.05440000  0.15000001  0.96840000
   0.94560003  0.85000002  0.03160000
   0.94560003  0.64999998  0.53160000
   0.05440000  0.34999999  0.46840000
   0.55439997  0.34999999  0.03160000
   0.44560000  0.64999998  0.96840000
   0.34999999  0.03160000  0.55439997
   0.64999998  0.96840000  0.44560000
   0.64999998  0.53160000  0.94560003
   0.34999999  0.46840000  0.05440000
   0.15000001  0.96840000  0.05440000
   0.85000002  0.03160000  0.94560003
   0.85000002  0.46840000  0.44560000
   0.15000001  0.53160000  0.55439997
   0.53160000  0.94560003  0.64999998
   0.46840000  0.05440000  0.34999999
   0.03160000  0.55439997  0.34999999
   0.96840000  0.44560000  0.64999998
   0.46840000  0.44560000  0.85000002
   0.53160000  0.55439997  0.15000001
   0.96840000  0.05440000  0.15000001
   0.03160000  0.94560003  0.85000002
   0.12500000  0.00000000  0.25000000
   0.87500000  0.00000000  0.75000000
   0.37500000  0.00000000  0.75000000
   0.62500000  0.00000000  0.25000000
   0.87500000  0.50000000  0.25000000
   0.12500000  0.50000000  0.75000000
   0.62500000  0.50000000  0.75000000
   0.37500000  0.50000000  0.25000000
   0.25000000  0.12500000  0.00000000
   0.75000000  0.87500000  0.00000000
   0.75000000  0.37500000  0.00000000
   0.25000000  0.62500000  0.00000000
   0.25000000  0.87500000  0.50000000
   0.75000000  0.12500000  0.50000000
   0.75000000  0.62500000  0.50000000
   0.25000000  0.37500000  0.50000000
   0.00000000  0.25000000  0.12500000
   0.00000000  0.75000000  0.87500000
   0.00000000  0.75000000  0.37500000
   0.00000000  0.25000000  0.62500000
   0.50000000  0.25000000  0.87500000
   0.50000000  0.75000000  0.12500000
   0.50000000  0.75000000  0.62500000
   0.50000000  0.25000000  0.37500000
   0.00000000  0.00000000  0.00000000
   0.50000000  0.00000000  0.50000000
   0.00000000  0.50000000  0.50000000
   0.50000000  0.50000000  0.00000000
   0.75000000  0.25000000  0.25000000
   0.25000000  0.75000000  0.75000000
   0.75000000  0.75000000  0.75000000
   0.25000000  0.25000000  0.25000000
   0.25000000  0.25000000  0.75000000
   0.75000000  0.75000000  0.25000000
   0.25000000  0.75000000  0.25000000
   0.75000000  0.25000000  0.75000000
   0.50000000  0.50000000  0.50000000
   0.00000000  0.50000000  0.00000000
   0.50000000  0.00000000  0.00000000
   0.00000000  0.00000000  0.50000000
   0.18770000  0.92600000  0.90090001
   0.43770000  0.15090001  0.17600000
   0.15090001  0.67600000  0.56229997
   0.31230000  0.07400000  0.40090001
   0.84909999  0.82400000  0.56229997
   0.17600000  0.56229997  0.34909999
   0.34909999  0.67600000  0.43770000
   0.57400000  0.09910000  0.68770003
   0.09910000  0.18770000  0.42600000
   0.07400000  0.40090001  0.31230000
   0.59909999  0.68770003  0.92600000
   0.31230000  0.92600000  0.09910000
   0.17600000  0.06230000  0.65090001
   0.67600000  0.93770003  0.65090001
   0.56229997  0.34909999  0.17600000
   0.93770003  0.65090001  0.67600000
   0.43770000  0.34909999  0.67600000
   0.93770003  0.84909999  0.17600000
   0.07400000  0.90090001  0.68770003
   0.93770003  0.34909999  0.82400000
   0.84909999  0.17600000  0.93770003
   0.84909999  0.67600000  0.06230000
   0.67600000  0.56229997  0.15090001
   0.59909999  0.81229997  0.42600000
   0.82400000  0.43770000  0.65090001
   0.84909999  0.32400000  0.43770000
   0.43770000  0.84909999  0.32400000
   0.06230000  0.65090001  0.17600000
   0.59909999  0.18770000  0.07400000
   0.56229997  0.84909999  0.82400000
   0.81229997  0.57400000  0.90090001
   0.93770003  0.15090001  0.32400000
   0.50000000  0.75000000  0.37500000
   0.87500000  0.00000000  0.25000000
   0.62500000  0.50000000  0.25000000
   0.25000000  0.12500000  0.50000000
   0.50000000  0.25000000  0.62500000
   0.00000000  0.25000000  0.37500000
   0.25000000  0.87500000  0.00000000
   0.12500000  0.50000000  0.25000000
   0.62500000  0.00000000  0.75000000
   0.75000000  0.87500000  0.50000000
   0.50000000  0.75000000  0.87500000
   0.75000000  0.62500000  0.00000000
   0.00000000  0.75000000  0.62500000
   0.00000000  0.25000000  0.87500000
   0.25000000  0.62500000  0.50000000
   0.87500000  0.50000000  0.75000000
   0.75000000  0.12500000  0.00000000
   0.12500000  0.00000000  0.75000000
   0.50000000  0.25000000  0.12500000
   0.37500000  0.00000000  0.25000000
   0.25000000  0.37500000  0.00000000
   0.00000000  0.75000000  0.12500000
   0.75000000  0.37500000  0.50000000
   0.37500000  0.50000000  0.75000000
Direct configuration=     2
   0.09471113  0.19482526  0.28660216
   0.90071934  0.80257117  0.71454916
   0.40339358  0.80755131  0.77836885
   0.59483948  0.19729945  0.21435656
   0.90431739  0.69660076  0.21469655
   0.09418367  0.30624664  0.77730133
   0.60021813  0.30359354  0.72010074
   0.39863856  0.70011943  0.28519102
   0.28379942  0.09801773  0.19703034
   0.71614099  0.89805265  0.80020823
   0.78612675  0.40188594  0.80259939
   0.21420236  0.60225343  0.20157557
   0.21451788  0.90541658  0.69294253
   0.78222993  0.10304271  0.30604154
   0.72185433  0.60086235  0.30025438
   0.28097772  0.39757780  0.69238202
   0.19433006  0.27671068  0.10573735
   0.80402522  0.71582003  0.90305348
   0.80550693  0.77992460  0.40301322
   0.19095632  0.21519543  0.59606398
   0.69918712  0.22000110  0.90147591
   0.30496782  0.78308584  0.10372064
   0.30164623  0.72050809  0.59283885
   0.70013464  0.27902549  0.39902594
   0.94123815  0.34931692  0.96733137
   0.05043590  0.65187344  0.03355404
   0.55515853  0.65718227  0.46939020
   0.44410077  0.34990679  0.53070937
   0.45033732  0.14987695  0.03566282
   0.55773756  0.84582057  0.96645234
   0.05470728  0.84889611  0.53386238
   0.94861158  0.15287473  0.46565012
   0.84441864  0.53624991  0.05345719
   0.14353366  0.47350853  0.94532636
   0.15153492  0.03379915  0.44588640
   0.84944377  0.96679460  0.55714278
   0.65366785  0.47208268  0.55682044
   0.34513923  0.53446515  0.44286087
   0.34724191  0.96808410  0.94782032
   0.64732794  0.03204381  0.05590159
   0.02832004  0.44713504  0.15536264
   0.96328451  0.55631874  0.84845529
   0.53068875  0.05255990  0.84676727
   0.46646092  0.94503307  0.15146353
   0.97154681  0.94500885  0.35114446
   0.03301831  0.05039272  0.64995533
   0.47258526  0.55549125  0.64862053
   0.52855085  0.44289055  0.34757045
   0.60222196  0.70067032  0.78355196
   0.40436257  0.30073963  0.21915734
   0.90224255  0.30331506  0.28642810
   0.09461612  0.69679148  0.71408306
   0.40344058  0.19545719  0.71861197
   0.59664596  0.80642701  0.28364794
   0.09538576  0.80150339  0.22003550
   0.89885153  0.19768637  0.78265382
   0.78586579  0.60020953  0.69582448
   0.21479776  0.40401969  0.30756574
   0.28355984  0.90011932  0.30646072
   0.71733371  0.09494003  0.69355964
   0.71746652  0.40226614  0.19276593
   0.27615369  0.60511907  0.80344436
   0.21893649  0.09381338  0.80106277
   0.78207144  0.89584097  0.19408628
   0.69831690  0.78540040  0.60024820
   0.30286400  0.21639617  0.40033396
   0.30600231  0.27583974  0.89732815
   0.69852678  0.71475113  0.09745586
   0.19591010  0.71473583  0.40421809
   0.80816903  0.28344888  0.59813942
   0.80350632  0.22090541  0.09767086
   0.19299655  0.78390443  0.89843250
   0.44676379  0.84660572  0.46517491
   0.55567435  0.14502023  0.53248615
   0.05160551  0.14740396  0.97142029
   0.94262812  0.84525097  0.03270777
   0.94617426  0.65236780  0.53304200
   0.05306540  0.34837948  0.46471500
   0.55879370  0.34453503  0.03539586
   0.45151143  0.65225326  0.97086387
   0.34754069  0.02850794  0.55154428
   0.64806630  0.96562087  0.44739526
   0.65703114  0.53584583  0.94526373
   0.35402193  0.47316834  0.05693219
   0.15391589  0.96715792  0.05350028
   0.84973324  0.03040743  0.94326474
   0.85254693  0.46808145  0.44625037
   0.14754206  0.53387017  0.55088638
   0.53559231  0.94685207  0.65249634
   0.46640784  0.05330304  0.34949563
   0.03421448  0.55337444  0.34733570
   0.96539632  0.44626899  0.64975121
   0.47434145  0.44362372  0.84984875
   0.53437964  0.55491574  0.15104407
   0.97139211  0.05366000  0.15225977
   0.03302853  0.94200905  0.84544447
   0.12325142  0.00015937  0.24592528
   0.87580832  0.00451406  0.75531473
   0.37398854  0.00221143  0.75349829
   0.63063859 -0.00025565  0.24895801
   0.87157667  0.49774080  0.25070092
   0.13503610  0.49650999  0.75602964
   0.61488723  0.49749920  0.74778040
   0.37925293  0.49733195  0.24585352
   0.24683300  0.13629732 -0.00290858
   0.74985621  0.88426057  0.00228181
   0.74855985  0.37222726  0.00095497
   0.25306255  0.61947022 -0.00492634
   0.25087778  0.87701760  0.50189004
   0.74540774  0.12565465  0.49749250
   0.74370140  0.61860529  0.49580263
   0.25599418  0.37423652  0.50545911
   0.00486578  0.24913694  0.11738672
   0.00591799  0.75055510  0.87971478
  -0.00227936  0.75414031  0.37695454
   0.00389522  0.25043582  0.63110332
   0.49444436  0.25371038  0.87421801
   0.49649261  0.74680811  0.12246327
   0.49519440  0.74162929  0.62773258
   0.50038442  0.25517387  0.38364045
   0.00038192  0.00811455  0.00232243
   0.50097879  0.00876840  0.49886726
  -0.00007193  0.49825863  0.50392222
   0.48563530  0.49808599 -0.00388831
   0.75062387  0.24774482  0.25042275
   0.25792763  0.74016235  0.75905286
   0.74792461  0.74770469  0.75107138
   0.25045764  0.25378221  0.24014828
   0.25064782  0.25590812  0.75841135
   0.74672926  0.75328933  0.25612370
   0.25181029  0.75125743  0.24093915
   0.74228020  0.24928715  0.74957133
   0.50374377  0.49712473  0.50139654
   0.01526286  0.49412374 -0.00193587
   0.50188472  0.00042461 -0.00378705
  -0.00290450 -0.00353026  0.49506443
   0.18347763  0.92861068  0.89533880
   0.43116744  0.14479592  0.17901111
   0.14554985  0.67806718  0.56786795
   0.31724452  0.07220513  0.39501934
   0.85507238  0.82189660  0.56529772
   0.18039763  0.56654824  0.35507563
   0.35647109  0.67709431  0.43412501
   0.57001379  0.10764480  0.68377372
   0.10711228  0.18378667  0.42972522
   0.07136466  0.39359780  0.31512116
   0.60331013  0.68164571  0.92949654
   0.31651973  0.92831277  0.10464453
   0.18009359  0.06910837  0.64563845
   0.67921611  0.93320471  0.64431783
   0.56574993  0.35746622  0.17970231
   0.93399073  0.64427896  0.67933140
   0.43276694  0.35568249  0.67870654
   0.93311964  0.85721584  0.17852423
   0.07103450  0.89389216  0.68416512
   0.93531963  0.35470334  0.82222646
   0.85531156  0.17760148  0.93414008
   0.85589985  0.67946606  0.06722801
   0.67713416  0.56614636  0.14600243
   0.60660062  0.81574101  0.42885505
   0.81997152  0.43301512  0.64419775
   0.85343070  0.32200471  0.43340085
   0.43246376  0.85562280  0.31980689
   0.06766546  0.64452336  0.17699488
   0.60686647  0.18214445  0.06898752
   0.56487572  0.85619492  0.82162446
   0.81659364  0.56994808  0.89366813
   0.93158837  0.14337501  0.31917253
   0.49967212  0.73556408  0.37385962
   0.87230970  0.00027158  0.24944639
   0.62041165  0.49692138  0.26121283
   0.24889726  0.13088371  0.50825990
   0.50387949  0.24420544  0.61896551
  -0.00201562  0.26070703  0.37455722
   0.24995866  0.86503274 -0.00027613
   0.12692173  0.50009080  0.23537629
   0.62577141  0.00002111  0.76403580
   0.74496415  0.88019334  0.49212555
   0.48382473  0.74591876  0.87534740
   0.73874629  0.62439930  0.00214117
   0.00484094  0.75618044  0.62167858
   0.00978845  0.24211424  0.87905646
   0.25227877  0.61558636  0.50341327
   0.87889439  0.50403753  0.75670265
   0.74377989  0.11871230  0.00443425
   0.12440061  0.00553888  0.76295477
   0.49022121  0.25629065  0.11958690
   0.37490820  0.00032008  0.24967316
   0.25026435  0.37500364 -0.00054769
   0.00318872  0.75161321  0.11564633
   0.73806490  0.37886937  0.50293979
   0.37354673  0.50262798  0.75181589
Direct configuration=     3
   0.09500457  0.19556145  0.28505328
   0.90088067  0.80199992  0.71410245
   0.40282471  0.80737293  0.77791956
   0.59464939  0.19813695  0.21408643
   0.90388591  0.69814508  0.21432589
   0.09595216  0.30785638  0.77851237
   0.59662246  0.30389028  0.71985028
   0.39787510  0.70049264  0.28436835
   0.28418901  0.09940706  0.19612958
   0.71558372  0.89817623  0.79991410
   0.78613959  0.40096807  0.80097765
   0.21458787  0.60214349  0.20043638
   0.21493745  0.90559003  0.69402064
   0.78267275  0.10251020  0.30611524
   0.72191362  0.60063823  0.29958643
   0.28264195  0.39784557  0.69364931
   0.19238953  0.27766785  0.09997811
   0.80362921  0.71617211  0.90316981
   0.80476869  0.77955164  0.40340119
   0.18995505  0.21654055  0.59901670
   0.69929920  0.21958609  0.90167896
   0.30648020  0.78269712  0.09986708
   0.30136304  0.72006274  0.59471584
   0.70050477  0.27861121  0.39943165
   0.94271151  0.34822935  0.96696436
   0.05231493  0.64923346  0.03272012
   0.55555602  0.65452548  0.47123859
   0.44472187  0.35050605  0.53239500
   0.45102979  0.14991811  0.03500241
   0.55771914  0.84584308  0.96615388
   0.05461368  0.84993764  0.53338900
   0.94905654  0.15288305  0.46468114
   0.84488130  0.53573075  0.05294435
   0.15531201  0.47191675  0.94137154
   0.15131571  0.03459216  0.44562158
   0.84870726  0.96694787  0.55709181
   0.65158894  0.47287240  0.55792928
   0.34761655  0.53304261  0.44211957
   0.34676042  0.96895707  0.94898471
   0.64645345  0.03248460  0.05677975
   0.02797753  0.44593408  0.15348912
   0.96582899  0.55563928  0.85031581
   0.52919950  0.05336404  0.84774005
   0.46618051  0.94488144  0.15060114
   0.97144812  0.94475715  0.34846466
   0.03316721  0.04947250  0.65014000
   0.47237070  0.55385357  0.64892948
   0.52661401  0.44132542  0.34898623
   0.59924474  0.70080729  0.78460738
   0.40383826  0.30075399  0.21955526
   0.90080574  0.30248929  0.28597586
   0.09696058  0.69589449  0.71471227
   0.40332279  0.19787428  0.71942403
   0.59618855  0.80729470  0.28380283
   0.09540756  0.80118167  0.22008858
   0.89837129  0.19869555  0.78434971
   0.78586981  0.59900286  0.69564971
   0.21564840  0.40364550  0.30660516
   0.28391388  0.90023048  0.30535550
   0.71608913  0.09564965  0.69312115
   0.71632043  0.40153145  0.19288492
   0.27767015  0.59702196  0.80741579
   0.22056926  0.09725408  0.80181815
   0.78241737  0.89702598  0.19378644
   0.69870095  0.78589075  0.59939882
   0.30282055  0.21722018  0.39966658
   0.30665496  0.27723183  0.90004734
   0.69796241  0.71560304  0.09937390
   0.19665075  0.71388267  0.40385746
   0.80772437  0.28393049  0.59829208
   0.80380322  0.22057558  0.09721207
   0.19402106  0.78220750  0.89860541
   0.44803050  0.84618274  0.46475945
   0.55743180  0.14831984  0.53376416
   0.05267469  0.14967248  0.97178862
   0.94172398  0.84713836  0.03247754
   0.94629969  0.65239779  0.53326907
   0.05351111  0.34912356  0.46516150
   0.55779615  0.34531643  0.03447579
   0.45050660  0.65032925  0.97115147
   0.34798611  0.02882472  0.55090202
   0.64709788  0.96635982  0.44675997
   0.65345490  0.53475122  0.94359718
   0.34868264  0.47281436  0.05757891
   0.15405349  0.96832843  0.05212640
   0.85046996  0.03157978  0.94359241
   0.85114034  0.46739440  0.44674516
   0.14836303  0.53297831  0.55193707
   0.53585914  0.94864296  0.65307676
   0.46634310  0.05417521  0.34909617
   0.03459270  0.55218336  0.34693391
   0.96569886  0.44624417  0.65168223
   0.47267561  0.44212974  0.84820363
   0.53282353  0.55351494  0.14993128
   0.97173335  0.05385812  0.15226737
   0.03308700  0.94156269  0.84775474
   0.12454737 -0.00068888  0.24710910
   0.87650018  0.00423348  0.75439129
   0.37308057  0.00035126  0.75205777
   0.63023995 -0.00059008  0.24903282
   0.87151723  0.49898332  0.25015321
   0.13127740  0.49728677  0.75269063
   0.61854979  0.49899874  0.74916485
   0.37918848  0.49798326  0.24819996
   0.24733808  0.13263251 -0.00270077
   0.75073021  0.88214370  0.00175362
   0.74867112  0.37528730  0.00156852
   0.25221867  0.62247630 -0.00298350
   0.25083883  0.87652802  0.50225112
   0.74754551  0.12507029  0.49839360
   0.74494762  0.61969382  0.49499819
   0.25450559  0.37346485  0.50337409
   0.00276384  0.25065032  0.11977287
   0.00397863  0.75149739  0.87922750
  -0.00160676  0.75241378  0.37710409
   0.00285414  0.24840291  0.62924077
   0.49622409  0.25240257  0.87566459
   0.49868910  0.74748805  0.12368114
   0.49465984  0.74317466  0.62619005
   0.49996735  0.25485680  0.38257713
  -0.00032872  0.00135414  0.00233950
   0.49753492  0.00173460  0.49945164
   0.00006912  0.49980152  0.50217755
   0.49564179  0.49828666 -0.00326239
   0.75026204  0.24964683  0.24819433
   0.25581490  0.75156782  0.75191545
   0.75157597  0.74775390  0.75161162
   0.25140476  0.25335824  0.24920448
   0.24772585  0.25112702  0.75314310
   0.74754362  0.75124047  0.25557255
   0.24792339  0.75278922  0.24734318
   0.74541811  0.24859942  0.74895314
   0.50354725  0.49983420  0.49846156
  -0.00003069  0.49707989  0.00392604
   0.50033899 -0.00177493 -0.00388975
  -0.00278385 -0.00178116  0.49756619
   0.18196950  0.92968290  0.89345045
   0.42993524  0.14221254  0.18060031
   0.14368009  0.67923603  0.56938791
   0.31813619  0.07187487  0.39326523
   0.85643133  0.82086288  0.56702913
   0.18082879  0.56796671  0.35717534
   0.35781376  0.67856243  0.43259884
   0.56953095  0.10858698  0.68281345
   0.10931781  0.18222952  0.43072213
   0.07082845  0.39244690  0.31667307
   0.60544524  0.68024917  0.92990910
   0.31827808  0.93022514  0.10630136
   0.18020565  0.07012453  0.64396138
   0.68004692  0.93169496  0.64257810
   0.56814276  0.35969150  0.18076676
   0.93289632  0.64288291  0.67999017
   0.43118491  0.35703328  0.67872064
   0.93149741  0.85874848  0.17906855
   0.07073158  0.89252186  0.68303573
   0.93345133  0.35622704  0.82163932
   0.85649135  0.17845139  0.93241498
   0.85755346  0.68002102  0.06850932
   0.67798164  0.56736875  0.14435090
   0.60731354  0.81724923  0.43018482
   0.81929572  0.43157282  0.64261819
   0.85481171  0.32173656  0.43279717
   0.43124679  0.85748262  0.31973342
   0.06839518  0.64285541  0.17847524
   0.60844928  0.18115572  0.06856857
   0.56618588  0.85750098  0.82079341
   0.81786099  0.56930579  0.89284532
   0.93069225  0.14169882  0.31869415
   0.50039060  0.73269935  0.37254735
   0.87094168 -0.00000359  0.24958912
   0.62104176  0.49756361  0.26436927
   0.25040249  0.13158651  0.50914468
   0.50441677  0.24350581  0.61725927
  -0.00208321  0.26167040  0.37501443
   0.24994351  0.86206261 -0.00022187
   0.12787842  0.49916628  0.23257110
   0.62749066  0.00051847  0.76705071
   0.74582700  0.88126493  0.49024479
   0.47996616  0.74575436  0.87500822
   0.73827748  0.62476298  0.00259132
   0.00485992  0.75674776  0.62128276
   0.01220171  0.24060236  0.87859939
   0.25262784  0.61359008  0.50521878
   0.87906587  0.50445358  0.75680339
   0.74355643  0.11726882  0.00498704
   0.12267450  0.00689576  0.76430737
   0.48758004  0.25803767  0.11724782
   0.37492332 -0.00002975  0.24994161
   0.25033757  0.37492477 -0.00011828
   0.00464859  0.75309026  0.11389190
   0.73542554  0.37834554  0.50252802
   0.37338231  0.50431310  0.75204849
Direct configuration=     4
   0.09518747  0.19642108  0.28544328
   0.90163782  0.80134788  0.71339222
   0.40157182  0.80904764  0.77569028
   0.59494330  0.19960797  0.21380661
   0.90346578  0.69961863  0.21347392
   0.09595007  0.30811010  0.77737804
   0.59625334  0.30341732  0.72027545
   0.39668005  0.70165872  0.28474407
   0.28484561  0.09983467  0.19687487
   0.71616979  0.89735024  0.79929120
   0.78676123  0.40080763  0.79949033
   0.21415404  0.60399394  0.20172891
   0.21456736  0.90569311  0.69482857
   0.78302094  0.10259868  0.30603948
   0.72227047  0.59989034  0.29838902
   0.28351375  0.39630418  0.69276312
   0.19156079  0.27608355  0.10156004
   0.80335207  0.71579646  0.90405977
   0.80428980  0.77853686  0.40352698
   0.18809008  0.21613255  0.60020945
   0.70065125  0.21981180  0.90202396
   0.30720864  0.78220356  0.10168861
   0.30047648  0.72111320  0.59517652
   0.70164817  0.27808007  0.39919423
   0.94216041  0.34827469  0.96683578
   0.05139868  0.64807696  0.03319073
   0.55619216  0.65325288  0.47233868
   0.44484364  0.35157421  0.53257131
   0.45269914  0.14850066  0.03495936
   0.55853118  0.84546822  0.96570412
   0.05511673  0.85088123  0.53323910
   0.95028072  0.15255424  0.46402849
   0.84482195  0.53631856  0.05217633
   0.15192225  0.47415477  0.94195237
   0.15157603  0.03550240  0.44625725
   0.84878479  0.96681034  0.55741318
   0.65074662  0.47480089  0.55865087
   0.34932422  0.53289206  0.44100594
   0.34608968  0.96926059  0.94969201
   0.64576788  0.03188793  0.05795281
   0.02511867  0.44546078  0.15294218
   0.96553980  0.55593193  0.85253729
   0.52710729  0.05306714  0.84824178
   0.46565049  0.94448972  0.15050504
   0.97209836  0.94441923  0.34774310
   0.03373962  0.04775557  0.65045839
   0.47305912  0.55332403  0.64809131
   0.52530786  0.43949146  0.34952034
   0.59871908  0.70224702  0.78495831
   0.40281614  0.30032551  0.22170321
   0.89951407  0.30252730  0.28597716
   0.09813793  0.69726522  0.71384919
   0.40283079  0.19884273  0.71939501
   0.59653043  0.80777287  0.28456828
   0.09465161  0.80063004  0.22080240
   0.89816313  0.19929689  0.78553909
   0.78657153  0.59871258  0.69589173
   0.21585448  0.40339108  0.30683489
   0.28432585  0.90095987  0.30570526
   0.71596100  0.09577392  0.69279567
   0.71546787  0.40240016  0.19258142
   0.27667495  0.60098712  0.80709687
   0.22124739  0.09747165  0.80089063
   0.78268207  0.89675033  0.19338549
   0.69987739  0.78642095  0.59874692
   0.30196037  0.21709006  0.40023309
   0.30664842  0.27555335  0.89888037
   0.69832094  0.71531093  0.10104339
   0.19752119  0.71326453  0.40423729
   0.80807067  0.28430388  0.59822048
   0.80351522  0.22120581  0.09670653
   0.19370554  0.78246369  0.89640650
   0.44899431  0.84531370  0.46424108
   0.55826137  0.14628373  0.53302813
   0.05189910  0.14745704  0.97353477
   0.94025931  0.84819192  0.03239878
   0.94669986  0.65307551  0.53346087
   0.05386093  0.35008729  0.46553767
   0.55897765  0.34676998  0.03423135
   0.45230547  0.64880962  0.97246705
   0.34682298  0.02824407  0.54999266
   0.64550184  0.96637358  0.44631385
   0.65194321  0.53468727  0.94296845
   0.35088347  0.47458270  0.05815530
   0.15359459  0.96836800  0.05066934
   0.85103045  0.03169491  0.94321418
   0.85006876  0.46713674  0.44697746
   0.14816065  0.53252961  0.55151285
   0.53577239  0.95019106  0.65332603
   0.46547317  0.05425877  0.34942962
   0.03469086  0.55102085  0.34618295
   0.96532474  0.44674127  0.65183775
   0.47371568  0.44112675  0.84790609
   0.53383504  0.55205148  0.15014591
   0.97241717  0.05269329  0.15249709
   0.03311268  0.94023614  0.84925475
   0.12496135  0.00010423  0.24656751
   0.87586539  0.00507810  0.75462311
   0.37426235  0.00125384  0.75267816
   0.63004640  0.00007928  0.24872967
   0.87163244  0.49902911  0.25145179
   0.13243815  0.49765813  0.75485570
   0.61854917  0.49907532  0.74935079
   0.37793145  0.49838773  0.24658231
   0.24742378  0.13407189 -0.00214523
   0.75008090  0.88201075  0.00160385
   0.74762705  0.37429092  0.00100585
   0.25220223  0.62010992 -0.00413902
   0.25021215  0.87652186  0.50169488
   0.74725406  0.12534720  0.49856856
   0.74528190  0.61973855  0.49525767
   0.25474011  0.37413831  0.50400716
   0.00410663  0.25058427  0.11979500
   0.00501986  0.75042532  0.87883680
  -0.00177509  0.75171850  0.37695765
   0.00194934  0.24847474  0.62944015
   0.49516063  0.25220167  0.87605562
   0.49815655  0.74752505  0.12354065
   0.49505155  0.74196975  0.62688086
   0.50097499  0.25438215  0.38303382
   0.00127270  0.00143857  0.00393932
   0.49854988  0.00106622  0.50038315
   0.00033349  0.50000127  0.50257044
   0.49349896  0.49672073 -0.00269627
   0.74877547  0.24903533  0.24701893
   0.25435264  0.74811328  0.75288368
   0.75089800  0.74721223  0.75155037
   0.24946546  0.25439996  0.24732247
   0.24884682  0.25221836  0.75492233
   0.74763522  0.75205919  0.25530797
   0.24709271  0.75235988  0.24646428
   0.74365862  0.24877510  0.74850859
   0.50269958  0.50031537  0.49920173
   0.00434885  0.49660397  0.00110431
   0.49837709 -0.00244339 -0.00406815
  -0.00377943 -0.00052081  0.49668450
   0.18042242  0.93049562  0.89211644
   0.42859071  0.13933327  0.18181979
   0.14126604  0.67985565  0.57174304
   0.31958604  0.07167413  0.39053235
   0.85774705  0.81974421  0.56903131
   0.18145127  0.56924612  0.35931757
   0.35946984  0.67964452  0.43041571
   0.56871868  0.11038933  0.68127628
   0.11191892  0.18012653  0.43123565
   0.07073919  0.39101936  0.31846871
   0.60663562  0.67923635  0.92958412
   0.32044925  0.93190343  0.10789858
   0.18022020  0.07155404  0.64192362
   0.68072932  0.93000730  0.64037820
   0.57063789  0.36226759  0.18170976
   0.93176142  0.64051357  0.68067058
   0.42900366  0.35909406  0.67949625
   0.92912110  0.86135978  0.18025520
   0.07033240  0.89071408  0.68164683
   0.93192151  0.35800107  0.82120594
   0.85839670  0.17960991  0.93055067
   0.85998053  0.68131475  0.07040633
   0.67776603  0.56879728  0.14298797
   0.60849001  0.81928915  0.43149056
   0.81854751  0.42949855  0.64030011
   0.85593468  0.32146490  0.43197762
   0.42996840  0.85956808  0.31906028
   0.06997736  0.64065953  0.17978060
   0.60996995  0.17973398  0.06817764
   0.56787407  0.85856890  0.82000306
   0.81966896  0.56878678  0.89081741
   0.92934903  0.13918093  0.31763171
   0.50221224  0.72855255  0.37021017
   0.86912692 -0.00000073  0.24957572
   0.62136310  0.49840826  0.26880432
   0.25285934  0.13311560  0.51068782
   0.50460581  0.24383840  0.61572471
  -0.00205793  0.26227514  0.37519486
   0.25004771  0.85839498 -0.00013864
   0.13025524  0.49717782  0.22815195
   0.62959268  0.00248212  0.77117247
   0.74731331  0.88293342  0.48736557
   0.47469468  0.74452450  0.87533679
   0.73706105  0.62532284  0.00266004
   0.00508039  0.75677641  0.62115118
   0.01636847  0.23937184  0.87800270
   0.25419332  0.61028248  0.50824803
   0.87973650  0.50460707  0.75688458
   0.74372961  0.11543190  0.00547893
   0.12060023  0.01018921  0.76665384
   0.48323250  0.26052513  0.11396312
   0.37510319 -0.00008628  0.24979805
   0.25033591  0.37529692 -0.00013494
   0.00775230  0.75481711  0.11127305
   0.73103091  0.37746039  0.50192913
   0.37261622  0.50641496  0.75317595
Direct configuration=     5
   0.09531390  0.19747325  0.28573615
   0.90220038  0.80013944  0.71328156
   0.40059956  0.81028286  0.77381212
   0.59494529  0.20086600  0.21344627
   0.90339513  0.70137334  0.21319029
   0.09618288  0.30927435  0.77676590
   0.59611086  0.30258754  0.72069412
   0.39596087  0.70233926  0.28474104
   0.28522135  0.09991141  0.19714312
   0.71687499  0.89686697  0.79866834
   0.78701575  0.40097613  0.79776927
   0.21349520  0.60389429  0.20212282